Title
19942
    1ASP      N    1   4.743   4.585   3.076  0.6441  0.1782 -0.7094
    1ASP    HT1    2   4.824   4.621   3.129 -1.5828  2.1456  1.5776
    1ASP    HT2    3   4.687   4.667   3.046  1.6505  0.3145 -2.3651
    1ASP    HT3    4   4.771   4.528   2.993  1.0634  1.3450 -1.3913
    1ASP     CA    5   4.663   4.499   3.174  0.3816 -0.8223 -0.2385
    1ASP     HA    6   4.736   4.429   3.213 -0.7777 -0.9339  1.8729
    1ASP     CB    7   4.608   4.573   3.303 -0.0644 -0.7553  0.0345
    1ASP    HB1    8   4.688   4.595   3.376  0.3675  1.8051 -1.0754
    1ASP    HB2    9   4.523   4.529   3.358 -1.1365  0.7137 -0.3797
    1ASP     CG   10   4.559   4.714   3.273 -0.3231  0.4599  0.6144
    1ASP    OD1   11   4.516   4.768   3.371 -0.1320 -0.3188 -0.1614
    1ASP    OD2   12   4.552   4.759   3.160 -0.7662  0.0591 -0.4882
    1ASP      C   13   4.556   4.411   3.108 -0.4808  0.9356  0.4522
    1ASP      O   14   4.522   4.435   2.991  0.6593 -0.0328  0.1514
    2ALA      N   15   4.501   4.309   3.173 -0.5887 -0.7597  0.3421
    2ALA     HN   16   4.516   4.296   3.271  0.8392  1.9462  0.5853
    2ALA     CA   17   4.388   4.237   3.120 -0.1160  1.0620  0.4329
    2ALA     HA   18   4.404   4.219   3.015  0.4316  0.2225  0.6489
    2ALA     CB   19   4.355   4.107   3.192  0.7692  0.7398  0.1110
    2ALA    HB1   20   4.436   4.032   3.180  2.1931  1.8600  2.1265
    2ALA    HB2   21   4.256   4.068   3.160  0.9092  1.9379 -2.0262
    2ALA    HB3   22   4.351   4.118   3.302  1.1476 -0.7819  0.2981
    2ALA      C   23   4.264   4.324   3.109  0.2077  0.2274  0.0245
    2ALA      O   24   4.238   4.413   3.192 -0.6306  0.3482 -0.0582
    3ASP      N   25   4.180   4.305   3.001 -0.0518 -0.0525  0.1686
    3ASP     HN   26   4.197   4.227   2.941  3.0753  1.0852 -0.5929
    3ASP     CA   27   4.059   4.376   2.987  0.2962  0.2289 -0.1903
    3ASP     HA   28   4.069   4.483   2.983 -3.7315  0.7645 -0.0290
    3ASP     CB   29   3.991   4.331   2.859  0.3648 -0.1909  0.4043
    3ASP    HB1   30   3.882   4.353   2.858  0.3809 -0.1099 -0.4536
    3ASP    HB2   31   3.988   4.222   2.836 -1.1183  0.3694 -2.4041
    3ASP     CG   32   4.050   4.398   2.737 -0.6554  0.2680 -0.3811
    3ASP    OD1   33   4.157   4.462   2.741 -0.6285  0.3349  0.2474
    3ASP    OD2   34   3.986   4.392   2.637  0.3766 -0.0881  0.3705
    3ASP      C   35   3.953   4.352   3.100  0.0948  0.8253  0.8642
    3ASP      O   36   3.931   4.239   3.146  0.4808 -0.5549  0.0135
    4GLY      N   37   3.872   4.450   3.148 -0.8144  0.0786  0.1045
    4GLY     HN   38   3.876   4.540   3.106  0.6430 -0.2861 -0.5706
    4GLY     CA   39   3.763   4.429   3.239  0.5083  0.3210  0.7051
    4GLY    HA1   40   3.725   4.529   3.254  1.7406  1.0670 -0.7966
    4GLY    HA2   41   3.794   4.393   3.336  0.9948  1.1433  0.8586
    4GLY      C   42   3.644   4.354   3.186  0.4200  0.6431  0.7031
    4GLY      O   43   3.639   4.332   3.067 -0.2981 -0.3306 -0.5274
    5PRO      N   44   3.545   4.308   3.266  0.2881 -0.0679  0.0318
    5PRO     CD   45   3.564   4.300   3.410  0.0867  1.0896 -0.7977
    5PRO    HD1   46   3.598   4.397   3.453 -0.1844  0.3334  1.2331
    5PRO    HD2   47   3.643   4.223   3.425 -0.0347  0.9561 -0.8370
    5PRO     CA   48   3.431   4.234   3.223  0.3739  0.1991 -0.3418
    5PRO     HA   49   3.472   4.139   3.193  1.6487  0.8631 -0.7473
    5PRO     CB   50   3.339   4.222   3.351 -0.0820 -0.1296  0.2217
    5PRO    HB1   51   3.291   4.122   3.353  0.1407 -0.2873 -1.2445
    5PRO    HB2   52   3.252   4.291   3.350  0.0559  0.0428  0.2565
    5PRO     CG   53   3.433   4.251   3.472 -0.2625 -0.9913  0.5192
    5PRO    HG1   54   3.397   4.341   3.527  1.7822 -0.6162  1.3368
    5PRO    HG2   55   3.463   4.163   3.534  1.3834 -0.7126  0.1540
    5PRO      C   56   3.351   4.278   3.095  0.1988  0.4302  0.8581
    5PRO      O   57   3.353   4.400   3.067  0.5256  0.1409 -0.4359
    6GLY      N   58   3.288   4.173   3.030 -0.3974  0.4006  0.8058
    6GLY     HN   59   3.270   4.086   3.075 -0.8073  1.0409  1.9143
    6GLY     CA   60   3.226   4.181   2.903  0.6745 -0.9575  0.0136
    6GLY    HA1   61   3.180   4.086   2.880  0.7387 -1.1262  0.5742
    6GLY    HA2   62   3.303   4.199   2.829  0.7747 -4.2302 -0.8300
    6GLY      C   63   3.117   4.285   2.885  0.6233 -0.2673  0.7129
    6GLY      O   64   3.051   4.331   2.976 -0.5141 -0.4140  0.4490
    7ASP      N   65   3.085   4.314   2.759 -0.2275 -0.3971  0.4648
    7ASP     HN   66   3.147   4.295   2.684 -1.0454  1.6390 -0.8438
    7ASP     CA   67   2.973   4.393   2.720 -0.1169 -0.3590 -0.3293
    7ASP     HA   68   2.972   4.484   2.778  0.4147 -0.5317 -0.0464
    7ASP     CB   69   2.959   4.411   2.571 -0.1128 -0.7696  0.2246
    7ASP    HB1   70   2.878   4.478   2.534  0.2548 -1.4191 -1.9266
    7ASP    HB2   71   2.957   4.308   2.530 -1.3935 -0.9905  0.7888
    7ASP     CG   72   3.092   4.469   2.524 -0.2071 -0.0662 -0.4808
    7ASP    OD1   73   3.134   4.432   2.412  0.3569 -0.7396  0.0088
    7ASP    OD2   74   3.151   4.559   2.590 -0.3298 -0.3957  0.0195
    7ASP      C   75   2.847   4.318   2.759 -0.1451 -0.3447 -0.6129
    7ASP      O   76   2.842   4.195   2.756  0.3323 -0.0363  0.2498
    8PRO      N   77   2.740   4.380   2.806  0.2485 -0.3098 -0.1782
    8PRO     CD   78   2.742   4.527   2.835  0.2395  0.5755  0.2651
    8PRO    HD1   79   2.748   4.585   2.741 -1.9140  0.5878  0.0750
    8PRO    HD2   80   2.811   4.555   2.917 -0.6008  1.4808  0.6850
    8PRO     CA   81   2.632   4.315   2.873  1.0142 -0.6033 -0.7079
    8PRO     HA   82   2.675   4.241   2.940 -1.7479 -0.5114  1.3281
    8PRO     CB   83   2.577   4.417   2.974 -0.4056 -0.2619  0.2437
    8PRO    HB1   84   2.616   4.409   3.078 -1.3112  2.9400  0.9511
    8PRO    HB2   85   2.467   4.413   2.988 -0.6265  1.2587 -0.7836
    8PRO     CG   86   2.607   4.550   2.908 -0.3565  0.1848  0.1077
    8PRO    HG1   87   2.531   4.582   2.833  0.9439  1.4524 -0.7283
    8PRO    HG2   88   2.617   4.629   2.986  0.2789 -0.0509  0.2723
    8PRO      C   89   2.531   4.250   2.787 -0.0788 -0.4013 -0.1362
    8PRO      O   90   2.472   4.318   2.700 -0.0331  0.1212 -0.0066
    9ASP      N   91   2.484   4.126   2.822  0.8692  0.1902 -0.4701
    9ASP     HN   92   2.532   4.070   2.889 -1.0308 -1.5001 -0.4228
    9ASP     CA   93   2.347   4.077   2.786 -0.2794 -0.4253 -0.0254
    9ASP     HA   94   2.326   4.099   2.683  2.1465  0.9491 -0.3078
    9ASP     CB   95   2.348   3.918   2.786  0.0079 -0.2635 -0.1567
    9ASP    HB1   96   2.242   3.883   2.781 -0.4983  1.0287  0.9489
    9ASP    HB2   97   2.389   3.869   2.876 -2.5348 -0.9620  0.7049
    9ASP     CG   98   2.425   3.858   2.665  0.5467  0.4126 -0.2059
    9ASP    OD1   99   2.423   3.910   2.553 -0.0294 -0.5901 -0.2621
    9ASP    OD2  100   2.478   3.747   2.687 -0.3125  0.4428  0.0907
    9ASP      C  101   2.233   4.132   2.869 -0.7804 -0.2291 -0.2648
    9ASP      O  102   2.119   4.129   2.833  0.4239 -0.4197  0.1979
   10ALA      N  103   2.269   4.167   2.992 -0.6284 -1.0923 -0.2039
   10ALA     HN  104   2.363   4.168   3.024 -0.5958 -2.3071 -0.2028
   10ALA     CA  105   2.168   4.233   3.078  0.3191  1.0223  0.2565
   10ALA     HA  106   2.102   4.300   3.026 -0.3520  0.2568  0.1008
   10ALA     CB  107   2.085   4.134   3.167  0.5096 -0.0061 -0.1384
   10ALA    HB1  108   2.160   4.076   3.226  0.7662  0.2546 -0.2045
   10ALA    HB2  109   2.043   4.055   3.102  0.8852  0.9886 -1.6357
   10ALA    HB3  110   2.005   4.191   3.219  0.4296  2.2364 -2.5242
   10ALA      C  111   2.226   4.331   3.175 -0.1558 -0.3505 -0.0432
   10ALA      O  112   2.329   4.308   3.231  0.0747  0.2498 -0.2601
   11GLY      N  113   2.162   4.447   3.197 -0.9318  0.0199 -0.0669
   11GLY     HN  114   2.090   4.477   3.135 -2.4268 -2.1191  0.5539
   11GLY     CA  115   2.227   4.553   3.270 -0.3478 -0.0056 -0.4154
   11GLY    HA1  116   2.305   4.596   3.208 -1.4951  0.1663 -1.8095
   11GLY    HA2  117   2.269   4.528   3.366  0.8028  0.0843 -0.8760
   11GLY      C  118   2.130   4.668   3.298 -0.4857 -0.5131 -0.2559
   11GLY    OT1  119   2.037   4.684   3.216  0.0511  0.1379 -0.0710
   11GLY    OT2  120   2.149   4.747   3.395  0.7390 -0.1830 -0.4313
   12LIT    LIT  121   1.977   4.836   3.302  0.6057  0.1721 -0.8047
   13LIT    LIT  122   4.355   2.191   3.894  0.3076 -0.7522  0.8752
   14LIT    LIT  123   2.172   3.710   4.766  0.6648 -0.1815 -0.3923
   15LIT    LIT  124   5.048   5.450   1.929 -0.8302 -0.1903 -0.2467
   16LIT    LIT  125   2.516   3.752   2.494 -0.9282  0.6852 -0.3061
   17LIT    LIT  126   3.814   5.691   3.589  0.3271  0.5174 -0.1598
   18LIT    LIT  127   5.177   1.790   5.040  0.7598 -0.7722  0.7340
   19LIT    LIT  128   3.918   4.433   2.231 -0.0338 -0.5687  0.2473
   20LIT    LIT  129   3.594   4.966   1.334 -0.3831 -1.8120  0.4680
   21LIT    LIT  130   0.264   5.252   3.030  0.5553  0.3451 -0.4087
   22LIT    LIT  131   1.149   3.154   2.233 -0.3429  0.3754 -0.1923
   23LIT    LIT  132   3.531   0.247   2.498  0.6175  0.2397  0.3038
   24LIT    LIT  133   5.294   2.935   0.643 -0.0331  0.6820 -0.1839
   25LIT    LIT  134   2.885   4.706   0.489  0.3447  0.9735 -0.0682
   26LIT    LIT  135   3.405   2.358   0.915  0.2291 -0.9459 -0.8132
   27LIT    LIT  136   0.684   1.093   3.303 -0.4938  0.6750 -1.1364
   28LIT    LIT  137   1.266   4.566   2.312 -0.9203 -1.5494  0.2672
   29LIT    LIT  138   5.607   0.358   0.491 -0.0282  0.5308 -0.6741
   30LIT    LIT  139   5.361   2.898   4.485 -0.0977  0.2122  0.1575
   31LIT    LIT  140   1.236   2.966   1.241 -0.3334 -0.4960  0.4389
   32LIT    LIT  141   0.594   4.434   1.230  0.0276 -0.0197 -0.0605
   33LIT    LIT  142   5.503   4.281   0.559 -1.1467 -0.4375  0.0588
   34CLA    CLA  143   0.826   4.102   0.079  0.1333 -0.1223  0.5014
   35CLA    CLA  144   4.731   4.746   2.773  0.0462  0.0325 -0.2216
   36CLA    CLA  145   2.001   1.710   3.232 -0.0464 -0.0736  0.1501
   37CLA    CLA  146   6.298   2.939   1.910  0.5197 -0.1100 -0.0257
   38CLA    CLA  147   4.550   3.860   5.156  0.4111  0.0547 -0.2615
   39CLA    CLA  148   2.067   3.676   4.969  0.2853 -0.2954  0.2917
   40CLA    CLA  149   2.503   4.459   0.166  0.2820  0.2884  0.4796
   41CLA    CLA  150   3.762   3.673   2.695 -0.0598 -0.3699 -0.2821
   42CLA    CLA  151   2.385   3.604   4.784 -0.3251  0.1469  0.1135
   43CLA    CLA  152   5.020   1.233   3.840 -0.4349  0.1563  0.1051
   44CLA    CLA  153   2.477   4.081   1.895 -0.4987  0.0979 -0.4158
   45CLA    CLA  154   6.313   4.072   1.415 -0.1549 -0.1582 -0.2075
   46CLA    CLA  155   0.492   3.660   2.215 -0.4961  0.2889  0.3258
   47CLA    CLA  156   2.430   0.016   0.816  0.2593 -0.3847  0.3042
   48CLA    CLA  157   1.508   3.981   2.427 -0.0730 -0.2299  0.1371
   49CLA    CLA  158   1.498   2.616   1.252  0.0839  0.1956  0.0657
   50CLA    CLA  159   0.198   1.789   0.091 -0.0742 -0.1930  0.2990
   51CLA    CLA  160   0.329   2.894   3.787 -0.0373  0.0580 -0.0870
   52TIP3   OH2  161   1.535   0.666   1.093 -0.1573 -0.1780 -0.2045
   52TIP3    H1  162   1.623   0.669   1.055 -0.0115  1.0180  0.1864
   52TIP3    H2  163   1.548   0.684   1.186 -0.8739  0.7256 -0.2640
   53TIP3   OH2  164   3.340   0.745   0.489  0.0641  0.0798  0.3172
   53TIP3    H1  165   3.375   0.659   0.467  0.2692  0.0175  0.8584
   53TIP3    H2  166   3.400   0.779   0.556  0.7241  1.1752 -0.7659
   54TIP3   OH2  167   0.872   5.261   1.229 -0.0814  0.4601  0.4584
   54TIP3    H1  168   0.937   5.228   1.291  0.4580  3.3009  1.5562
   54TIP3    H2  169   0.910   5.241   1.143  0.8254 -0.4863  1.0461
   55TIP3   OH2  170   5.787   0.352   1.607  0.1708 -0.0470 -0.6418
   55TIP3    H1  171   5.829   0.302   1.537  1.8789 -1.1570  1.0807
   55TIP3    H2  172   5.708   0.302   1.628  1.5428 -1.8099  0.6446
   56TIP3   OH2  173   3.167   4.964   3.717 -0.0462  0.0999 -0.6505
   56TIP3    H1  174   3.244   4.989   3.667 -0.5862  0.1443 -1.4802
   56TIP3    H2  175   3.139   5.044   3.760  0.9805 -0.1447  0.5288
   57TIP3   OH2  176   4.627   4.599   0.085  0.0705 -0.1126 -0.5659
   57TIP3    H1  177   4.565   4.531   0.057 -0.3845 -0.0623  0.2874
   57TIP3    H2  178   4.580   4.681   0.073 -0.8265 -0.1853  1.9776
   58TIP3   OH2  179   0.971   2.045   0.405  0.9843 -0.2129  0.5423
   58TIP3    H1  180   0.966   1.964   0.455 -2.8507  0.6560  1.8825
   58TIP3    H2  181   0.923   2.026   0.324 -1.3721  1.0420  1.5622
   59TIP3   OH2  182   1.122   5.252   0.128 -1.2473  0.0246  0.6823
   59TIP3    H1  183   1.192   5.311   0.155 -1.1417  0.3237 -0.2313
   59TIP3    H2  184   1.060   5.307   0.081 -2.4114 -0.1272  1.9949
   60TIP3   OH2  185   1.168   4.508   2.462 -0.2021 -0.5304 -0.1021
   60TIP3    H1  186   1.143   4.565   2.534 -1.9430 -2.5111  0.9391
   60TIP3    H2  187   1.135   4.421   2.486  2.0615 -1.9812 -1.7485
   61TIP3   OH2  188   1.031   5.788   3.285  0.0809 -0.8773  0.2584
   61TIP3    H1  189   1.106   5.791   3.225  0.3240 -2.4229  0.4419
   61TIP3    H2  190   1.062   5.831   3.365  0.6169 -1.0970  0.1725
   62TIP3   OH2  191   2.146   2.559   3.033  0.2992  0.2554  0.0430
   62TIP3    H1  192   2.207   2.529   2.965 -0.6922 -0.4589 -0.5536
   62TIP3    H2  193   2.199   2.559   3.113  1.2190  0.1325 -0.5470
   63TIP3   OH2  194   2.097   3.188   3.388 -0.2414 -0.1801  0.2109
   63TIP3    H1  195   2.172   3.188   3.447 -1.7068  0.6580  2.1795
   63TIP3    H2  196   2.064   3.098   3.391 -0.1528 -0.2049  0.4655
   64TIP3   OH2  197   2.225   0.645  -0.011 -0.5035 -0.3463  0.2306
   64TIP3    H1  198   2.300   0.702  -0.031  0.1262 -1.8782 -2.2701
   64TIP3    H2  199   2.235   0.623   0.081  1.5196  0.3569  0.2323
   65TIP3   OH2  200   1.563   3.600   0.544 -0.1231 -0.0491  0.1598
   65TIP3    H1  201   1.472   3.622   0.561 -0.0633  0.2929  0.0373
   65TIP3    H2  202   1.604   3.682   0.517  0.4387 -0.0051  1.0921
   66TIP3   OH2  203   0.427   0.315   4.936 -0.1873  0.2605  0.2416
   66TIP3    H1  204   0.364   0.305   4.864  0.0298 -2.3743  0.3420
   66TIP3    H2  205   0.510   0.336   4.893 -0.1389 -0.9322 -0.2682
   67TIP3   OH2  206   0.854   0.869   2.496 -0.0002  0.4688  0.1451
   67TIP3    H1  207   0.839   0.961   2.477 -0.1363  0.3067 -0.5865
   67TIP3    H2  208   0.893   0.834   2.416 -1.5514 -0.4808 -0.2397
   68TIP3   OH2  209   5.312   0.414   3.554 -0.5218  0.1440  0.0794
   68TIP3    H1  210   5.365   0.463   3.616 -1.6937  0.9873  0.4351
   68TIP3    H2  211   5.237   0.383   3.605 -0.9450 -0.0801 -0.6608
   69TIP3   OH2  212   5.109   5.230   3.423  0.2080 -0.0436 -0.3022
   69TIP3    H1  213   5.077   5.266   3.506  2.4869  1.7040 -0.0664
   69TIP3    H2  214   5.106   5.303   3.362  1.8444 -0.3160 -0.7610
   70TIP3   OH2  215   2.171   0.640   1.649  0.2887  0.9479 -0.5218
   70TIP3    H1  216   2.113   0.567   1.628  2.7512 -2.1992  2.3878
   70TIP3    H2  217   2.248   0.625   1.594  0.4366  2.0331 -0.6281
   71TIP3   OH2  218   2.572   4.499   2.198  0.6846  0.2231  0.1258
   71TIP3    H1  219   2.513   4.445   2.251  0.7908  1.6685  1.7908
   71TIP3    H2  220   2.553   4.473   2.108 -1.9964  0.1380  0.6355
   72TIP3   OH2  221   1.676   5.162   2.762 -0.5056 -0.3245  0.2111
   72TIP3    H1  222   1.766   5.129   2.759 -0.5408 -0.4759  0.8527
   72TIP3    H2  223   1.636   5.129   2.682 -0.7539 -2.4335  1.1321
   73TIP3   OH2  224   3.287   2.364   4.110 -0.9048  0.2038  0.0409
   73TIP3    H1  225   3.260   2.306   4.038 -0.0967 -0.7429  0.4773
   73TIP3    H2  226   3.344   2.429   4.068 -0.7484 -0.1074 -0.2350
   74TIP3   OH2  227   1.743   2.775   4.715  0.5056 -0.3242 -0.0911
   74TIP3    H1  228   1.736   2.821   4.632 -0.5162  0.2160  0.2866
   74TIP3    H2  229   1.658   2.734   4.728  0.2163  0.6494  1.2832
   75TIP3   OH2  230   1.952   2.183   4.173  0.4631 -0.3586 -0.0669
   75TIP3    H1  231   2.038   2.224   4.161  0.1787  0.2140 -0.1597
   75TIP3    H2  232   1.928   2.152   4.086  0.9912 -1.3668  0.1288
   76TIP3   OH2  233   4.291   2.493   1.145 -0.4304  0.0706 -0.0383
   76TIP3    H1  234   4.343   2.459   1.218  1.0521 -0.6464 -1.3600
   76TIP3    H2  235   4.337   2.572   1.117 -2.9182  2.4052  1.9236
   77TIP3   OH2  236   5.140   4.093   2.389  0.2253  0.1863 -0.2211
   77TIP3    H1  237   5.071   4.081   2.454  0.3591 -2.2773 -0.4330
   77TIP3    H2  238   5.122   4.027   2.322  2.1816  0.1705 -0.7923
   78TIP3   OH2  239   0.579   4.841   3.637  0.0662 -0.6527 -0.1026
   78TIP3    H1  240   0.535   4.868   3.557  0.9224 -0.0902 -0.4012
   78TIP3    H2  241   0.599   4.749   3.623 -0.6834 -0.8165 -0.1123
   79TIP3   OH2  242   2.986   5.946   3.911 -0.0377 -0.1495 -0.5213
   79TIP3    H1  243   2.935   5.939   3.830  0.3681 -0.2709 -0.7711
   79TIP3    H2  244   2.985   5.857   3.948  1.7653 -0.6918 -1.6315
   80TIP3   OH2  245   5.525   1.154   4.312 -0.0434 -0.2221  0.2238
   80TIP3    H1  246   5.612   1.158   4.353  0.2212  2.0880 -0.4186
   80TIP3    H2  247   5.464   1.168   4.384  0.0522 -1.9202  0.6916
   81TIP3   OH2  248   2.127   3.373   5.072  0.3985 -0.5895  0.0253
   81TIP3    H1  249   2.212   3.337   5.046  0.3005  0.0083 -1.2139
   81TIP3    H2  250   2.131   3.465   5.045 -0.2419 -0.2810  0.9405
   82TIP3   OH2  251   0.050   2.127   4.747 -0.1747 -0.2116  0.0379
   82TIP3    H1  252   0.089   2.169   4.670  0.0685  0.2709  0.4208
   82TIP3    H2  253   0.041   2.197   4.811 -0.5717 -0.5672  0.3800
   83TIP3   OH2  254   1.290   2.677   4.065 -0.5332  0.0826  0.2111
   83TIP3    H1  255   1.263   2.617   3.995 -2.0938  1.2328 -0.2329
   83TIP3    H2  256   1.243   2.647   4.142 -1.2052  0.5931  0.0209
   84TIP3   OH2  257   0.737   1.564   2.205  0.8300 -0.2253  0.5652
   84TIP3    H1  258   0.827   1.576   2.235  0.5166  0.6496  1.2245
   84TIP3    H2  259   0.694   1.648   2.226  0.1154 -0.2653 -0.6519
   85TIP3   OH2  260   3.080   1.188   1.236 -0.1380  0.5271  0.1373
   85TIP3    H1  261   3.147   1.213   1.301  1.2065 -2.2097 -0.0445
   85TIP3    H2  262   3.067   1.267   1.184  2.0246  1.5414  0.9971
   86TIP3   OH2  263   6.072   0.556   2.379 -0.1478 -0.2075 -0.2761
   86TIP3    H1  264   6.069   0.469   2.340  1.2784  0.4215 -1.8841
   86TIP3    H2  265   5.986   0.593   2.361  0.0735 -0.3776 -1.8015
   87TIP3   OH2  266   6.370   5.710   2.510 -0.4781  0.1083 -0.6416
   87TIP3    H1  267   6.353   5.617   2.496  0.3737  0.0912 -1.7290
   87TIP3    H2  268   6.284   5.751   2.509 -0.9312 -0.7662  0.7151
   88TIP3   OH2  269   6.322   5.628   1.112 -0.1389 -0.0318  0.1153
   88TIP3    H1  270   6.355   5.692   1.049  0.1776 -0.3716 -0.0724
   88TIP3    H2  271   6.340   5.667   1.198 -0.2859  0.2929 -0.0014
   89TIP3   OH2  272   6.168   0.577   4.383 -0.2304 -0.6560  0.8670
   89TIP3    H1  273   6.262   0.592   4.375 -0.6352  1.5202 -0.9039
   89TIP3    H2  274   6.155   0.487   4.356  1.5307 -1.7274  3.2497
   90TIP3   OH2  275   1.103   4.787   1.246  0.8378 -0.3572 -0.1649
   90TIP3    H1  276   1.153   4.740   1.179 -1.0117 -0.5856 -1.4838
   90TIP3    H2  277   1.027   4.822   1.199  0.6062  1.4164  1.3916
   91TIP3   OH2  278   6.045   3.796   4.829  0.3634 -0.2268 -0.3479
   91TIP3    H1  279   6.034   3.721   4.770 -0.6880 -0.1940 -0.2052
   91TIP3    H2  280   6.107   3.853   4.783  0.6819 -0.8770 -0.7493
   92TIP3   OH2  281   3.821   1.491   4.962  0.3948  0.1826 -0.3804
   92TIP3    H1  282   3.849   1.421   4.903  0.1155  0.9290 -1.4471
   92TIP3    H2  283   3.727   1.499   4.946 -0.2378 -1.3470  2.1166
   93TIP3   OH2  284   0.042   3.520   0.487  0.1138  0.4360  0.2414
   93TIP3    H1  285  -0.025   3.530   0.554  0.5468  1.5054  0.5386
   93TIP3    H2  286   0.124   3.515   0.536  0.2126 -2.1023 -0.0373
   94TIP3   OH2  287   1.511   5.693   1.227  0.3545 -0.2885  0.6794
   94TIP3    H1  288   1.520   5.601   1.249 -1.0371 -0.1772  1.8339
   94TIP3    H2  289   1.489   5.693   1.133  0.9688 -1.0818  0.5262
   95TIP3   OH2  290   4.480   3.798   1.497  0.0617 -0.6180 -0.5974
   95TIP3    H1  291   4.447   3.736   1.562  0.1131 -0.2584 -0.2222
   95TIP3    H2  292   4.404   3.816   1.440  0.0385 -0.9930 -0.6865
   96TIP3   OH2  293   4.025   3.585   1.444  0.3084  0.0700  0.2969
   96TIP3    H1  294   3.937   3.571   1.480  0.3022  0.7765  0.5865
   96TIP3    H2  295   4.079   3.517   1.484 -0.8017 -2.8237 -2.7504
   97TIP3   OH2  296   2.095   3.502   3.881 -0.1977 -0.1923 -0.1569
   97TIP3    H1  297   2.070   3.425   3.932 -1.9079  0.8290  0.6283
   97TIP3    H2  298   2.045   3.493   3.800  1.8877 -1.3869 -1.4008
   98TIP3   OH2  299   2.994   1.261   0.476  0.0153  0.2850  0.4805
   98TIP3    H1  300   3.072   1.206   0.469 -1.4341 -2.1210  1.6919
   98TIP3    H2  301   2.953   1.254   0.389  0.2205  0.0085  0.4024
   99TIP3   OH2  302   1.639   4.601   1.627  0.1849  0.4897  0.1699
   99TIP3    H1  303   1.598   4.516   1.642 -1.2867  1.5993  3.1372
   99TIP3    H2  304   1.721   4.597   1.676 -0.5315  1.1668  1.4913
  100TIP3   OH2  305   4.321   2.972   1.542 -0.1085 -0.0728  0.0357
  100TIP3    H1  306   4.334   2.879   1.556 -0.2172  0.0179  0.7749
  100TIP3    H2  307   4.365   3.015   1.615  1.4763  0.5583 -1.2368
  101TIP3   OH2  308   2.110   0.506   0.530 -0.1696 -0.1004 -0.0115
  101TIP3    H1  309   2.051   0.566   0.576  0.7485  0.2826  0.7108
  101TIP3    H2  310   2.158   0.563   0.470  2.1102  0.3381  2.0472
  102TIP3   OH2  311   1.232   5.007   1.558  0.3075  0.9643 -0.1610
  102TIP3    H1  312   1.302   5.004   1.623 -1.6616  0.6640  2.0903
  102TIP3    H2  313   1.198   4.917   1.555  0.9896  0.7307 -2.4222
  103TIP3   OH2  314   4.073   5.119   3.968 -0.3950 -0.3428 -0.0074
  103TIP3    H1  315   4.084   5.032   3.929 -0.6838 -1.1086  1.5596
  103TIP3    H2  316   4.034   5.172   3.898  0.3557 -1.2859 -1.1848
  104TIP3   OH2  317   4.197   5.887   3.923 -0.5780  0.0292  0.1615
  104TIP3    H1  318   4.183   5.956   3.859  1.7818 -0.6955 -1.2631
  104TIP3    H2  319   4.268   5.919   3.979  0.7114 -1.2298 -0.6631
  105TIP3   OH2  320   5.728   0.215   1.309  0.2074  0.3479  0.3262
  105TIP3    H1  321   5.781   0.140   1.333 -1.4411 -0.7857  0.5953
  105TIP3    H2  322   5.685   0.189   1.228 -0.0079  1.2072  0.1537
  106TIP3   OH2  323   4.748   5.055   4.079 -0.1270  0.0336 -0.0695
  106TIP3    H1  324   4.768   4.979   4.025 -0.4310 -0.8753  1.0638
  106TIP3    H2  325   4.814   5.120   4.053  0.6453 -0.8885 -0.4959
  107TIP3   OH2  326   0.457   2.873   1.280  0.4328  0.2976 -0.2156
  107TIP3    H1  327   0.528   2.820   1.316  1.1039  1.7606  0.7379
  107TIP3    H2  328   0.477   2.962   1.309 -3.3118  0.4367  2.7195
  108TIP3   OH2  329   6.283   0.484   2.058  0.0974  0.0874  0.1140
  108TIP3    H1  330   6.330   0.508   1.978 -0.2156 -0.8842 -0.3812
  108TIP3    H2  331   6.295   0.389   2.065  0.0942  0.1619  1.2108
  109TIP3   OH2  332   5.744   5.407   1.752 -0.4237  0.0546 -0.3203
  109TIP3    H1  333   5.813   5.444   1.697 -0.3953 -1.1354 -1.1271
  109TIP3    H2  334   5.785   5.398   1.839 -0.1034  0.8864 -0.3742
  110TIP3   OH2  335   1.463   5.809   4.629  0.2913  0.1782  0.2959
  110TIP3    H1  336   1.519   5.761   4.568  0.9859 -0.5638  1.4643
  110TIP3    H2  337   1.462   5.754   4.708 -0.2460  1.2972  1.0946
  111TIP3   OH2  338   1.664   2.295   3.022  0.3168  0.4178 -0.7438
  111TIP3    H1  339   1.668   2.335   3.108  2.9211  0.8048 -0.9644
  111TIP3    H2  340   1.716   2.353   2.965  1.7031 -1.6196 -1.7295
  112TIP3   OH2  341   5.585   4.861   2.981  0.1603  0.4428 -0.0162
  112TIP3    H1  342   5.653   4.794   2.986  1.8194  2.0288 -0.0327
  112TIP3    H2  343   5.534   4.850   3.062 -0.9511 -2.0899 -0.9564
  113TIP3   OH2  344   0.300   1.481   1.981  0.2728 -0.0263  0.1447
  113TIP3    H1  345   0.360   1.529   2.038  0.2683  0.6389 -0.3949
  113TIP3    H2  346   0.216   1.526   1.989  0.2528  0.0291 -0.3182
  114TIP3   OH2  347   5.751   3.984   0.162  0.0585 -0.1028  0.2430
  114TIP3    H1  348   5.688   3.941   0.103 -0.2629 -0.1070  0.5819
  114TIP3    H2  349   5.703   4.059   0.197  1.2606  1.8358 -1.9332
  115TIP3   OH2  350   1.023   0.285   3.821 -0.2872  0.5951  0.3852
  115TIP3    H1  351   1.001   0.283   3.728 -1.1846 -0.9399  0.6117
  115TIP3    H2  352   1.040   0.378   3.839 -1.1996  1.0683 -1.0455
  116TIP3   OH2  353   3.670   3.119   3.633 -0.6160  0.0570 -0.3180
  116TIP3    H1  354   3.629   3.098   3.717 -0.1175 -3.4261 -0.8031
  116TIP3    H2  355   3.620   3.069   3.569  1.4240 -0.4763 -1.5665
  117TIP3   OH2  356   6.097   4.971   0.794 -0.3953 -0.0515  0.5226
  117TIP3    H1  357   6.082   4.889   0.747  1.2737 -0.8098  1.1960
  117TIP3    H2  358   6.161   5.018   0.740 -1.8532  1.1624 -0.2097
  118TIP3   OH2  359   3.137   4.633   3.373 -0.2213  0.3018 -0.2314
  118TIP3    H1  360   3.153   4.627   3.279 -0.6814 -0.4490 -0.2755
  118TIP3    H2  361   3.073   4.563   3.391  0.7261 -0.3222  0.8301
  119TIP3   OH2  362   2.059   0.752   0.355 -0.1374  0.2024 -0.2108
  119TIP3    H1  363   1.967   0.766   0.332  0.4180  0.8900 -2.2615
  119TIP3    H2  364   2.081   0.827   0.411 -1.3437 -1.1233  2.2043
  120TIP3   OH2  365   0.429   1.148   1.598 -0.9457  0.2597 -0.4536
  120TIP3    H1  366   0.365   1.215   1.573 -2.0560 -0.3964  0.5131
  120TIP3    H2  367   0.440   1.159   1.692 -0.0669 -0.0222 -0.5165
  121TIP3   OH2  368   1.450   3.174   1.937 -0.1301 -0.2425 -0.7029
  121TIP3    H1  369   1.451   3.089   1.981  0.5451 -0.4523 -1.1225
  121TIP3    H2  370   1.425   3.154   1.847 -1.2967  0.1644 -0.4862
  122TIP3   OH2  371   0.137   2.350   0.073 -0.1205  0.3258 -0.3404
  122TIP3    H1  372   0.073   2.375   0.140 -0.6119  1.4737 -1.2097
  122TIP3    H2  373   0.145   2.255   0.082  0.6696  0.5432  2.0953
  123TIP3   OH2  374   1.271   4.420   0.374 -0.1626 -0.7343 -0.3775
  123TIP3    H1  375   1.351   4.469   0.389 -0.0914 -0.6066 -1.1517
  123TIP3    H2  376   1.296   4.349   0.314 -0.5133 -1.0174 -0.1982
  124TIP3   OH2  377   6.027   4.915   3.131  0.0415 -0.2181  1.1450
  124TIP3    H1  378   5.996   4.829   3.103  1.9594 -0.0238 -2.1068
  124TIP3    H2  379   5.963   4.945   3.196 -2.7396 -2.5105 -0.3539
  125TIP3   OH2  380   3.793   2.593   3.518 -0.1582  0.8060  0.6141
  125TIP3    H1  381   3.878   2.551   3.534 -0.3308  0.6087  1.0252
  125TIP3    H2  382   3.796   2.673   3.571  0.5597  1.8482 -0.9137
  126TIP3   OH2  383   6.274   1.771   5.076  0.2828 -0.3361 -0.0444
  126TIP3    H1  384   6.281   1.832   5.149  1.5939 -2.4030  1.6757
  126TIP3    H2  385   6.357   1.779   5.029  0.3943 -0.6381  0.0933
  127TIP3   OH2  386   5.037   5.079   0.321 -0.6404  0.8246 -0.1879
  127TIP3    H1  387   4.971   5.140   0.354 -1.8752 -0.0881 -0.8895
  127TIP3    H2  388   5.036   5.006   0.382 -1.2194  0.2191 -0.9098
  128TIP3   OH2  389   0.820   5.004   3.027 -0.2774  0.5653 -0.3536
  128TIP3    H1  390   0.859   5.039   2.947  1.5028 -1.0711 -0.2681
  128TIP3    H2  391   0.758   4.937   2.997 -0.4150  0.7034 -0.3805
  129TIP3   OH2  392   6.219   5.229   2.699 -0.2260 -0.1903  0.3477
  129TIP3    H1  393   6.290   5.167   2.716  0.1842  0.1063 -0.2452
  129TIP3    H2  394   6.146   5.174   2.672  0.4540 -0.3837 -1.2343
  130TIP3   OH2  395   4.919   2.497   4.609 -0.4501  0.4415 -0.2683
  130TIP3    H1  396   4.978   2.572   4.612  0.7379 -0.4355 -0.5022
  130TIP3    H2  397   4.968   2.430   4.561 -1.7500 -0.2513 -0.6937
  131TIP3   OH2  398   5.574   2.843   0.381  0.4534 -0.3682 -0.1023
  131TIP3    H1  399   5.595   2.770   0.439 -0.0094  0.3196  0.9595
  131TIP3    H2  400   5.493   2.818   0.337 -0.1481 -0.1700  0.8660
  132TIP3   OH2  401   0.936   2.175   3.275  0.2941  0.6433 -0.0812
  132TIP3    H1  402   0.990   2.191   3.197 -1.2667 -0.7323 -1.5191
  132TIP3    H2  403   0.868   2.242   3.271  0.1502  0.5050  0.0578
  133TIP3   OH2  404   1.510   5.650   2.420 -0.3843  0.0841  0.2945
  133TIP3    H1  405   1.494   5.581   2.485 -1.3691  0.3372  0.3351
  133TIP3    H2  406   1.423   5.678   2.393  0.0150  0.2614 -0.8500
  134TIP3   OH2  407   2.549   5.114   2.570  0.0652 -0.4459  0.5374
  134TIP3    H1  408   2.480   5.091   2.507  0.1251  0.3395  0.1686
  134TIP3    H2  409   2.585   5.030   2.597  0.5409 -0.7925 -1.0441
  135TIP3   OH2  410   0.969   1.229   1.466 -0.2388 -0.2298 -0.1359
  135TIP3    H1  411   1.041   1.171   1.442 -1.0981 -1.2039 -0.4243
  135TIP3    H2  412   0.951   1.210   1.558 -0.2988 -0.1673 -0.1340
  136TIP3   OH2  413   5.378   0.107   3.136 -0.2619 -0.1002 -0.5250
  136TIP3    H1  414   5.390   0.173   3.204  0.3990  0.2641 -0.9947
  136TIP3    H2  415   5.284   0.088   3.138 -0.1771 -0.5090  0.8745
  137TIP3   OH2  416   4.094   3.849   3.070 -0.7508  0.2249 -0.2838
  137TIP3    H1  417   4.052   3.790   3.007 -0.8297  0.4604 -0.4543
  137TIP3    H2  418   4.023   3.906   3.100 -0.6939  0.1759 -0.0498
  138TIP3   OH2  419   0.988   0.539   2.699  0.1231 -0.3018 -0.7689
  138TIP3    H1  420   1.030   0.624   2.685 -0.8986  0.0499 -1.8624
  138TIP3    H2  421   1.014   0.487   2.624  0.6260 -0.9281 -0.1742
  139TIP3   OH2  422   5.945   1.333   3.234 -0.5781 -0.5509 -0.3223
  139TIP3    H1  423   5.973   1.424   3.232 -1.1170 -0.3694  0.1102
  139TIP3    H2  424   6.018   1.286   3.275  0.5519 -0.6498 -2.3385
  140TIP3   OH2  425   4.235   4.953   5.073 -0.1372  0.3593  0.6865
  140TIP3    H1  426   4.268   5.041   5.059 -1.3047  0.6160 -0.7751
  140TIP3    H2  427   4.312   4.897   5.062  0.3753  1.1107  0.3490
  141TIP3   OH2  428   3.603   3.830   3.526 -0.0917  0.4946  0.0059
  141TIP3    H1  429   3.663   3.873   3.466  0.8677 -0.6123  0.1344
  141TIP3    H2  430   3.657   3.764   3.570 -0.9107  0.8530  1.6244
  142TIP3   OH2  431   5.598   0.840   2.884  0.0858  0.1432 -0.3825
  142TIP3    H1  432   5.693   0.850   2.871 -0.0418  0.1821 -1.3278
  142TIP3    H2  433   5.579   0.752   2.853  0.0605 -0.4811  1.3362
  143TIP3   OH2  434   1.736   1.339   4.675  0.3526 -0.0599 -0.4292
  143TIP3    H1  435   1.806   1.404   4.684 -0.2892  0.3333  2.8436
  143TIP3    H2  436   1.730   1.324   4.580  2.1437  2.8314 -1.1376
  144TIP3   OH2  437   3.947   0.773   0.787  0.5729  0.4544  0.2938
  144TIP3    H1  438   3.964   0.706   0.853 -1.8145 -1.1529 -0.5857
  144TIP3    H2  439   3.852   0.770   0.774  1.0113 -0.6253 -4.4796
  145TIP3   OH2  440   5.577   4.799   1.656  0.0968 -0.3196 -0.0320
  145TIP3    H1  441   5.629   4.877   1.674  0.0618 -0.1307 -0.7367
  145TIP3    H2  442   5.609   4.734   1.719  0.8368 -0.0535 -0.1288
  146TIP3   OH2  443   5.878   3.139   0.318 -0.1179  0.2731 -0.3486
  146TIP3    H1  444   5.885   3.217   0.264  0.7318 -0.3777 -1.2090
  146TIP3    H2  445   5.829   3.167   0.395  1.8053  2.1586  0.2934
  147TIP3   OH2  446   3.411   4.818   2.861 -0.3995  0.2964 -0.3539
  147TIP3    H1  447   3.358   4.886   2.820 -0.0891  0.3370 -0.6864
  147TIP3    H2  448   3.381   4.737   2.819 -1.4682  0.0910  0.7349
  148TIP3   OH2  449   4.496   0.158   5.013 -0.0816  0.0425 -0.2687
  148TIP3    H1  450   4.449   0.196   5.087 -0.1431  0.5349 -0.5532
  148TIP3    H2  451   4.502   0.065   5.033  2.0133  0.4826  1.5060
  149TIP3   OH2  452   6.144   0.494   3.525  0.5511 -0.0044 -0.4315
  149TIP3    H1  453   6.107   0.406   3.516  1.5161 -0.6203  1.1615
  149TIP3    H2  454   6.079   0.542   3.576 -0.3082  0.4675 -1.9035
  150TIP3   OH2  455   3.036   2.726   4.480 -0.0580  0.1035  0.4230
  150TIP3    H1  456   3.058   2.819   4.481  1.4638 -0.2269 -0.1332
  150TIP3    H2  457   2.977   2.717   4.405  0.3379  0.5049  0.0588
  151TIP3   OH2  458   4.012   2.386   2.280 -0.4462  0.1370  0.1114
  151TIP3    H1  459   4.001   2.294   2.257  0.9377  0.1164 -0.5860
  151TIP3    H2  460   4.104   2.394   2.306 -0.8737  1.0563  1.5035
  152TIP3   OH2  461   4.897   1.584   2.725  0.1472  0.2863  0.4542
  152TIP3    H1  462   4.906   1.677   2.703 -0.6171  0.2283 -0.1415
  152TIP3    H2  463   4.877   1.541   2.641  0.5276 -0.4282  0.7172
  153TIP3   OH2  464   1.733   0.407   4.163  0.0874 -0.3792  0.0686
  153TIP3    H1  465   1.747   0.313   4.168  1.7728 -0.1079  2.4638
  153TIP3    H2  466   1.738   0.437   4.254 -1.0021  1.9500 -0.5636
  154TIP3   OH2  467   0.469   3.704   4.455 -0.1928 -0.0162 -0.0353
  154TIP3    H1  468   0.386   3.656   4.464  0.4419 -1.1088  0.1422
  154TIP3    H2  469   0.480   3.748   4.539 -0.0154 -0.8451  0.3927
  155TIP3   OH2  470   5.998   4.687   4.187 -0.7039  0.6058  0.6537
  155TIP3    H1  471   5.915   4.721   4.219 -0.9092  1.3419 -0.5881
  155TIP3    H2  472   6.058   4.695   4.261 -1.3781  1.3941  1.1252
  156TIP3   OH2  473   5.459   0.380   5.085  0.9798 -0.1061  0.1040
  156TIP3    H1  474   5.543   0.376   5.130  0.7457  1.0636  0.6742
  156TIP3    H2  475   5.429   0.289   5.083 -0.1565 -0.0975  4.6109
  157TIP3   OH2  476   5.595   3.930   1.121  0.4818  0.9414  0.2648
  157TIP3    H1  477   5.529   3.864   1.138  0.1460  0.3875 -2.7149
  157TIP3    H2  478   5.670   3.904   1.176 -0.4575 -0.5378  0.8998
  158TIP3   OH2  479   3.439   1.722   3.546 -0.3987  0.1161  0.0639
  158TIP3    H1  480   3.347   1.746   3.536 -0.3125 -0.2957 -2.2942
  158TIP3    H2  481   3.487   1.804   3.535 -0.4248  0.1554  0.2324
  159TIP3   OH2  482   1.461   2.450   4.646 -0.1934  0.2047 -0.4943
  159TIP3    H1  483   1.434   2.426   4.735  0.2850  0.8127 -0.1799
  159TIP3    H2  484   1.533   2.390   4.626 -0.2760  0.0918 -0.4499
  160TIP3   OH2  485   0.930   3.589   1.675  0.5355 -0.5047 -0.2881
  160TIP3    H1  486   0.958   3.597   1.584  1.9878 -0.5875  0.1262
  160TIP3    H2  487   0.988   3.648   1.723  0.4572 -1.2081  0.7091
  161TIP3   OH2  488   3.133   4.931   2.384  0.0860 -0.0090  0.0447
  161TIP3    H1  489   3.179   4.865   2.436  0.4087 -0.6330 -1.0037
  161TIP3    H2  490   3.095   4.991   2.449  1.9542  0.2554  0.9758
  162TIP3   OH2  491   5.053   5.230   3.110 -0.4666 -0.3392 -0.1377
  162TIP3    H1  492   5.041   5.284   3.187  0.1840  0.0520 -0.3044
  162TIP3    H2  493   5.128   5.269   3.064 -0.3094 -1.0710 -0.5224
  163TIP3   OH2  494   4.799   3.628   0.030 -0.1791 -0.3780  0.4257
  163TIP3    H1  495   4.845   3.555   0.074 -2.5639 -1.6519  0.9970
  163TIP3    H2  496   4.719   3.639   0.081 -0.9105  1.2079 -0.9933
  164TIP3   OH2  497   1.770   4.702   4.598 -0.4143  0.1393 -0.2374
  164TIP3    H1  498   1.715   4.687   4.521 -1.0192  0.8362  0.0514
  164TIP3    H2  499   1.709   4.697   4.672 -0.2157  1.5345  0.0440
  165TIP3   OH2  500   4.022   3.690   4.419 -0.3110  0.0773 -0.6223
  165TIP3    H1  501   3.959   3.651   4.479  0.1360 -1.0530 -0.8588
  165TIP3    H2  502   3.977   3.691   4.335 -0.9666  1.7332 -0.2943
  166TIP3   OH2  503   4.215   0.072   1.983 -0.4990 -0.3364  0.4034
  166TIP3    H1  504   4.186   0.149   2.033 -0.6084 -0.7747  1.0365
  166TIP3    H2  505   4.246   0.107   1.900  0.8779  0.5740  1.2582
  167TIP3   OH2  506   4.884   2.436   0.244  0.0200 -0.1866  0.7588
  167TIP3    H1  507   4.795   2.470   0.255 -0.3714 -0.1766 -1.9349
  167TIP3    H2  508   4.873   2.341   0.241 -0.1469 -0.1416 -1.0420
  168TIP3   OH2  509   4.424   2.195   3.701 -0.2623  0.1070 -0.0332
  168TIP3    H1  510   4.498   2.160   3.652 -0.5351 -0.9070  0.2549
  168TIP3    H2  511   4.368   2.236   3.634  0.0956  0.0527 -0.3699
  169TIP3   OH2  512   0.440   3.549   0.944  0.2544 -0.2854  0.1719
  169TIP3    H1  513   0.419   3.483   1.010 -0.8789 -0.7014 -0.5753
  169TIP3    H2  514   0.397   3.629   0.974 -0.0086 -0.3983  0.1020
  170TIP3   OH2  515   1.476   3.170   4.711 -0.4247  0.3345 -0.3261
  170TIP3    H1  516   1.537   3.185   4.783 -1.0249  0.8988  0.0791
  170TIP3    H2  517   1.437   3.085   4.730 -1.2037  0.8590  0.4873
  171TIP3   OH2  518   3.699   3.467   1.933  0.2242  0.1362  0.0542
  171TIP3    H1  519   3.692   3.400   2.001  1.0067 -0.2461 -0.2356
  171TIP3    H2  520   3.738   3.422   1.858 -1.2947  0.3738 -0.9178
  172TIP3   OH2  521   4.961   2.663   3.218 -0.6563 -0.2519  0.4358
  172TIP3    H1  522   4.961   2.588   3.159  1.0320  1.6772 -2.2235
  172TIP3    H2  523   4.871   2.668   3.250 -1.3289 -2.1461 -0.9631
  173TIP3   OH2  524   6.006   1.603   1.568  0.0698  0.4397 -0.0021
  173TIP3    H1  525   6.066   1.553   1.513 -1.5651 -1.2982 -0.3030
  173TIP3    H2  526   5.974   1.540   1.633 -1.7101  1.1873 -0.0886
  174TIP3   OH2  527   5.268   1.273   1.080 -0.3140 -0.0328  0.4174
  174TIP3    H1  528   5.237   1.228   1.158  0.2587  0.6637  1.0730
  174TIP3    H2  529   5.363   1.275   1.090 -0.2562  0.3262 -0.1442
  175TIP3   OH2  530   0.730   4.837   5.038 -0.0453  0.0536  0.2527
  175TIP3    H1  531   0.748   4.744   5.025  0.0996 -0.1538  1.7396
  175TIP3    H2  532   0.642   4.839   5.075 -0.1346  0.5200  0.0162
  176TIP3   OH2  533   5.719   5.245   2.081 -0.0105  0.0583 -0.4150
  176TIP3    H1  534   5.772   5.206   2.151 -0.1582  0.6192  0.0113
  176TIP3    H2  535   5.761   5.329   2.062 -0.2730  0.1418 -0.6440
  177TIP3   OH2  536   5.516   5.183   2.665  0.0467  0.4815 -0.1712
  177TIP3    H1  537   5.554   5.220   2.585  1.3829 -1.5650 -0.5727
  177TIP3    H2  538   5.588   5.134   2.705 -0.9061  0.5262  1.7136
  178TIP3   OH2  539   3.920   3.539   3.420 -0.3756  0.2728 -0.0246
  178TIP3    H1  540   3.836   3.582   3.437 -0.8426 -0.3073 -0.7856
  178TIP3    H2  541   3.932   3.480   3.494 -1.2326 -0.4949 -0.4587
  179TIP3   OH2  542   3.941   2.174   0.487 -0.6068 -0.3240 -0.0527
  179TIP3    H1  543   3.966   2.196   0.577  0.1186 -0.6570 -0.1610
  179TIP3    H2  544   3.981   2.088   0.472 -0.1545  0.0216 -0.9076
  180TIP3   OH2  545   4.462   0.026   0.631  0.6819  0.4540  0.3683
  180TIP3    H1  546   4.453   0.079   0.710 -1.9367  1.1182 -0.2786
  180TIP3    H2  547   4.519   0.077   0.574  1.0736  0.8495  1.1027
  181TIP3   OH2  548   2.248   4.124   1.189  0.1853 -0.0888 -0.2031
  181TIP3    H1  549   2.278   4.124   1.098 -1.4466 -0.8529 -0.7642
  181TIP3    H2  550   2.291   4.048   1.228  1.3767  0.5855 -0.1251
  182TIP3   OH2  551   4.983   3.524   1.622 -0.1701 -0.1539  0.3438
  182TIP3    H1  552   4.940   3.602   1.656 -0.3600 -0.3195  0.4849
  182TIP3    H2  553   4.921   3.453   1.640 -0.4175 -0.1952 -0.6216
  183TIP3   OH2  554   0.478   2.332   4.707  0.1858 -0.4107 -0.0358
  183TIP3    H1  555   0.528   2.393   4.653  1.3325 -1.5222 -0.2936
  183TIP3    H2  556   0.414   2.294   4.647 -1.2611  1.2671  0.3747
  184TIP3   OH2  557   6.258   3.541   3.886 -0.5244  0.8159  0.1189
  184TIP3    H1  558   6.242   3.567   3.795 -0.0413  1.5717  0.2405
  184TIP3    H2  559   6.170   3.529   3.923 -0.7486 -1.7236 -1.0316
  185TIP3   OH2  560   1.678   3.584   2.663 -0.0093 -0.4459 -0.1707
  185TIP3    H1  561   1.686   3.543   2.749  0.6189 -0.3544 -0.1749
  185TIP3    H2  562   1.590   3.620   2.661  0.0700 -0.1977  0.5463
  186TIP3   OH2  563   5.768   3.739   4.652  0.0792 -0.2582 -0.2995
  186TIP3    H1  564   5.754   3.745   4.558  0.7428 -0.7001 -0.4338
  186TIP3    H2  565   5.861   3.718   4.662  0.0323 -0.1518  0.4538
  187TIP3   OH2  566   1.469   4.224   2.901 -0.5388  0.1713 -0.1282
  187TIP3    H1  567   1.547   4.260   2.942 -1.4455  1.7779  0.2645
  187TIP3    H2  568   1.423   4.178   2.971  0.7294 -2.0852 -0.6770
  188TIP3   OH2  569   6.281   5.908   4.228  0.1746 -0.1275  0.2242
  188TIP3    H1  570   6.260   5.878   4.139 -0.0105 -1.7833  0.7978
  188TIP3    H2  571   6.236   5.846   4.285 -0.2884  1.3390  1.4903
  189TIP3   OH2  572   2.817   4.488   4.418 -0.0913  0.1448  0.1331
  189TIP3    H1  573   2.741   4.546   4.418 -0.1970  0.0104 -0.2039
  189TIP3    H2  574   2.783   4.404   4.451 -0.4006 -0.3020 -1.2752
  190TIP3   OH2  575   2.476   0.254   2.796  0.0821 -0.2905  0.3052
  190TIP3    H1  576   2.435   0.184   2.848 -2.0458  0.7939  0.1855
  190TIP3    H2  577   2.514   0.313   2.862 -1.4420  0.3790  0.6317
  191TIP3   OH2  578   2.035   5.045   4.663  0.2348  0.3679  0.1578
  191TIP3    H1  579   2.078   4.961   4.651  0.2294  0.0778  1.8499
  191TIP3    H2  580   1.945   5.024   4.685  0.4740  0.7342  1.6133
  192TIP3   OH2  581   0.817   0.167   2.913  0.3238 -0.6151 -0.4514
  192TIP3    H1  582   0.871   0.100   2.870 -0.2495 -1.7073  0.4741
  192TIP3    H2  583   0.730   0.156   2.873  0.4645  0.2662 -1.0151
  193TIP3   OH2  584   0.320   3.669   4.760 -0.2283  0.6070 -0.0512
  193TIP3    H1  585   0.298   3.597   4.818  1.7045  1.1908  1.4860
  193TIP3    H2  586   0.416   3.674   4.761 -0.0232  0.4351 -3.5920
  194TIP3   OH2  587   5.644   4.671   3.383 -0.1444  0.3123 -0.0505
  194TIP3    H1  588   5.562   4.620   3.385 -0.3650  0.5302 -1.6657
  194TIP3    H2  589   5.711   4.608   3.409 -0.6818 -0.2019  0.1339
  195TIP3   OH2  590   5.107   0.428   3.919  0.2235  0.0585 -0.0716
  195TIP3    H1  591   5.149   0.513   3.908  0.3619 -0.0245 -0.1753
  195TIP3    H2  592   5.030   0.447   3.973 -0.9671  0.6162 -1.8960
  196TIP3   OH2  593   1.043   3.070   0.930 -0.2162  0.4197  0.4277
  196TIP3    H1  594   0.974   3.039   0.989 -1.2678  0.9706 -0.4853
  196TIP3    H2  595   1.095   2.992   0.912 -0.2099  0.1207  1.6139
  197TIP3   OH2  596   5.799   5.450   4.564 -0.0050 -0.1284  0.2951
  197TIP3    H1  597   5.792   5.355   4.558  0.4486 -0.2564  1.4790
  197TIP3    H2  598   5.884   5.471   4.525 -0.9041  0.0185 -1.7076
  198TIP3   OH2  599   3.548   4.187   2.358 -0.3232 -0.4600  0.1377
  198TIP3    H1  600   3.528   4.265   2.307 -1.3236  0.0584  1.2637
  198TIP3    H2  601   3.491   4.119   2.322 -0.0519 -0.4620 -0.2982
  199TIP3   OH2  602   1.152   0.676   1.935 -0.2082  0.9663  0.4446
  199TIP3    H1  603   1.141   0.724   1.853  0.4201  0.5347  0.1011
  199TIP3    H2  604   1.243   0.647   1.935 -0.6277 -0.4795  0.4921
  200TIP3   OH2  605   6.222   5.090   2.059 -0.1220  0.2466  0.1895
  200TIP3    H1  606   6.135   5.051   2.071 -1.0428  2.0126 -0.4808
  200TIP3    H2  607   6.260   5.092   2.148 -0.0606 -2.0126  0.2655
  201TIP3   OH2  608   3.687   2.293   4.254  0.3396  0.7203  0.3931
  201TIP3    H1  609   3.673   2.362   4.189  1.1219  1.1226  0.6336
  201TIP3    H2  610   3.601   2.278   4.293  0.2108  1.7515  0.5297
  202TIP3   OH2  611   0.775   5.651   1.098 -0.4778  0.3384  0.2196
  202TIP3    H1  612   0.757   5.684   1.010  0.4478 -1.7432 -0.8259
  202TIP3    H2  613   0.715   5.577   1.108  0.5044 -0.4181  0.6890
  203TIP3   OH2  614   4.184   3.610   4.868  0.1191 -0.3147  0.9158
  203TIP3    H1  615   4.145   3.546   4.929  1.0830 -0.2269  1.6449
  203TIP3    H2  616   4.276   3.586   4.864  0.0874 -0.2832 -0.4965
  204TIP3   OH2  617   2.326   3.492   0.803  0.4797  1.0618 -0.2280
  204TIP3    H1  618   2.274   3.503   0.724  1.3434 -0.3680 -1.0509
  204TIP3    H2  619   2.413   3.524   0.779  0.4094  1.9205  0.6050
  205TIP3   OH2  620   1.421   5.689   1.874 -0.4053 -0.5582 -0.2501
  205TIP3    H1  621   1.484   5.760   1.864 -0.5145 -0.2130  1.2717
  205TIP3    H2  622   1.470   5.610   1.850  0.1075 -0.1225 -0.6674
  206TIP3   OH2  623   0.759   5.059   3.716 -0.6384 -0.1530 -0.3554
  206TIP3    H1  624   0.813   4.980   3.707 -0.1756  0.2032 -0.7815
  206TIP3    H2  625   0.673   5.032   3.684 -0.6569 -0.6614  0.1039
  207TIP3   OH2  626   0.124   1.078   1.463  0.2543 -0.1899 -0.5651
  207TIP3    H1  627   0.177   1.008   1.501  1.1236 -0.2826 -1.8608
  207TIP3    H2  628   0.044   1.035   1.433  0.3823 -0.4521 -0.5281
  208TIP3   OH2  629   3.727   5.822   2.196  0.0841  0.8876 -0.3711
  208TIP3    H1  630   3.677   5.747   2.227  1.1486 -0.3527 -1.4968
  208TIP3    H2  631   3.808   5.819   2.248 -0.8351  2.7633  1.3089
  209TIP3   OH2  632   4.791   3.271   3.926  0.6080 -0.6298  0.5049
  209TIP3    H1  633   4.811   3.363   3.910  0.5629 -0.5853  0.7041
  209TIP3    H2  634   4.733   3.272   4.003  1.5507 -0.9082  1.2379
  210TIP3   OH2  635   4.657   4.412   2.004 -0.6977  0.0642  0.5289
  210TIP3    H1  636   4.593   4.465   2.051 -0.4725  1.1808 -0.3927
  210TIP3    H2  637   4.719   4.475   1.968 -0.6968 -0.7802 -1.0357
  211TIP3   OH2  638   4.841   5.736   0.182 -0.5008 -0.6686 -0.1988
  211TIP3    H1  639   4.826   5.828   0.204 -0.8239 -1.0475  1.2663
  211TIP3    H2  640   4.885   5.738   0.097  0.6352  0.8917  0.3936
  212TIP3   OH2  641   1.347   4.588   2.804  0.3719 -0.3596  0.3642
  212TIP3    H1  642   1.334   4.660   2.742 -0.8787  0.0792  1.0937
  212TIP3    H2  643   1.363   4.512   2.749 -1.1817 -0.0763 -0.5422
  213TIP3   OH2  644   1.545   3.057   0.083  0.2596  0.1443 -0.0797
  213TIP3    H1  645   1.608   3.030   0.016  0.3077 -1.2574  0.4953
  213TIP3    H2  646   1.588   3.036   0.166  0.1338  1.6988  0.4116
  214TIP3   OH2  647   5.390   2.822   3.522  0.0692  0.3986 -0.3272
  214TIP3    H1  648   5.406   2.855   3.610  0.1052 -0.9188  0.1742
  214TIP3    H2  649   5.297   2.837   3.507 -0.3864 -1.1769  0.7285
  215TIP3   OH2  650   5.035   4.234   5.157 -0.1049 -0.0027 -0.4927
  215TIP3    H1  651   5.037   4.144   5.125  0.6868  0.0189 -0.5158
  215TIP3    H2  652   4.989   4.229   5.241  0.1775 -0.4627 -0.3663
  216TIP3   OH2  653   2.684   3.688   0.421 -0.7947 -0.2027 -0.4294
  216TIP3    H1  654   2.612   3.715   0.364 -1.5724 -1.1819  0.0595
  216TIP3    H2  655   2.675   3.744   0.499  0.0055  0.8327 -1.0563
  217TIP3   OH2  656   4.467   0.938   2.445 -0.0424 -0.2226  0.4692
  217TIP3    H1  657   4.465   0.991   2.524  0.4250  0.0207  0.3179
  217TIP3    H2  658   4.463   1.002   2.373  1.6137 -0.3153  0.2649
  218TIP3   OH2  659   0.164   0.731   4.165  0.1774  0.3803  0.2440
  218TIP3    H1  660   0.237   0.765   4.216 -1.0105  2.4774  0.6407
  218TIP3    H2  661   0.135   0.653   4.214  0.8634  0.6990  1.1754
  219TIP3   OH2  662   4.214   3.305   2.158 -0.2975 -0.2534  0.5706
  219TIP3    H1  663   4.206   3.387   2.207 -0.9171  0.5551 -0.8220
  219TIP3    H2  664   4.191   3.329   2.068 -1.9083 -2.2494  0.3941
  220TIP3   OH2  665   4.188   1.549   0.923  0.3114  0.0476  0.4053
  220TIP3    H1  666   4.145   1.511   0.847 -1.7179  1.3478  0.8215
  220TIP3    H2  667   4.173   1.485   0.993  0.6320 -0.3227  0.1426
  221TIP3   OH2  668   2.103   4.512   2.428 -0.4122  0.4356  0.2035
  221TIP3    H1  669   2.188   4.515   2.471  0.0632  0.0543 -0.6804
  221TIP3    H2  670   2.068   4.426   2.451 -0.0620  0.1438 -0.3380
  222TIP3   OH2  671   1.426   4.603   4.166 -0.2750  0.4750 -0.9277
  222TIP3    H1  672   1.377   4.557   4.098 -0.7500  0.0145 -0.2904
  222TIP3    H2  673   1.358   4.648   4.218 -0.4904 -2.7897  1.9849
  223TIP3   OH2  674   4.363   1.063   0.439  0.0680  0.2734 -0.1523
  223TIP3    H1  675   4.371   0.984   0.386 -1.3670 -1.2973  1.8262
  223TIP3    H2  676   4.445   1.068   0.487  0.5897  0.6040 -1.0658
  224TIP3   OH2  677   6.248   0.418   1.063 -0.5406  0.2439  0.5452
  224TIP3    H1  678   6.202   0.470   0.997 -1.8171 -0.7076  0.6433
  224TIP3    H2  679   6.182   0.400   1.129 -0.1059 -1.3968  0.5661
  225TIP3   OH2  680   4.682   5.131   4.330 -0.3881  0.1133 -0.3632
  225TIP3    H1  681   4.692   5.085   4.246 -0.8550 -1.6400  0.4981
  225TIP3    H2  682   4.768   5.169   4.346  0.6660 -2.1185 -0.2269
  226TIP3   OH2  683   5.475   4.612   2.712  0.0487 -0.0286  0.6525
  226TIP3    H1  684   5.392   4.573   2.685 -0.2450 -0.0930  1.6466
  226TIP3    H2  685   5.530   4.538   2.735  0.7563 -0.0561 -0.9857
  227TIP3   OH2  686   4.398   0.413   4.913 -0.7409 -0.3463  0.1493
  227TIP3    H1  687   4.415   0.424   4.819 -1.7786 -1.5782 -0.2167
  227TIP3    H2  688   4.417   0.320   4.930  1.3080  0.2781  1.6080
  228TIP3   OH2  689   6.274   4.022   3.014  0.4703  0.4931  0.1398
  228TIP3    H1  690   6.312   3.963   2.949 -1.9455  0.1290 -1.0532
  228TIP3    H2  691   6.326   4.102   3.007  3.7970 -1.3194  1.7567
  229TIP3   OH2  692   4.835   2.657   2.771  0.2400 -0.1682  0.1844
  229TIP3    H1  693   4.764   2.668   2.834  0.2378  1.7133 -0.0902
  229TIP3    H2  694   4.805   2.705   2.693  1.2015 -0.5663 -0.4472
  230TIP3   OH2  695   4.248   0.061   2.746  0.8667  0.0046  0.1664
  230TIP3    H1  696   4.214   0.035   2.660  0.3212 -1.5083  0.8129
  230TIP3    H2  697   4.343   0.059   2.735  0.8043  0.2697 -0.5083
  231TIP3   OH2  698   0.105   2.978   0.298 -0.4481 -0.1614  0.2312
  231TIP3    H1  699   0.164   3.045   0.264 -2.5360  0.9880 -1.4292
  231TIP3    H2  700   0.030   3.028   0.331 -2.1586 -1.6272 -1.2206
  232TIP3   OH2  701   0.183   0.269   4.449  0.0324  0.8009  0.4402
  232TIP3    H1  702   0.217   0.264   4.359 -0.9704  0.7151  0.0602
  232TIP3    H2  703   0.100   0.222   4.446  0.8703 -0.8671  1.8714
  233TIP3   OH2  704   1.474   0.237   0.673 -0.1704  0.7306 -0.3714
  233TIP3    H1  705   1.543   0.180   0.707  0.6793  1.3771 -0.9866
  233TIP3    H2  706   1.478   0.315   0.728 -1.3451  0.2307  0.4785
  234TIP3   OH2  707   0.241   2.461   0.393  0.2659 -0.6049 -0.2242
  234TIP3    H1  708   0.169   2.490   0.450 -1.6383 -2.5529 -1.5094
  234TIP3    H2  709   0.242   2.526   0.323  1.6364  0.9533  1.1371
  235TIP3   OH2  710   0.613   5.978   0.010 -0.4446  0.5985 -0.3132
  235TIP3    H1  711   0.705   5.955  -0.005 -0.6604  0.4853 -1.6077
  235TIP3    H2  712   0.589   5.929   0.089  0.4160  0.0846 -0.3521
  236TIP3   OH2  713   4.177   0.625   2.889 -0.0659  0.5916  0.1871
  236TIP3    H1  714   4.112   0.693   2.906  0.3226  0.7804  0.9358
  236TIP3    H2  715   4.152   0.553   2.946  0.0910  0.4814  0.1168
  237TIP3   OH2  716   2.278   2.220   1.798  0.1442  0.2815 -0.1535
  237TIP3    H1  717   2.244   2.141   1.839  0.2670  0.2237 -0.1640
  237TIP3    H2  718   2.200   2.271   1.775  0.0756  0.4382  0.4059
  238TIP3   OH2  719   0.780   2.701   3.736  0.1758 -0.4459 -0.1108
  238TIP3    H1  720   0.704   2.647   3.758  0.1445 -0.8087 -1.0494
  238TIP3    H2  721   0.779   2.706   3.640  1.2892 -0.3934 -0.1335
  239TIP3   OH2  722   5.871   0.616   2.821 -0.6624  0.0697 -0.4302
  239TIP3    H1  723   5.875   0.712   2.817  0.0173  0.0097 -2.3560
  239TIP3    H2  724   5.780   0.596   2.799 -0.4862  0.2668 -1.4135
  240TIP3   OH2  725   3.385   5.421   1.698 -0.1208  0.0991  0.3908
  240TIP3    H1  726   3.371   5.379   1.613 -0.3256  0.5817  0.1830
  240TIP3    H2  727   3.378   5.515   1.680  0.7966  0.2537  0.7640
  241TIP3   OH2  728   2.168   1.297   4.423  0.2092 -0.0289 -0.2984
  241TIP3    H1  729   2.092   1.353   4.440 -0.1616 -0.9310  1.1665
  241TIP3    H2  730   2.233   1.356   4.384 -1.5090  0.5698 -2.4423
  242TIP3   OH2  731   5.514   3.443   1.568 -0.0830  0.0334 -0.0094
  242TIP3    H1  732   5.476   3.363   1.603  0.7122  0.4711  1.9600
  242TIP3    H2  733   5.438   3.495   1.540 -0.6165 -1.2782 -1.1492
  243TIP3   OH2  734   2.298   3.890   0.952  0.1767  0.2371 -0.5741
  243TIP3    H1  735   2.231   3.824   0.937  2.2157 -1.4309 -3.4713
  243TIP3    H2  736   2.328   3.875   1.042 -1.0471 -1.1361 -0.3617
  244TIP3   OH2  737   1.546   0.650   4.394  0.3470 -0.4376  0.0360
  244TIP3    H1  738   1.607   0.623   4.463  0.9703  0.6192 -0.0852
  244TIP3    H2  739   1.537   0.572   4.339 -0.1610 -1.2982  1.2897
  245TIP3   OH2  740   4.027   4.037   3.305  0.2530  0.3887  0.0188
  245TIP3    H1  741   3.998   4.114   3.257  0.7888  0.4161 -0.2663
  245TIP3    H2  742   4.088   4.071   3.371 -1.9757  0.6321  2.1204
  246TIP3   OH2  743   2.547   5.112   1.342  0.1057 -0.0390  0.0211
  246TIP3    H1  744   2.466   5.092   1.297  0.0814 -0.4266  0.2290
  246TIP3    H2  745   2.593   5.028   1.348  0.7497  0.2623 -0.5382
  247TIP3   OH2  746   2.867   3.243   3.675 -0.1196  0.5308 -0.1684
  247TIP3    H1  747   2.846   3.245   3.582 -0.6787  0.9359 -0.0406
  247TIP3    H2  748   2.907   3.328   3.692 -0.9650  0.8723  0.1682
  248TIP3   OH2  749   5.769   5.138   0.095  0.0127 -0.3511  0.0103
  248TIP3    H1  750   5.811   5.196   0.158  1.2504 -2.1711  0.9503
  248TIP3    H2  751   5.723   5.074   0.149 -1.6555 -0.0648 -0.9984
  249TIP3   OH2  752   3.129   2.098   4.710  0.2515  0.5164 -0.7535
  249TIP3    H1  753   3.188   2.029   4.740 -1.3247 -0.4725  0.2225
  249TIP3    H2  754   3.103   2.144   4.790  0.9250  1.9612 -1.3480
  250TIP3   OH2  755   4.008   0.252   3.750  0.1075  0.4059  0.4370
  250TIP3    H1  756   4.102   0.254   3.732 -0.2122  0.1116 -1.3950
  250TIP3    H2  757   4.000   0.199   3.830  1.5105  0.7958  0.8667
  251TIP3   OH2  758   2.797   5.807   3.326  0.4383 -0.2699  0.0886
  251TIP3    H1  759   2.805   5.818   3.421  0.2823  1.7448 -0.0788
  251TIP3    H2  760   2.874   5.757   3.301  1.9622  1.5039  0.9801
  252TIP3   OH2  761   3.697   3.679   3.199  0.6296 -0.5441 -0.2116
  252TIP3    H1  762   3.708   3.730   3.279  1.6481 -0.4574 -0.4017
  252TIP3    H2  763   3.743   3.728   3.131  0.5615 -1.0838 -0.6614
  253TIP3   OH2  764   4.977   5.656   2.067  0.1260 -0.0617  0.2161
  253TIP3    H1  765   4.884   5.647   2.044  0.3795 -0.0931 -0.8641
  253TIP3    H2  766   4.978   5.724   2.134 -0.7864 -0.8831  1.1130
  254TIP3   OH2  767   5.918   4.145   4.320 -0.4398  0.3621 -0.7085
  254TIP3    H1  768   5.943   4.231   4.354 -2.4204  0.6165  0.2140
  254TIP3    H2  769   5.993   4.118   4.267  0.5384  2.3166 -0.4157
  255TIP3   OH2  770   4.929   4.316   1.777 -0.1774 -0.5265 -0.1101
  255TIP3    H1  771   4.947   4.389   1.836  1.1888 -0.5968 -0.4104
  255TIP3    H2  772   4.846   4.339   1.735 -1.0468 -0.3412  1.5970
  256TIP3   OH2  773   3.827   1.078   0.130  0.4173  0.5511 -0.2097
  256TIP3    H1  774   3.748   1.031   0.103  0.0039 -0.2245  2.1594
  256TIP3    H2  775   3.876   1.090   0.048 -0.4658 -2.1178 -1.2445
  257TIP3   OH2  776   4.986   5.401   2.279  0.4045 -0.5397 -0.3645
  257TIP3    H1  777   4.954   5.318   2.314 -1.6547 -0.8994 -2.7765
  257TIP3    H2  778   4.923   5.466   2.309  1.3505 -0.0149  0.5381
  258TIP3   OH2  779   1.198   5.865   3.504  0.3913  0.7723  0.3921
  258TIP3    H1  780   1.275   5.847   3.452 -1.2234  0.1480 -1.9150
  258TIP3    H2  781   1.191   5.961   3.506  0.0147  0.8047 -1.3372
  259TIP3   OH2  782   4.819   4.627   0.344 -0.5680 -0.0380  0.3479
  259TIP3    H1  783   4.796   4.543   0.384  1.5445 -0.9646 -0.2527
  259TIP3    H2  784   4.760   4.635   0.269 -0.2782 -1.3979 -0.0496
  260TIP3   OH2  785   1.413   5.014   2.467  0.4276  0.4268 -0.0204
  260TIP3    H1  786   1.423   4.988   2.559 -0.9887  1.6728  0.5157
  260TIP3    H2  787   1.500   5.047   2.442  0.4189  1.6165  1.3845
  261TIP3   OH2  788   5.785   3.468   5.029 -0.2105 -0.2108 -0.1710
  261TIP3    H1  789   5.712   3.528   5.041  0.4016  0.3114  1.1245
  261TIP3    H2  790   5.808   3.476   4.936  0.7647  2.6712  0.2147
  262TIP3   OH2  791   5.676   5.478   0.300 -0.1617  0.0028  0.2314
  262TIP3    H1  792   5.601   5.538   0.302 -0.4976 -0.4311  0.7669
  262TIP3    H2  793   5.720   5.498   0.217 -0.4954  0.7130  0.2142
  263TIP3   OH2  794   4.718   3.730   2.465  0.1943  0.8889  0.0574
  263TIP3    H1  795   4.675   3.816   2.466 -0.5695  0.5135  0.5791
  263TIP3    H2  796   4.714   3.700   2.556 -1.8223 -0.7818 -0.5022
  264TIP3   OH2  797   0.638   4.884   1.080 -0.4132 -0.4710  0.3716
  264TIP3    H1  798   0.629   4.958   1.140  0.7424  0.0879 -0.1132
  264TIP3    H2  799   0.613   4.920   0.995 -1.6995 -1.1627  0.4431
  265TIP3   OH2  800   0.113   3.548   0.864  0.1218 -0.4379 -0.7533
  265TIP3    H1  801   0.091   3.568   0.955 -1.4744  1.0417 -1.4151
  265TIP3    H2  802   0.051   3.479   0.839 -0.2610  0.0106 -1.0608
  266TIP3   OH2  803   6.013   0.002   2.048  0.0429  0.2465 -0.2159
  266TIP3    H1  804   5.946  -0.061   2.075  1.2795 -0.4821  1.2906
  266TIP3    H2  805   5.998   0.078   2.104 -0.6341  0.8135 -1.1387
  267TIP3   OH2  806   0.958   0.079   1.157  0.6722 -0.0514 -0.4783
  267TIP3    H1  807   1.016   0.151   1.183  0.1128  0.4913 -0.7130
  267TIP3    H2  808   1.003   0.000   1.186  1.9222  0.3089 -1.3675
  268TIP3   OH2  809   1.809   5.225   0.878 -0.4171  0.1069 -0.8665
  268TIP3    H1  810   1.764   5.240   0.795  0.4224 -1.5615 -1.6709
  268TIP3    H2  811   1.902   5.229   0.856 -0.1394  1.4923  0.3877
  269TIP3   OH2  812   3.633   2.993   0.659  0.1451 -0.2054  1.2029
  269TIP3    H1  813   3.681   2.919   0.623 -0.3139  0.2816 -0.5061
  269TIP3    H2  814   3.541   2.965   0.659 -0.3142  1.0296 -1.4443
  270TIP3   OH2  815   3.945   5.512   1.485 -0.4288  0.1773 -0.3358
  270TIP3    H1  816   3.859   5.553   1.493 -0.7525 -0.3730 -0.9168
  270TIP3    H2  817   4.007   5.586   1.482 -0.6383  0.5761  2.2773
  271TIP3   OH2  818   3.768   5.146   0.427  0.1596  0.3689  0.0413
  271TIP3    H1  819   3.740   5.236   0.412  0.7654  0.5014 -0.3606
  271TIP3    H2  820   3.840   5.153   0.490 -0.6051  0.0436  0.9930
  272TIP3   OH2  821   4.652   3.105   0.543 -0.0354  0.3263  0.6248
  272TIP3    H1  822   4.565   3.112   0.582  0.2166 -0.9877  1.5138
  272TIP3    H2  823   4.695   3.187   0.565 -1.7466  2.0237 -1.8057
  273TIP3   OH2  824   2.906   5.557   3.634 -0.4885 -0.2685  1.1769
  273TIP3    H1  825   2.981   5.522   3.587  0.5835  0.3249  2.3738
  273TIP3    H2  826   2.834   5.499   3.611 -0.3421  0.6739 -2.0851
  274TIP3   OH2  827   6.249   5.542   0.056 -0.4800  0.4699  0.6865
  274TIP3    H1  828   6.188   5.532   0.129 -0.5043  1.5965  0.8311
  274TIP3    H2  829   6.316   5.476   0.073 -1.7417 -0.9467  0.4015
  275TIP3   OH2  830   2.707   4.902   0.091 -0.3153 -0.0420 -0.1965
  275TIP3    H1  831   2.802   4.896   0.082 -0.3073  0.0873 -0.1974
  275TIP3    H2  832   2.682   4.974   0.033 -0.6529 -1.4427 -1.8676
  276TIP3   OH2  833   0.653   5.235   4.339  0.8017  0.0836 -0.3959
  276TIP3    H1  834   0.660   5.151   4.293  1.3607  0.6487 -1.3766
  276TIP3    H2  835   0.655   5.301   4.269 -0.0444  0.9037  0.3269
  277TIP3   OH2  836   1.691   4.592   3.398  0.0440  0.2694  0.5665
  277TIP3    H1  837   1.613   4.637   3.366 -0.8096 -0.6708  1.2749
  277TIP3    H2  838   1.751   4.663   3.422 -1.1888  1.0604  1.4389
  278TIP3   OH2  839   0.845   3.504   2.176 -0.2383 -0.4527 -0.0653
  278TIP3    H1  840   0.768   3.491   2.232 -0.2424  0.2715  0.1061
  278TIP3    H2  841   0.869   3.596   2.189  0.2054 -0.4732 -0.6913
  279TIP3   OH2  842   2.414   4.252   0.399  0.2469 -0.0349  0.2069
  279TIP3    H1  843   2.429   4.305   0.321 -0.4177 -1.0998 -0.6679
  279TIP3    H2  844   2.445   4.307   0.471 -1.6344  2.0967 -0.5062
  280TIP3   OH2  845   4.200   4.271   0.588 -0.4536  0.2301  0.3616
  280TIP3    H1  846   4.166   4.343   0.534  0.6716  0.2867 -0.3082
  280TIP3    H2  847   4.176   4.192   0.541  1.3726  0.3026 -0.8173
  281TIP3   OH2  848   1.675   3.907   1.515 -0.0751 -0.2147  0.1618
  281TIP3    H1  849   1.664   3.936   1.605 -1.4928  1.1079 -0.3857
  281TIP3    H2  850   1.737   3.968   1.476 -0.8859  0.3963 -0.2232
  282TIP3   OH2  851   0.295   0.503   0.908  0.0149  0.4172  0.4161
  282TIP3    H1  852   0.254   0.435   0.855  2.2685 -0.9499  0.2680
  282TIP3    H2  853   0.286   0.583   0.857 -0.7877 -0.1996 -0.4332
  283TIP3   OH2  854   4.786   1.969   0.856 -0.1359 -0.3077  0.3887
  283TIP3    H1  855   4.768   1.950   0.764 -0.9408  1.7512  0.0552
  283TIP3    H2  856   4.699   1.976   0.896  0.0895  1.4543  0.6667
  284TIP3   OH2  857   6.001   4.381   4.465  0.5210  0.3216  0.2428
  284TIP3    H1  858   6.031   4.326   4.537  0.9451  1.6173  1.0971
  284TIP3    H2  859   6.063   4.454   4.464  0.2109  0.5831 -1.1070
  285TIP3   OH2  860   5.116   2.321   5.109 -0.1975 -0.3400  0.1208
  285TIP3    H1  861   5.171   2.267   5.052 -1.7111  1.0334 -2.8480
  285TIP3    H2  862   5.029   2.317   5.069 -0.7131  3.0274  0.6329
  286TIP3   OH2  863   3.840   1.507   3.770 -0.8396 -0.0309 -0.0934
  286TIP3    H1  864   3.777   1.580   3.770  1.0544  1.7003  0.8007
  286TIP3    H2  865   3.837   1.474   3.680  0.7679  3.5686 -1.6727
  287TIP3   OH2  866   2.141   1.067   0.036  0.2625  0.7474  0.0061
  287TIP3    H1  867   2.202   1.076   0.109  0.2605  3.0135 -0.1864
  287TIP3    H2  868   2.196   1.044  -0.039  0.4414 -0.2316  0.4213
  288TIP3   OH2  869   6.021   0.247   3.811  0.2831 -0.3285 -0.2449
  288TIP3    H1  870   6.008   0.153   3.795  0.8063 -0.5137  0.3838
  288TIP3    H2  871   6.008   0.287   3.725  0.5150 -1.0278 -0.6207
  289TIP3   OH2  872   1.509   4.434   3.563 -0.0522 -0.4011  0.1602
  289TIP3    H1  873   1.479   4.525   3.571  0.2260 -0.1879 -1.0929
  289TIP3    H2  874   1.460   4.399   3.489  1.3914 -0.6276 -0.7120
  290TIP3   OH2  875   1.470   1.319   3.335 -0.0522 -0.5096  1.0203
  290TIP3    H1  876   1.423   1.314   3.251 -1.0799  0.9753  1.4492
  290TIP3    H2  877   1.539   1.253   3.329 -0.4404 -0.7950 -0.7793
  291TIP3   OH2  878   5.452   5.432   4.396 -0.1773  0.5427  0.4273
  291TIP3    H1  879   5.528   5.462   4.347 -0.3871  0.6178  0.1421
  291TIP3    H2  880   5.480   5.350   4.437 -0.2238  0.0965 -0.4131
  292TIP3   OH2  881   0.030   2.011   3.991 -0.2612  0.3030 -0.2826
  292TIP3    H1  882  -0.024   2.001   4.070 -0.5772  1.0735 -0.3994
  292TIP3    H2  883   0.004   1.937   3.936  0.3713 -0.5711  0.5660
  293TIP3   OH2  884   1.786   3.351   1.571  0.4160 -0.0265 -0.0065
  293TIP3    H1  885   1.759   3.315   1.656  2.1068 -2.8857 -0.5815
  293TIP3    H2  886   1.731   3.305   1.507  2.3345 -1.4262 -0.7278
  294TIP3   OH2  887   1.552   3.256   1.424  0.4412 -0.1470 -0.1128
  294TIP3    H1  888   1.511   3.310   1.357 -0.4073  1.4152  1.5801
  294TIP3    H2  889   1.481   3.235   1.484  1.7158  1.1228  1.9384
  295TIP3   OH2  890   3.367   2.651   1.464  0.1647 -0.1548 -0.0940
  295TIP3    H1  891   3.386   2.684   1.376  0.0891  1.1816  0.3759
  295TIP3    H2  892   3.273   2.662   1.475  0.2368  0.0735  0.3127
  296TIP3   OH2  893   1.586   5.907   1.798 -0.1573  0.2300 -0.0451
  296TIP3    H1  894   1.523   5.976   1.776 -0.5150 -0.2418 -0.5065
  296TIP3    H2  895   1.639   5.896   1.719 -0.7797 -0.7519 -0.3365
  297TIP3   OH2  896   5.896   2.001   3.982  0.0010 -0.1397  0.4873
  297TIP3    H1  897   5.842   2.016   3.904 -1.2195 -0.3320  1.2780
  297TIP3    H2  898   5.944   1.921   3.963  2.3713  1.5879 -1.4848
  298TIP3   OH2  899   1.251   5.239   3.826  0.7161 -0.0992 -0.1457
  298TIP3    H1  900   1.292   5.223   3.911 -1.7269 -1.6992  0.8350
  298TIP3    H2  901   1.160   5.212   3.837  0.3972 -0.8688 -3.4079
  299TIP3   OH2  902   0.706   4.085   1.048  0.8278  0.0041  0.5838
  299TIP3    H1  903   0.661   4.118   0.970 -0.0093 -1.5739  0.3789
  299TIP3    H2  904   0.797   4.114   1.037  0.8225 -0.5720 -1.2089
  300TIP3   OH2  905   2.687   2.639   4.500 -0.9973 -0.3486  0.4020
  300TIP3    H1  906   2.691   2.707   4.568  2.8145 -0.5946  0.6606
  300TIP3    H2  907   2.664   2.686   4.420 -1.4634  0.6951  1.1260
  301TIP3   OH2  908   2.360   5.463   3.053  0.0155 -0.2915 -0.0794
  301TIP3    H1  909   2.423   5.398   3.085 -0.9234 -0.6141  1.2295
  301TIP3    H2  910   2.286   5.455   3.113 -0.5896  1.2123 -0.5822
  302TIP3   OH2  911   2.387   1.544   1.873  0.0356  0.2356 -0.0268
  302TIP3    H1  912   2.395   1.475   1.938 -1.6023 -1.0810 -1.1316
  302TIP3    H2  913   2.376   1.498   1.790  1.1814  1.8614 -1.1545
  303TIP3   OH2  914   3.981   3.458   4.623 -0.3253 -0.1299  0.1181
  303TIP3    H1  915   3.907   3.514   4.598 -0.1001  0.1019 -0.0343
  303TIP3    H2  916   4.019   3.502   4.699  2.3658  2.2264 -2.3827
  304TIP3   OH2  917   1.028   5.184   0.982 -0.3280 -0.2786 -0.2953
  304TIP3    H1  918   1.108   5.138   1.007 -0.0343  1.3054  1.9763
  304TIP3    H2  919   1.058   5.267   0.944 -0.7839  0.8497  1.6274
  305TIP3   OH2  920   0.110   5.278   2.902 -0.0260 -0.1025 -0.4704
  305TIP3    H1  921   0.039   5.251   2.960  1.0905 -1.4984  0.3300
  305TIP3    H2  922   0.100   5.223   2.824 -0.0170 -0.0451 -0.5128
  306TIP3   OH2  923   4.331   4.186   2.112  0.0843  0.0724  0.2453
  306TIP3    H1  924   4.297   4.187   2.023  0.3639 -0.0111  0.1371
  306TIP3    H2  925   4.375   4.101   2.121  1.8175  0.8649 -0.2125
  307TIP3   OH2  926   4.449   5.765   4.723  0.2863 -0.5302 -0.3745
  307TIP3    H1  927   4.541   5.776   4.698  0.2327 -1.9552 -1.3231
  307TIP3    H2  928   4.400   5.791   4.645 -0.0466 -1.1288 -0.3731
  308TIP3   OH2  929   5.945   2.565   1.623 -0.6702 -0.5263  0.3248
  308TIP3    H1  930   6.010   2.508   1.581 -0.8846  0.6962 -1.8430
  308TIP3    H2  931   5.990   2.600   1.699  0.7956 -0.6698 -0.4261
  309TIP3   OH2  932   3.580   0.868   2.974 -0.1978 -0.3072 -0.1405
  309TIP3    H1  933   3.664   0.880   3.018 -0.2029 -3.0305  0.7410
  309TIP3    H2  934   3.516   0.910   3.032 -0.0372 -2.7121  1.9442
  310TIP3   OH2  935   5.412   4.958   1.322 -0.3933  0.4814 -0.3166
  310TIP3    H1  936   5.505   4.964   1.347 -0.3049  1.0670 -0.7701
  310TIP3    H2  937   5.413   4.917   1.236 -0.7094 -1.6508  0.6414
  311TIP3   OH2  938   5.535   4.001   3.213 -0.1560  0.0953 -0.1694
  311TIP3    H1  939   5.532   3.925   3.272  0.3896 -0.2362 -0.5549
  311TIP3    H2  940   5.513   4.076   3.269 -1.5445 -0.4319  0.0401
  312TIP3   OH2  941   3.329   3.426   0.468 -0.1849  0.5403  0.0554
  312TIP3    H1  942   3.407   3.450   0.517 -0.4879  1.9449 -0.1116
  312TIP3    H2  943   3.256   3.456   0.522 -0.6837 -1.6157  0.6701
  313TIP3   OH2  944   0.670   1.109   2.547  0.2743 -0.1902  0.7224
  313TIP3    H1  945   0.682   1.125   2.641 -0.9891  0.8060  0.7429
  313TIP3    H2  946   0.588   1.059   2.542 -0.3434  0.8359  0.1040
  314TIP3   OH2  947   5.540   3.909   4.760 -0.1845  0.2504 -0.6668
  314TIP3    H1  948   5.603   3.967   4.717 -0.0250  0.0163 -0.7547
  314TIP3    H2  949   5.595   3.846   4.808 -0.3582  0.3842 -0.2888
  315TIP3   OH2  950   0.307   5.129   4.406 -0.0148 -0.1690 -0.2545
  315TIP3    H1  951   0.302   5.101   4.315 -1.5169 -1.8380  0.2791
  315TIP3    H2  952   0.359   5.209   4.404  0.1855 -0.3005 -2.5335
  316TIP3   OH2  953   2.712   1.279   3.858  0.6056 -0.2130  0.3295
  316TIP3    H1  954   2.756   1.270   3.942  1.2780 -2.5432 -0.1938
  316TIP3    H2  955   2.625   1.243   3.872  0.0817  1.0556  0.4489
  317TIP3   OH2  956   0.930   1.560   4.387 -0.3026 -0.6053  0.1131
  317TIP3    H1  957   0.909   1.645   4.349 -0.7457 -0.7908 -0.0719
  317TIP3    H2  958   0.893   1.564   4.476  0.0654 -0.4455  0.2592
  318TIP3   OH2  959   1.528   0.379   0.910 -0.5109 -0.2088  0.1876
  318TIP3    H1  960   1.504   0.292   0.941  0.1623 -0.7544 -0.7692
  318TIP3    H2  961   1.545   0.429   0.989  0.7085 -1.4263  0.7362
  319TIP3   OH2  962   3.124   3.429   1.044 -0.7113 -0.0617 -0.6128
  319TIP3    H1  963   3.101   3.341   1.014 -0.4516 -0.4878  0.4003
  319TIP3    H2  964   3.131   3.481   0.963 -1.7221 -0.7537 -1.1688
  320TIP3   OH2  965   0.351   0.360   3.174 -0.2908  0.5703 -0.3400
  320TIP3    H1  966   0.404   0.368   3.253  1.8502 -0.1500 -1.6151
  320TIP3    H2  967   0.413   0.369   3.102 -1.9896  0.1050 -1.9563
  321TIP3   OH2  968   4.494   2.988   4.854  0.2085  0.4271 -0.1584
  321TIP3    H1  969   4.432   3.059   4.838 -0.8656 -0.2340  0.9461
  321TIP3    H2  970   4.561   3.026   4.910 -0.6516  0.4357  0.8787
  322TIP3   OH2  971   4.723   1.233   1.209  0.3974  0.5749 -0.3122
  322TIP3    H1  972   4.764   1.317   1.189  0.3164  1.0052  1.2302
  322TIP3    H2  973   4.787   1.168   1.182  0.3677  1.0969 -1.7347
  323TIP3   OH2  974   5.720   3.616   3.272 -0.2427 -0.2187  0.0411
  323TIP3    H1  975   5.712   3.562   3.351  2.9035  0.5205  0.9923
  323TIP3    H2  976   5.756   3.558   3.206  0.3465 -0.0181  0.1821
  324TIP3   OH2  977   5.685   2.556   3.192  0.1761  0.5119  0.3398
  324TIP3    H1  978   5.682   2.652   3.194 -1.6137  0.4914  1.3830
  324TIP3    H2  979   5.748   2.532   3.260 -0.4696  0.9618  1.1183
  325TIP3   OH2  980   2.887   3.962   4.937  0.0662  0.2172  0.4557
  325TIP3    H1  981   2.891   3.883   4.990 -0.6337  0.3170  0.6721
  325TIP3    H2  982   2.913   4.033   4.996  0.7150  0.1511  0.2559
  326TIP3   OH2  983   5.910   3.917   3.218  0.0815  1.0360 -0.0472
  326TIP3    H1  984   5.886   3.871   3.298 -2.6992 -0.5882 -1.6778
  326TIP3    H2  985   5.867   4.003   3.227  0.3523  1.1265  0.4590
  327TIP3   OH2  986   5.881   3.854   1.439  0.3482 -0.2075 -0.0857
  327TIP3    H1  987   5.917   3.917   1.377 -0.0844  0.6265  0.5033
  327TIP3    H2  988   5.939   3.778   1.432  1.5344  0.6555 -0.0103
  328TIP3   OH2  989   0.648   0.684   4.144  0.0058  0.1843  0.1895
  328TIP3    H1  990   0.716   0.621   4.119 -0.3093 -0.7841  1.6586
  328TIP3    H2  991   0.678   0.767   4.107  1.8006 -0.2902  0.4862
  329TIP3   OH2  992   1.427   5.017   5.069 -0.4605 -0.1556  0.0755
  329TIP3    H1  993   1.331   5.017   5.067 -0.4822 -0.3358  0.7772
  329TIP3    H2  994   1.448   5.034   5.161  0.1731 -1.7035  0.2412
  330TIP3   OH2  995   5.413   4.850   1.059 -0.3988  0.1039  0.4246
  330TIP3    H1  996   5.491   4.833   1.007  0.2861  3.1167  0.2918
  330TIP3    H2  997   5.341   4.850   0.996 -0.0864  0.1366  0.0640
  331TIP3   OH2  998   3.165   0.642   3.001  0.1924 -1.0571 -0.2681
  331TIP3    H1  999   3.209   0.727   2.999 -0.6979 -0.5611  0.2615
  331TIP3    H2 1000   3.235   0.578   3.007  0.8286 -0.2465  1.5320
  332TIP3   OH2 1001   4.796   1.351   2.183  0.0325  0.1552 -0.1615
  332TIP3    H1 1002   4.733   1.416   2.216 -0.0920 -0.4505  0.8275
  332TIP3    H2 1003   4.755   1.267   2.201 -0.5985 -0.2490 -3.0013
  333TIP3   OH2 1004   2.921   5.647   2.427  0.0679 -0.1663  0.3700
  333TIP3    H1 1005   2.829   5.623   2.434  0.1994 -1.2940 -1.2864
  333TIP3    H2 1006   2.940   5.641   2.334  1.6265  0.8389  0.5941
  334TIP3   OH2 1007   0.953   1.092   2.384  0.6325 -0.2862  0.8624
  334TIP3    H1 1008   1.039   1.063   2.352  0.4924  0.3050 -0.0870
  334TIP3    H2 1009   0.908   1.123   2.306 -0.5725 -0.8725  1.2952
  335TIP3   OH2 1010   3.374   2.625   1.990 -0.2180  0.2438  0.2446
  335TIP3    H1 1011   3.405   2.715   1.981 -0.2597  0.1456 -0.9767
  335TIP3    H2 1012   3.451   2.576   2.020  1.3094 -0.2134 -3.8213
  336TIP3   OH2 1013   3.885   2.040   2.576  0.7267 -0.4096  0.6895
  336TIP3    H1 1014   3.917   1.950   2.587  0.7265 -0.7666 -1.6063
  336TIP3    H2 1015   3.867   2.071   2.665  2.2889 -2.0946  1.6488
  337TIP3   OH2 1016   3.058   5.069   4.407 -0.7192 -0.0399  0.3435
  337TIP3    H1 1017   3.035   5.151   4.450 -1.7386  0.1163 -0.4531
  337TIP3    H2 1018   3.016   5.075   4.321 -0.0193 -0.9946 -0.0764
  338TIP3   OH2 1019   3.174   1.821   1.455 -0.4648 -0.0902 -0.0719
  338TIP3    H1 1020   3.266   1.839   1.436 -0.1916 -1.1217  0.1939
  338TIP3    H2 1021   3.168   1.826   1.550 -0.2277 -1.8850  0.0824
  339TIP3   OH2 1022   3.141   3.223   2.071  0.3234 -0.4708  0.0233
  339TIP3    H1 1023   3.190   3.273   2.137 -0.0658  0.1939 -0.1812
  339TIP3    H2 1024   3.207   3.166   2.030  1.1028  0.9354 -0.7582
  340TIP3   OH2 1025   5.127   1.618   1.253 -0.3682  0.7428 -0.5187
  340TIP3    H1 1026   5.214   1.606   1.293 -1.4913 -0.9609  1.6417
  340TIP3    H2 1027   5.127   1.709   1.223  2.2170  0.7342 -0.8223
  341TIP3   OH2 1028   5.669   1.933   1.369 -0.7639  0.7220  0.6009
  341TIP3    H1 1029   5.704   1.935   1.458 -1.5582  2.8353  0.9171
  341TIP3    H2 1030   5.574   1.925   1.382 -0.7397 -1.2641 -0.1485
  342TIP3   OH2 1031   5.931   3.623   0.399 -0.7117  0.0164  0.0505
  342TIP3    H1 1032   5.948   3.712   0.427  2.1013 -0.8672  1.5628
  342TIP3    H2 1033   5.979   3.614   0.316 -1.7966  0.1599 -0.6060
  343TIP3   OH2 1034   0.935   4.311   4.647 -0.2169 -0.4509 -0.3189
  343TIP3    H1 1035   0.970   4.244   4.590  0.9759  0.2920 -0.4917
  343TIP3    H2 1036   0.982   4.300   4.730 -0.1976  0.0017 -0.2656
  344TIP3   OH2 1037   2.108   4.917   0.786 -0.6980  0.3708  0.2768
  344TIP3    H1 1038   2.170   4.907   0.858  0.9519  1.4514 -0.9219
  344TIP3    H2 1039   2.065   4.832   0.779 -0.0514 -0.0983  1.7699
  345TIP3   OH2 1040   5.477   2.353   3.453 -0.1503  0.0465  0.0310
  345TIP3    H1 1041   5.410   2.395   3.399 -0.6379  0.1151  0.6853
  345TIP3    H2 1042   5.458   2.259   3.444 -2.1074  0.1098  2.3848
  346TIP3   OH2 1043   0.186   2.094   1.752 -0.0027 -0.0143  0.0019
  346TIP3    H1 1044   0.252   2.157   1.779  0.8927 -0.7525 -0.3905
  346TIP3    H2 1045   0.160   2.121   1.664 -1.0299  0.8995  0.5699
  347TIP3   OH2 1046   4.492   1.043   4.209  0.0857  0.0438 -0.2011
  347TIP3    H1 1047   4.412   0.991   4.204  0.3820 -0.5227  0.6821
  347TIP3    H2 1048   4.517   1.039   4.301  1.9092 -1.0003 -0.6955
  348TIP3   OH2 1049   1.877   5.268   1.531 -0.5727 -0.7325 -0.5609
  348TIP3    H1 1050   1.874   5.340   1.468 -1.9941 -0.9502 -0.7609
  348TIP3    H2 1051   1.790   5.266   1.571  0.0169 -1.1885  0.7649
  349TIP3   OH2 1052   2.285   4.490   4.625 -0.1556  0.3310  0.0639
  349TIP3    H1 1053   2.242   4.423   4.678 -0.5830  0.8482  0.3783
  349TIP3    H2 1054   2.230   4.498   4.547  1.8630 -2.3268 -1.8044
  350TIP3   OH2 1055   4.345   2.309   2.907 -0.5451 -0.3045 -0.1512
  350TIP3    H1 1056   4.317   2.319   2.816  0.2843  1.1652 -0.2731
  350TIP3    H2 1057   4.333   2.216   2.925 -0.3958 -0.6981 -1.8800
  351TIP3   OH2 1058   1.965   1.710   3.982  0.1621  0.0597  0.4733
  351TIP3    H1 1059   2.059   1.698   3.997 -0.0520 -1.3594  0.8013
  351TIP3    H2 1060   1.960   1.782   3.918  1.4560  0.2398  0.5516
  352TIP3   OH2 1061   4.551   0.980   5.057 -0.0068  0.0972 -0.0828
  352TIP3    H1 1062   4.545   1.074   5.074  2.3677 -0.0931  2.6499
  352TIP3    H2 1063   4.485   0.963   4.990 -1.4853  3.4476  0.3330
  353TIP3   OH2 1064   5.720   0.054   0.259 -0.8637 -0.0388 -0.3659
  353TIP3    H1 1065   5.773   0.046   0.339  2.6723  0.5523 -2.4056
  353TIP3    H2 1066   5.759  -0.010   0.199 -2.4066  0.5815 -2.1255
  354TIP3   OH2 1067   4.597   5.933   2.293 -0.0831  0.4052  0.5012
  354TIP3    H1 1068   4.587   5.876   2.369  0.6506 -1.4765 -0.7318
  354TIP3    H2 1069   4.513   5.930   2.248 -1.2298  3.1682  2.2084
  355TIP3   OH2 1070   4.459   3.609   2.600  0.3243  0.3630 -0.3873
  355TIP3    H1 1071   4.440   3.521   2.634 -1.3757  1.2148  1.0157
  355TIP3    H2 1072   4.530   3.642   2.655 -0.8666  0.8567  0.9069
  356TIP3   OH2 1073   1.410   2.730   0.191 -0.4257 -0.0749  0.1021
  356TIP3    H1 1074   1.450   2.696   0.272 -0.2990  0.8171  0.4223
  356TIP3    H2 1075   1.435   2.822   0.189 -1.9260  0.3467 -0.0312
  357TIP3   OH2 1076   2.847   5.198   2.748  0.2679 -0.3514  0.2228
  357TIP3    H1 1077   2.771   5.233   2.794 -0.5376 -0.1120 -1.2339
  357TIP3    H2 1078   2.913   5.267   2.755  0.1516 -0.3056  0.9615
  358TIP3   OH2 1079   3.842   2.963   1.130  0.1722 -0.1016  1.0020
  358TIP3    H1 1080   3.858   3.041   1.182  0.1004  0.2080  0.5594
  358TIP3    H2 1081   3.783   2.992   1.060  1.9449 -0.0197 -0.5304
  359TIP3   OH2 1082   5.836   5.264   0.639  0.4923  0.1835 -0.0026
  359TIP3    H1 1083   5.900   5.281   0.708  1.3374 -1.7778 -0.2221
  359TIP3    H2 1084   5.857   5.326   0.570  2.4500 -0.6296 -0.2092
  360TIP3   OH2 1085   0.496   0.321   2.829 -0.1592  0.8198  0.3512
  360TIP3    H1 1086   0.541   0.405   2.838  0.5060  0.7658 -1.8536
  360TIP3    H2 1087   0.552   0.269   2.771 -0.5268 -1.1909  1.6877
  361TIP3   OH2 1088   0.311   2.403   1.443  0.1432 -0.4715 -0.4572
  361TIP3    H1 1089   0.363   2.448   1.510  0.5021 -0.4781 -0.7318
  361TIP3    H2 1090   0.373   2.385   1.373  0.0582 -1.5905 -0.2577
  362TIP3   OH2 1091   5.083   4.482   4.735 -0.4203  0.4270  0.2840
  362TIP3    H1 1092   5.059   4.569   4.766  3.4567  1.5060  0.6786
  362TIP3    H2 1093   5.123   4.439   4.810  1.5207 -0.0759 -0.9754
  363TIP3   OH2 1094   2.543   2.032   0.724 -0.1439 -0.3413  0.2237
  363TIP3    H1 1095   2.504   1.987   0.799 -0.6312  0.6130  0.5568
  363TIP3    H2 1096   2.615   1.975   0.696  0.0951 -0.6695  1.4656
  364TIP3   OH2 1097   1.614   4.351   2.125  0.7047 -0.6866 -0.1897
  364TIP3    H1 1098   1.588   4.296   2.051  1.7779 -1.3551 -0.1017
  364TIP3    H2 1099   1.704   4.323   2.144  0.5880 -0.2263  1.0952
  365TIP3   OH2 1100   4.906   3.069   4.633 -0.0235 -0.7316  0.6589
  365TIP3    H1 1101   4.846   3.021   4.690 -0.4601  0.9719  1.6944
  365TIP3    H2 1102   4.985   3.081   4.687  0.3050 -0.7834  0.1949
  366TIP3   OH2 1103   5.329   1.933   4.482 -0.2264  0.0762 -0.6742
  366TIP3    H1 1104   5.320   2.016   4.435  2.5350 -0.7003 -2.8192
  366TIP3    H2 1105   5.249   1.885   4.460  0.3401  0.2860 -3.6217
  367TIP3   OH2 1106   4.098   1.775   0.718 -0.0136  0.3308  0.1488
  367TIP3    H1 1107   4.124   1.699   0.770  0.9895 -0.0171 -0.7963
  367TIP3    H2 1108   4.034   1.741   0.656 -0.5089  0.5425  0.5369
  368TIP3   OH2 1109   3.005   4.726   1.357  0.3599 -0.2206 -0.2543
  368TIP3    H1 1110   3.088   4.758   1.393 -0.0116 -0.5905  1.0027
  368TIP3    H2 1111   2.944   4.800   1.369  0.0382 -0.6113  0.6652
  369TIP3   OH2 1112   0.515   4.585   2.916  0.3110  0.6619 -0.2820
  369TIP3    H1 1113   0.429   4.616   2.943  0.3703  0.6895 -0.1212
  369TIP3    H2 1114   0.513   4.491   2.932 -0.1592  0.4445 -1.5597
  370TIP3   OH2 1115   5.647   0.155   3.572  0.3750 -0.5070  0.0077
  370TIP3    H1 1116   5.633   0.244   3.603  1.4495 -0.1449 -0.4867
  370TIP3    H2 1117   5.595   0.101   3.631  0.4548  0.3650  0.9091
  371TIP3   OH2 1118   0.061   2.709   0.425  0.7250  0.2772  0.4823
  371TIP3    H1 1119  -0.017   2.674   0.383  0.3744  0.5014  0.9346
  371TIP3    H2 1120   0.076   2.794   0.384  0.1759  0.6557  1.0435
  372TIP3   OH2 1121   5.684   1.707   3.900 -0.2944 -0.3494 -0.0039
  372TIP3    H1 1122   5.649   1.796   3.908  0.8463  0.1675 -0.4592
  372TIP3    H2 1123   5.761   1.717   3.845 -0.2575 -1.6676 -0.2273
  373TIP3   OH2 1124   3.115   2.409   4.317  1.0629 -0.2782  0.2721
  373TIP3    H1 1125   3.185   2.376   4.261  1.7420  0.7664  0.4854
  373TIP3    H2 1126   3.160   2.442   4.394  0.2584 -0.3109  0.7589
  374TIP3   OH2 1127   3.243   1.905   4.372  0.2904 -0.3324 -0.0746
  374TIP3    H1 1128   3.187   1.866   4.305 -0.5981 -1.4118  1.2483
  374TIP3    H2 1129   3.189   1.974   4.411  2.1017  3.0426 -2.9244
  375TIP3   OH2 1130   5.238   2.745   4.517 -0.0007 -0.3063  0.2035
  375TIP3    H1 1131   5.224   2.662   4.470  0.9598 -1.5994  2.0576
  375TIP3    H2 1132   5.151   2.770   4.546 -0.1835 -1.2895  0.5623
  376TIP3   OH2 1133   2.046   2.186   1.465  0.6243  0.2215 -0.6654
  376TIP3    H1 1134   2.136   2.160   1.488  1.0047  2.3792  0.5286
  376TIP3    H2 1135   2.000   2.189   1.549 -0.4673 -0.3631 -1.2153
  377TIP3   OH2 1136   5.465   2.514   0.543  0.2248 -0.1363 -0.6393
  377TIP3    H1 1137   5.559   2.493   0.547  0.1204 -0.4098  0.9201
  377TIP3    H2 1138   5.421   2.431   0.559 -0.3817 -0.5329 -3.7606
  378TIP3   OH2 1139   5.051   2.927   0.103 -0.3912 -0.3540  0.1197
  378TIP3    H1 1140   5.013   2.859   0.158 -1.6117  0.4481  0.3140
  378TIP3    H2 1141   4.984   2.945   0.037  0.6316 -0.5660 -1.0045
  379TIP3   OH2 1142   3.287   2.342   1.869  0.4452 -0.0625 -0.6330
  379TIP3    H1 1143   3.226   2.415   1.882  1.0819  0.0546  2.2215
  379TIP3    H2 1144   3.321   2.356   1.780 -0.7073  2.1404 -0.8077
  380TIP3   OH2 1145   3.431   1.188   3.476 -0.0932 -0.0983 -0.1767
  380TIP3    H1 1146   3.380   1.171   3.396 -0.4236 -1.2814  0.2567
  380TIP3    H2 1147   3.394   1.127   3.541  1.1146 -0.1734  0.4689
  381TIP3   OH2 1148   1.048   5.634   2.915  1.0009  0.1176  0.4094
  381TIP3    H1 1149   1.038   5.565   2.849  0.4591 -0.3204  0.9386
  381TIP3    H2 1150   0.965   5.633   2.963  1.9449 -0.6504  2.1277
  382TIP3   OH2 1151   1.638   3.940   4.865  0.3091 -0.2268 -0.4383
  382TIP3    H1 1152   1.627   4.020   4.815 -0.6952 -0.2817 -0.3267
  382TIP3    H2 1153   1.649   3.871   4.799 -1.2739 -0.3369 -0.6108
  383TIP3   OH2 1154   3.541   2.731   0.775  0.0973 -0.3854  0.6037
  383TIP3    H1 1155   3.602   2.748   0.704 -1.2599  0.5118 -0.4133
  383TIP3    H2 1156   3.456   2.759   0.741 -0.3919  1.6057  3.1120
  384TIP3   OH2 1157   3.134   2.541   2.897 -0.6428 -0.4717 -0.3259
  384TIP3    H1 1158   3.072   2.542   2.824  0.8188  3.2009 -1.7453
  384TIP3    H2 1159   3.081   2.524   2.974 -2.5060 -2.7621 -1.9722
  385TIP3   OH2 1160   0.089   4.372   0.087 -0.2950 -0.3854  0.0863
  385TIP3    H1 1161   0.038   4.327   0.154  0.9892 -0.4620  1.0353
  385TIP3    H2 1162   0.023   4.412   0.030 -1.4508 -2.3138 -0.0208
  386TIP3   OH2 1163   1.381   3.032   1.127 -0.4355  0.2277  0.4070
  386TIP3    H1 1164   1.441   3.104   1.112 -1.6155  1.0984 -0.3062
  386TIP3    H2 1165   1.395   2.973   1.052  0.3508 -0.1744  0.8608
  387TIP3   OH2 1166   3.530   3.627   2.501 -0.0672  0.4444  0.1800
  387TIP3    H1 1167   3.571   3.706   2.465 -1.7627  0.9239 -0.8402
  387TIP3    H2 1168   3.587   3.600   2.573  1.9223  1.1081 -1.0874
  388TIP3   OH2 1169   2.203   0.516   2.861 -0.8176  0.3030 -0.3577
  388TIP3    H1 1170   2.145   0.544   2.932 -1.8995 -1.2862 -0.5664
  388TIP3    H2 1171   2.157   0.443   2.819  2.2395 -2.5268  0.8084
  389TIP3   OH2 1172   4.014   1.503   0.702  0.0642 -0.5286 -0.0136
  389TIP3    H1 1173   3.918   1.499   0.699  0.0834 -0.5727 -1.0504
  389TIP3    H2 1174   4.041   1.493   0.610  1.0373  0.0986  0.1926
  390TIP3   OH2 1175   0.262   4.060   2.175  0.4194 -0.3502  0.1977
  390TIP3    H1 1176   0.167   4.049   2.174  0.5760 -2.1415 -2.5584
  390TIP3    H2 1177   0.287   4.071   2.084  2.8621  0.5343  0.8814
  391TIP3   OH2 1178   2.373   0.338   1.457  0.3797 -0.0685  0.8822
  391TIP3    H1 1179   2.294   0.317   1.508 -1.1792  0.2745 -1.2793
  391TIP3    H2 1180   2.375   0.273   1.387  2.6461 -0.7108  1.4632
  392TIP3   OH2 1181   6.219   1.711   0.413 -0.0912  0.3609 -0.4671
  392TIP3    H1 1182   6.259   1.625   0.398 -0.8479  0.1152 -1.1231
  392TIP3    H2 1183   6.233   1.758   0.331 -0.6645  0.4690 -0.5022
  393TIP3   OH2 1184   4.587   4.661   5.209  0.0430 -0.0377  0.2356
  393TIP3    H1 1185   4.541   4.661   5.124  1.4373  0.9542 -0.5667
  393TIP3    H2 1186   4.659   4.599   5.197  0.0550 -0.1348  0.8127
  394TIP3   OH2 1187   5.086   5.711   3.094  0.1705  0.1018  0.2130
  394TIP3    H1 1188   5.101   5.806   3.087 -2.0963  0.5147  0.2443
  394TIP3    H2 1189   5.133   5.686   3.174  0.2377  1.3255  0.5869
  395TIP3   OH2 1190   4.478   4.987   4.563  0.3136  0.3678 -0.0312
  395TIP3    H1 1191   4.392   5.016   4.592 -1.0043 -1.3945 -1.8909
  395TIP3    H2 1192   4.533   5.066   4.567 -1.5434  1.6950  0.5581
  396TIP3   OH2 1193   1.086   1.973   4.666  0.0401 -0.5790 -0.5657
  396TIP3    H1 1194   1.019   1.931   4.720 -0.9225 -0.2702 -1.5014
  396TIP3    H2 1195   1.151   1.904   4.651 -1.2437 -1.6190 -1.6042
  397TIP3   OH2 1196   2.635   5.946   3.102 -0.7537 -0.0021 -0.0588
  397TIP3    H1 1197   2.698   5.894   3.152 -1.3379  0.4567  1.1918
  397TIP3    H2 1198   2.557   5.891   3.097 -0.2865 -0.5949 -1.6558
  398TIP3   OH2 1199   0.920   1.186   3.644  0.4549 -0.4675  0.6428
  398TIP3    H1 1200   0.837   1.231   3.658  1.3812  2.5559 -2.3944
  398TIP3    H2 1201   0.982   1.255   3.623  3.4816 -2.7446  1.3942
  399TIP3   OH2 1202   1.811   4.752   0.426 -0.0923 -0.3145 -0.0615
  399TIP3    H1 1203   1.827   4.665   0.390 -1.6406 -0.2758 -0.9539
  399TIP3    H2 1204   1.759   4.796   0.358 -0.5221  0.8135  0.9673
  400TIP3   OH2 1205   4.339   5.149   3.430 -0.3002 -0.3764  0.3188
  400TIP3    H1 1206   4.362   5.120   3.342  0.7335  0.2454  0.3720
  400TIP3    H2 1207   4.341   5.070   3.483  1.9532 -0.3472  0.3534
  401TIP3   OH2 1208   2.405   3.851   1.234  0.3774  0.0530 -0.4397
  401TIP3    H1 1209   2.488   3.864   1.281 -0.9969  2.7482  1.5056
  401TIP3    H2 1210   2.367   3.773   1.274  1.2428 -0.2411 -0.1714
  402TIP3   OH2 1211   6.122   4.178   3.203  0.0922  0.1689  0.5548
  402TIP3    H1 1212   6.166   4.128   3.272 -0.2407  0.7977  1.2365
  402TIP3    H2 1213   6.144   4.131   3.122  2.6638  0.8901  0.7596
  403TIP3   OH2 1214   5.021   0.809   3.399  0.5181  0.7996  0.2482
  403TIP3    H1 1215   5.049   0.857   3.322 -0.9366  2.0432  0.4593
  403TIP3    H2 1216   5.040   0.867   3.473  1.2514 -0.0868  0.7841
  404TIP3   OH2 1217   3.422   1.240   1.157 -0.0329  0.1605 -0.7923
  404TIP3    H1 1218   3.476   1.177   1.110 -0.1693 -0.4462 -0.1534
  404TIP3    H2 1219   3.384   1.190   1.229 -2.6540  0.1527 -2.0487
  405TIP3   OH2 1220   1.307   4.654   4.905  0.2259  0.0641  0.3097
  405TIP3    H1 1221   1.278   4.745   4.904 -0.0236 -0.0194 -0.6969
  405TIP3    H2 1222   1.374   4.649   4.837 -1.4638 -1.0304 -1.3617
  406TIP3   OH2 1223   2.340   0.727   4.339  0.1862 -0.5169  0.2095
  406TIP3    H1 1224   2.308   0.810   4.376  1.5687 -0.2914  0.9586
  406TIP3    H2 1225   2.286   0.660   4.380 -0.3006 -0.0559  0.3351
  407TIP3   OH2 1226   1.710   1.008   0.800  0.6137  0.2139  0.4169
  407TIP3    H1 1227   1.777   0.976   0.740 -0.1738 -0.1434 -0.2995
  407TIP3    H2 1228   1.717   0.951   0.876  0.1596 -0.7975 -0.2678
  408TIP3   OH2 1229   6.255   2.925   4.576 -0.0943  0.3908 -0.7813
  408TIP3    H1 1230   6.293   2.951   4.492 -1.6097 -0.6324 -1.8268
  408TIP3    H2 1231   6.174   2.880   4.553  0.7602 -2.3731  1.0339
  409TIP3   OH2 1232   4.550   5.082   1.296  0.1725  0.4896 -0.0494
  409TIP3    H1 1233   4.644   5.073   1.312  0.2722  1.0275 -0.3052
  409TIP3    H2 1234   4.509   5.062   1.380  0.4351 -0.9647 -0.2381
  410TIP3   OH2 1235   1.622   1.769   2.797  0.3507  0.2782  0.0139
  410TIP3    H1 1236   1.616   1.863   2.780  0.7256  0.5133  1.1115
  410TIP3    H2 1237   1.671   1.763   2.879 -1.2162 -0.8167  0.8984
  411TIP3   OH2 1238   4.644   0.421   1.490 -0.1892 -0.6030  0.1158
  411TIP3    H1 1239   4.724   0.466   1.465  0.2353 -1.2364  0.3271
  411TIP3    H2 1240   4.599   0.482   1.549 -0.3324  0.1491 -0.7324
  412TIP3   OH2 1241   5.603   1.839   3.409  0.0794 -0.1048  0.4519
  412TIP3    H1 1242   5.692   1.874   3.415  0.3268 -0.8283  1.0718
  412TIP3    H2 1243   5.606   1.779   3.334 -0.1711  0.6569 -0.1867
  413TIP3   OH2 1244   3.888   4.943   3.635 -0.4737 -0.3057 -0.5515
  413TIP3    H1 1245   3.900   5.031   3.599  0.9228  0.0366  0.6903
  413TIP3    H2 1246   3.933   4.944   3.719 -0.0909 -2.3223 -0.6714
  414TIP3   OH2 1247   1.497   3.521   2.154 -0.3451 -0.0090  0.0029
  414TIP3    H1 1248   1.591   3.541   2.159 -0.9036  3.0927 -0.1245
  414TIP3    H2 1249   1.457   3.575   2.222 -2.0742 -1.1636 -0.0413
  415TIP3   OH2 1250   5.094   5.750   4.696  0.5854  0.8331 -0.2491
  415TIP3    H1 1251   5.089   5.657   4.674  0.7495  0.6552  0.4310
  415TIP3    H2 1252   5.159   5.786   4.636 -0.0466  0.6722 -1.0378
  416TIP3   OH2 1253   4.033   1.081   3.154 -0.1755  0.0070 -0.2584
  416TIP3    H1 1254   3.943   1.102   3.179 -0.8325 -0.6610 -1.9391
  416TIP3    H2 1255   4.087   1.126   3.219 -1.7091  0.5618  0.6782
  417TIP3   OH2 1256   5.717   5.674   4.439  0.1804 -0.3022 -0.1926
  417TIP3    H1 1257   5.747   5.598   4.490  1.1241  0.2254  0.0748
  417TIP3    H2 1258   5.704   5.639   4.351 -0.7329 -1.0629  0.2223
  418TIP3   OH2 1259   1.356   5.461   4.327 -0.0605  0.0556  0.1095
  418TIP3    H1 1260   1.403   5.401   4.385 -1.5431 -0.4561  0.8409
  418TIP3    H2 1261   1.264   5.448   4.349 -0.6475  0.2321 -2.0241
  419TIP3   OH2 1262   4.499   1.549   3.106  0.1949  0.3120 -0.1681
  419TIP3    H1 1263   4.492   1.459   3.076  0.5967  0.4660 -0.7432
  419TIP3    H2 1264   4.566   1.588   3.050  2.0300  0.2518  1.8670
  420TIP3   OH2 1265   3.660   5.025   4.442 -0.8235 -0.1491  0.0115
  420TIP3    H1 1266   3.753   5.025   4.463 -0.6388  1.2129 -0.6935
  420TIP3    H2 1267   3.619   4.978   4.515  0.3557 -0.3809  0.5484
  421TIP3   OH2 1268   5.914   4.385   0.053  1.0173  0.1823 -0.0995
  421TIP3    H1 1269   5.996   4.431   0.074  0.0117  2.2309 -0.4743
  421TIP3    H2 1270   5.879   4.431  -0.023 -1.0240  0.0564  0.7005
  422TIP3   OH2 1271   1.454   2.135   1.129 -0.2640  1.0755 -0.3420
  422TIP3    H1 1272   1.522   2.069   1.142 -0.0234  1.3792 -0.0305
  422TIP3    H2 1273   1.381   2.088   1.090 -0.2336  0.5494  0.2275
  423TIP3   OH2 1274   0.945   3.574   2.677 -0.4316 -0.6202  0.1654
  423TIP3    H1 1275   0.928   3.609   2.589 -2.2909 -1.1526  0.2715
  423TIP3    H2 1276   0.964   3.481   2.663 -1.1011 -0.7897  0.3353
  424TIP3   OH2 1277   5.474   1.251   2.907  0.1854 -0.1086  0.0382
  424TIP3    H1 1278   5.392   1.276   2.951  0.4732  0.6709  0.1479
  424TIP3    H2 1279   5.452   1.171   2.860 -0.6403  0.0855  0.0735
  425TIP3   OH2 1280   3.445   5.854   3.648 -0.2671 -0.5840  0.7141
  425TIP3    H1 1281   3.387   5.873   3.574  0.0776 -1.6376  0.1497
  425TIP3    H2 1282   3.400   5.889   3.724  0.3652  2.5266 -0.2233
  426TIP3   OH2 1283   1.458   1.084   0.743 -0.2228 -0.0839  0.4085
  426TIP3    H1 1284   1.548   1.056   0.762 -0.4675 -0.3563  1.2061
  426TIP3    H2 1285   1.410   1.067   0.824 -1.2137 -0.8435 -0.3147
  427TIP3   OH2 1286   4.180   5.888   1.155  0.2305 -0.2682 -0.0722
  427TIP3    H1 1287   4.158   5.859   1.066  0.6155  0.6942 -0.5033
  427TIP3    H2 1288   4.261   5.842   1.175  0.4683 -0.0382 -0.4741
  428TIP3   OH2 1289   6.188   0.887   3.603 -0.5709 -0.5685 -0.0759
  428TIP3    H1 1290   6.190   0.953   3.672 -0.3703  0.1981 -0.7909
  428TIP3    H2 1291   6.223   0.808   3.643  1.0271  0.2730  0.2774
  429TIP3   OH2 1292   3.399   2.348   0.476  0.0242 -0.2334  0.1074
  429TIP3    H1 1293   3.362   2.372   0.391  1.2075  0.1327 -0.3091
  429TIP3    H2 1294   3.323   2.315   0.525 -0.8992  0.6487 -0.6677
  430TIP3   OH2 1295   3.143   1.501   3.657  0.2159  0.3502 -0.5765
  430TIP3    H1 1296   3.152   1.568   3.590  2.6811 -0.2533 -0.9289
  430TIP3    H2 1297   3.227   1.455   3.658 -0.3519 -0.8250  1.6929
  431TIP3   OH2 1298   3.476   1.045   1.633 -0.2630 -0.1283 -0.3127
  431TIP3    H1 1299   3.472   1.044   1.729 -0.0558  1.9299 -0.2346
  431TIP3    H2 1300   3.386   1.029   1.605 -0.2116 -1.4344  0.1696
  432TIP3   OH2 1301   5.033   1.186   3.398 -0.0733 -0.1950  0.3783
  432TIP3    H1 1302   5.008   1.184   3.306  0.8348  1.8025  0.0306
  432TIP3    H2 1303   4.951   1.180   3.446 -0.7320  0.5374 -0.6197
  433TIP3   OH2 1304   4.894   1.250   4.839 -0.4008  0.3837  0.2547
  433TIP3    H1 1305   4.859   1.170   4.877 -0.9548  0.8169  0.6800
  433TIP3    H2 1306   4.889   1.236   4.744 -0.6191 -0.0281  0.3252
  434TIP3   OH2 1307   4.053   3.839   4.798  0.1597 -0.2285 -0.3244
  434TIP3    H1 1308   4.100   3.756   4.808 -0.6568 -0.5882  0.7080
  434TIP3    H2 1309   3.989   3.839   4.869 -2.2188 -0.2803 -2.3203
  435TIP3   OH2 1310   0.797   1.236   3.373  0.0417 -0.2777  0.5176
  435TIP3    H1 1311   0.891   1.235   3.391  0.3922  0.4081 -1.1151
  435TIP3    H2 1312   0.761   1.298   3.436  0.6933 -0.4724  1.0884
  436TIP3   OH2 1313   1.214   3.277   2.097 -0.5130 -0.0220  0.6602
  436TIP3    H1 1314   1.292   3.263   2.045 -1.6330  3.0000 -2.1644
  436TIP3    H2 1315   1.230   3.359   2.143 -1.7709  0.3507  0.4713
  437TIP3   OH2 1316   1.661   1.518   0.534 -0.2886  0.4552  0.3760
  437TIP3    H1 1317   1.737   1.568   0.564  0.7393 -0.2758 -0.9129
  437TIP3    H2 1318   1.649   1.546   0.444  1.1116 -2.4631 -0.8179
  438TIP3   OH2 1319   6.218   1.152   4.997 -0.4644  0.5388  0.0778
  438TIP3    H1 1320   6.193   1.123   4.909  0.4865  1.2122 -0.4317
  438TIP3    H2 1321   6.258   1.075   5.037  0.3326  0.5903 -0.5879
  439TIP3   OH2 1322   1.036   3.332   2.588 -0.3143  0.0620 -0.1025
  439TIP3    H1 1323   1.117   3.289   2.614 -0.3599 -0.1806 -0.3602
  439TIP3    H2 1324   0.974   3.261   2.573 -0.3457  0.2038 -0.6782
  440TIP3   OH2 1325   1.712   3.252   4.222  0.1251  0.1032 -0.3263
  440TIP3    H1 1326   1.704   3.221   4.312 -2.9229 -0.3594 -0.6419
  440TIP3    H2 1327   1.664   3.335   4.222  3.7951  2.4636 -0.6597
  441TIP3   OH2 1328   0.213   5.056   3.838  0.2021  0.2946 -0.2355
  441TIP3    H1 1329   0.149   5.122   3.863  0.4337  0.5859 -0.3929
  441TIP3    H2 1330   0.292   5.107   3.816  0.1144  0.0378 -1.2062
  442TIP3   OH2 1331   2.032   4.065   1.640 -0.4115 -0.1420  0.2287
  442TIP3    H1 1332   2.086   4.041   1.715 -1.3547 -1.1457  0.6120
  442TIP3    H2 1333   2.066   4.012   1.568  0.5094  0.8390 -0.0922
  443TIP3   OH2 1334   5.565   5.186   2.981 -0.2117 -0.1153  0.4831
  443TIP3    H1 1335   5.471   5.201   2.967  0.0399  0.7541 -0.3871
  443TIP3    H2 1336   5.570   5.096   3.013 -1.1883 -0.8625 -1.2979
  444TIP3   OH2 1337   4.068   4.641   0.770  0.8008  0.4150 -0.3442
  444TIP3    H1 1338   4.085   4.554   0.806  2.6232  0.4433 -1.0625
  444TIP3    H2 1339   4.091   4.701   0.841 -0.6363  0.3427  0.2177
  445TIP3   OH2 1340   1.275   3.863   4.001  0.4048 -0.2797  0.2839
  445TIP3    H1 1341   1.325   3.783   3.989  3.2995  1.1069  1.9271
  445TIP3    H2 1342   1.245   3.859   4.092 -1.1278 -0.3244 -0.1947
  446TIP3   OH2 1343   2.239   0.252   4.357 -0.3050 -0.1600 -0.2293
  446TIP3    H1 1344   2.153   0.246   4.315  0.0481 -1.5623 -0.8386
  446TIP3    H2 1345   2.300   0.272   4.286  0.2751 -2.3630 -0.4250
  447TIP3   OH2 1346   5.206   0.541   2.787  0.5525 -0.2045  0.0283
  447TIP3    H1 1347   5.270   0.498   2.844  0.3857 -0.1550  0.2569
  447TIP3    H2 1348   5.201   0.631   2.820 -0.4110 -0.4820  0.6932
  448TIP3   OH2 1349   3.662   5.578   1.526 -0.1572  0.6668 -0.1869
  448TIP3    H1 1350   3.608   5.528   1.587  1.4124 -0.1088  0.6194
  448TIP3    H2 1351   3.605   5.591   1.450 -0.6433 -2.4862 -0.5290
  449TIP3   OH2 1352   3.865   3.703   1.952  0.1195  0.5287 -0.2199
  449TIP3    H1 1353   3.818   3.621   1.935  0.3030  0.4003 -0.1204
  449TIP3    H2 1354   3.918   3.684   2.029  0.4828  0.6064 -0.4440
  450TIP3   OH2 1355   0.041   5.346   0.789 -0.1114  0.1609 -0.0905
  450TIP3    H1 1356  -0.006   5.429   0.782 -0.8412 -0.2222  0.1092
  450TIP3    H2 1357   0.126   5.363   0.749 -1.3922  0.1150 -3.1493
  451TIP3   OH2 1358   0.767   3.587   1.292  0.1306 -0.5334 -0.3266
  451TIP3    H1 1359   0.742   3.672   1.256  1.1349  0.1447  0.5218
  451TIP3    H2 1360   0.689   3.557   1.338  0.0409  0.3699  0.1439
  452TIP3   OH2 1361   5.934   5.269   0.303  0.6121 -0.0229  0.3421
  452TIP3    H1 1362   6.013   5.251   0.253  0.6985 -0.1035  0.5123
  452TIP3    H2 1363   5.940   5.362   0.325  0.1922  0.2131 -0.4853
  453TIP3   OH2 1364   1.683   5.554   4.138 -0.4443 -0.2977 -0.3717
  453TIP3    H1 1365   1.681   5.472   4.187 -0.6682 -0.4089 -0.5645
  453TIP3    H2 1366   1.591   5.575   4.122 -0.6134  1.7115  2.5261
  454TIP3   OH2 1367   3.166   1.970   5.084 -0.3109 -0.3167 -0.1364
  454TIP3    H1 1368   3.139   1.914   5.011 -0.2620 -1.5286  0.7475
  454TIP3    H2 1369   3.083   2.005   5.118 -0.3432  0.1521 -0.6875
  455TIP3   OH2 1370   0.147   4.272   3.651  0.4087 -0.2751 -0.3668
  455TIP3    H1 1371   0.125   4.281   3.558 -0.6593 -0.2906 -0.1298
  455TIP3    H2 1372   0.239   4.245   3.652  1.5146  2.9712 -1.3516
  456TIP3   OH2 1373   3.067   2.859   3.952  0.4705  0.3717  0.9368
  456TIP3    H1 1374   3.008   2.898   3.888  0.0894  0.3706  1.2849
  456TIP3    H2 1375   3.126   2.804   3.900  0.4313  0.6997  0.5449
  457TIP3   OH2 1376   4.823   4.797   4.637  0.1284 -0.2585 -0.3289
  457TIP3    H1 1377   4.813   4.890   4.660 -2.5305 -0.2668 -1.0811
  457TIP3    H2 1378   4.795   4.792   4.546  2.3616 -1.5142 -1.0156
  458TIP3   OH2 1379   1.773   2.470   2.498  0.2821  0.7074 -0.1805
  458TIP3    H1 1380   1.852   2.520   2.516  0.2378  1.3687 -1.6684
  458TIP3    H2 1381   1.804   2.381   2.480  0.7486  1.0238 -1.0362
  459TIP3   OH2 1382   0.839   0.600   2.312  0.7082  0.3326  0.3163
  459TIP3    H1 1383   0.746   0.601   2.332  0.6711 -0.1165  0.1750
  459TIP3    H2 1384   0.851   0.669   2.247  0.3875  0.0480 -0.0461
  460TIP3   OH2 1385   1.350   3.838   2.208 -0.0780  0.3361  0.1957
  460TIP3    H1 1386   1.398   3.887   2.274  1.2479  0.0932 -0.5456
  460TIP3    H2 1387   1.276   3.799   2.255  2.3718 -2.2225  2.2716
  461TIP3   OH2 1388   2.772   3.596   3.817 -0.0271 -0.1078 -0.7299
  461TIP3    H1 1389   2.706   3.606   3.886 -0.2544 -1.3336 -0.7623
  461TIP3    H2 1390   2.843   3.655   3.844 -0.2159 -0.3825  0.4178
  462TIP3   OH2 1391   0.575   0.819   4.599  0.3827 -0.0961 -0.2992
  462TIP3    H1 1392   0.536   0.735   4.574  0.0882 -0.5519  1.5629
  462TIP3    H2 1393   0.506   0.884   4.583  0.6009 -0.1811 -1.7112
  463TIP3   OH2 1394   4.460   5.187   0.868  0.0547 -0.0057  1.0438
  463TIP3    H1 1395   4.512   5.241   0.808  0.6689 -1.5625  0.1051
  463TIP3    H2 1396   4.525   5.132   0.912 -0.6676 -1.0391  0.8508
  464TIP3   OH2 1397   1.173   4.101   2.766  0.6607  0.2966  0.3402
  464TIP3    H1 1398   1.200   4.037   2.831  2.9784  2.0553  1.2312
  464TIP3    H2 1399   1.111   4.159   2.812  0.8051  0.4011  0.4029
  465TIP3   OH2 1400   3.817   3.392   0.728 -0.2377  0.3967 -0.0683
  465TIP3    H1 1401   3.846   3.404   0.819  1.7264  0.2724 -0.6362
  465TIP3    H2 1402   3.872   3.321   0.694 -3.1776 -1.8588 -0.4410
  466TIP3   OH2 1403   6.280   4.322   2.011 -0.4631  0.4055  0.1075
  466TIP3    H1 1404   6.304   4.238   1.971 -0.5081  0.3653  0.1638
  466TIP3    H2 1405   6.271   4.382   1.938 -0.8134  0.2666  0.0302
  467TIP3   OH2 1406   0.094   5.502   4.900  0.0806  0.7456  0.1074
  467TIP3    H1 1407   0.159   5.435   4.880 -1.7252 -0.5025 -2.1405
  467TIP3    H2 1408   0.145   5.581   4.917  2.1966 -0.1908 -1.4144
  468TIP3   OH2 1409   4.290   5.953   2.793  0.1594  0.2226  0.0295
  468TIP3    H1 1410   4.332   5.972   2.877  0.8795 -1.4190  0.0702
  468TIP3    H2 1411   4.203   5.922   2.817  0.8273 -1.5568  0.2985
  469TIP3   OH2 1412   4.590   3.935   1.092  0.3324  0.4500  0.2759
  469TIP3    H1 1413   4.547   4.020   1.083 -0.3154 -0.0341 -2.0477
  469TIP3    H2 1414   4.683   3.955   1.089  0.1884  1.1310  0.1716
  470TIP3   OH2 1415   0.451   1.611   0.635 -0.0789  0.0641 -0.6508
  470TIP3    H1 1416   0.507   1.666   0.690 -1.0104 -0.1285  0.5335
  470TIP3    H2 1417   0.441   1.661   0.554 -0.0008  1.1238 -0.0259
  471TIP3   OH2 1418   1.105   2.639   2.070  0.2149  0.4977 -0.0273
  471TIP3    H1 1419   1.194   2.616   2.095  0.2273  0.3144 -0.2487
  471TIP3    H2 1420   1.062   2.556   2.053 -0.5050  0.4600  1.7838
  472TIP3   OH2 1421   1.804   2.791   2.789 -0.1243  0.3347 -0.2835
  472TIP3    H1 1422   1.899   2.776   2.788 -0.2845 -0.6868 -0.6192
  472TIP3    H2 1423   1.796   2.887   2.795  0.9238  0.4557 -0.5259
  473TIP3   OH2 1424   1.074   4.519   1.569 -0.4903  0.5606 -0.7005
  473TIP3    H1 1425   1.024   4.481   1.641 -0.0835 -0.3749 -0.8888
  473TIP3    H2 1426   1.008   4.560   1.513 -1.1399 -1.0384 -1.1748
  474TIP3   OH2 1427   2.496   2.421   1.139  0.2568  0.5359 -0.6421
  474TIP3    H1 1428   2.520   2.380   1.222 -2.0927 -0.6220 -0.4497
  474TIP3    H2 1429   2.549   2.500   1.134 -1.4753  2.1798  3.3223
  475TIP3   OH2 1430   3.862   3.908   1.325  0.3236  0.0197  0.1239
  475TIP3    H1 1431   3.891   3.939   1.411 -1.7144  2.0206  0.1968
  475TIP3    H2 1432   3.778   3.865   1.342  0.2637 -0.2452 -0.7713
  476TIP3   OH2 1433   1.779   4.269   1.185 -0.0372 -0.2703 -0.0274
  476TIP3    H1 1434   1.839   4.261   1.111 -0.3406  0.7710 -0.3997
  476TIP3    H2 1435   1.721   4.341   1.161 -0.1863  0.0407  1.1981
  477TIP3   OH2 1436   5.422   0.339   2.866 -0.6850 -0.7829  0.5354
  477TIP3    H1 1437   5.426   0.285   2.945 -1.7117 -0.5130  0.7836
  477TIP3    H2 1438   5.385   0.281   2.800  1.0651 -1.3091 -0.0338
  478TIP3   OH2 1439   4.776   4.382   2.843 -0.7651 -0.1249  0.0447
  478TIP3    H1 1440   4.700   4.342   2.801 -0.1667 -0.1082 -1.0814
  478TIP3    H2 1441   4.832   4.411   2.771  0.1016  0.2748  0.8480
  479TIP3   OH2 1442   5.511   3.906   2.648 -0.4667 -0.8977  0.2416
  479TIP3    H1 1443   5.424   3.914   2.687 -0.1141  1.2794  0.6985
  479TIP3    H2 1444   5.571   3.939   2.715  0.2258  2.2653 -1.6977
  480TIP3   OH2 1445   1.958   0.652   0.007 -0.3149  0.2509 -0.1514
  480TIP3    H1 1446   1.947   0.728   0.065 -0.8796  2.1244 -2.5661
  480TIP3    H2 1447   2.053   0.638   0.003 -0.1884  1.0098  0.0933
  481TIP3   OH2 1448   3.762   5.748   4.033 -0.0955 -0.2869 -0.5192
  481TIP3    H1 1449   3.700   5.675   4.036 -1.5344  0.8485 -1.5215
  481TIP3    H2 1450   3.845   5.707   4.008 -0.3333 -1.8759  1.0617
  482TIP3   OH2 1451   4.676   2.575   1.770 -0.3407 -0.4756 -0.0776
  482TIP3    H1 1452   4.670   2.633   1.694 -0.0748  1.0049  0.9717
  482TIP3    H2 1453   4.612   2.610   1.832  0.7565 -0.4608  1.1021
  483TIP3   OH2 1454   4.111   0.965   2.496  0.4608  0.4608 -0.2504
  483TIP3    H1 1455   4.037   1.009   2.539  0.2938  0.0815 -0.1471
  483TIP3    H2 1456   4.184   1.026   2.507  0.0337  1.0912 -0.8431
  484TIP3   OH2 1457   5.238   1.990   3.727  0.0140  0.6671 -0.4869
  484TIP3    H1 1458   5.166   1.931   3.704  0.2765  0.6629 -1.3220
  484TIP3    H2 1459   5.308   1.932   3.757 -0.3616  0.6788  0.4412
  485TIP3   OH2 1460   1.871   2.005   2.191  0.7285  0.1787 -0.4982
  485TIP3    H1 1461   1.963   2.011   2.165  1.3956 -2.5190  0.8515
  485TIP3    H2 1462   1.859   1.913   2.215 -1.9888  0.7419  0.6698
  486TIP3   OH2 1463   2.432   5.490   5.108  0.9071 -0.0704  0.0714
  486TIP3    H1 1464   2.508   5.521   5.156  0.5510 -0.1831  0.7197
  486TIP3    H2 1465   2.385   5.435   5.171 -0.3770  1.0089  0.0893
  487TIP3   OH2 1466   1.964   5.998   0.689  0.2990  0.3740  0.1129
  487TIP3    H1 1467   1.905   5.923   0.687 -1.0839  1.4258 -0.5367
  487TIP3    H2 1468   1.982   6.012   0.782 -0.5546  0.0601  0.3389
  488TIP3   OH2 1469   5.579   4.363   1.811 -0.1259  0.2821  0.4272
  488TIP3    H1 1470   5.561   4.387   1.902 -1.2094 -0.0292  0.3078
  488TIP3    H2 1471   5.646   4.294   1.818  1.1821  1.5525  0.8751
  489TIP3   OH2 1472   5.174   2.591   2.384  0.0705 -0.0146  0.0593
  489TIP3    H1 1473   5.215   2.666   2.340 -2.9460  1.3420 -0.7094
  489TIP3    H2 1474   5.106   2.562   2.324 -0.1314 -2.1546  1.2235
  490TIP3   OH2 1475   4.726   2.619   4.034  0.0456  0.0686 -0.2805
  490TIP3    H1 1476   4.670   2.589   3.963  1.1772  0.5227 -1.4050
  490TIP3    H2 1477   4.752   2.708   4.008  0.1482  0.4035  0.9070
  491TIP3   OH2 1478   2.270   3.780   0.516 -0.6999 -0.1457  0.1161
  491TIP3    H1 1479   2.276   3.873   0.536  1.0856  0.0497 -1.1289
  491TIP3    H2 1480   2.202   3.775   0.448  0.7998  0.6284 -1.5361
  492TIP3   OH2 1481   4.835   2.555   0.005 -0.0598 -0.7453  0.2680
  492TIP3    H1 1482   4.851   2.511   0.088 -2.2749  0.8152  1.6519
  492TIP3    H2 1483   4.799   2.641   0.030  2.1912  1.1145 -2.2658
  493TIP3   OH2 1484   0.922   3.150   1.484  0.4767  0.5079  0.4155
  493TIP3    H1 1485   0.981   3.194   1.546 -0.0447  1.8976 -0.0453
  493TIP3    H2 1486   0.842   3.201   1.486 -0.7431 -1.3180  0.9722
  494TIP3   OH2 1487   1.203   5.847   1.965 -0.2324  0.1338 -0.0025
  494TIP3    H1 1488   1.137   5.782   1.991 -0.2290  0.8787  2.0547
  494TIP3    H2 1489   1.277   5.795   1.934 -0.9921 -0.7767 -0.3559
  495TIP3   OH2 1490   0.586   2.328   4.437 -0.2673 -0.1742  0.1628
  495TIP3    H1 1491   0.645   2.401   4.420 -0.6503  0.6575  2.0588
  495TIP3    H2 1492   0.504   2.353   4.394  0.3843 -0.8048 -1.5123
  496TIP3   OH2 1493   0.526   4.970   2.794 -0.3496 -0.1826  0.4821
  496TIP3    H1 1494   0.457   4.941   2.734 -2.3643  0.3326  2.3954
  496TIP3    H2 1495   0.572   4.890   2.818 -1.1006 -0.7443  0.1122
  497TIP3   OH2 1496   4.628   2.178   4.404  0.0334 -0.6676 -0.0342
  497TIP3    H1 1497   4.698   2.182   4.339  0.1005 -0.8324  0.0281
  497TIP3    H2 1498   4.559   2.233   4.368 -1.4294 -3.5548 -2.0245
  498TIP3   OH2 1499   0.132   4.010   1.669 -0.5116  0.0659 -0.0253
  498TIP3    H1 1500   0.207   3.961   1.637 -0.3643  0.5344 -0.4244
  498TIP3    H2 1501   0.071   4.012   1.596 -0.7974 -0.0845  0.2070
  499TIP3   OH2 1502   3.580   3.544   0.033 -0.3131 -0.2932 -0.2477
  499TIP3    H1 1503   3.516   3.489  -0.011 -1.9727  0.6754  0.8678
  499TIP3    H2 1504   3.587   3.506   0.121  0.6654 -0.3702 -0.3407
  500TIP3   OH2 1505   0.207   3.039   4.410 -0.1567  0.4375 -0.0990
  500TIP3    H1 1506   0.130   3.029   4.355  0.4316  0.7367 -1.0124
  500TIP3    H2 1507   0.262   3.102   4.363  0.8156 -0.0726  0.3239
  501TIP3   OH2 1508   5.498   2.804   2.189 -0.8481 -0.0604  0.0301
  501TIP3    H1 1509   5.461   2.731   2.139 -1.9839  0.9432 -0.6589
  501TIP3    H2 1510   5.563   2.843   2.131 -2.4026  1.3116 -0.8893
  502TIP3   OH2 1511   5.831   1.413   2.487  0.3259 -0.3172 -0.2440
  502TIP3    H1 1512   5.834   1.474   2.413 -0.1502  0.3337  0.2648
  502TIP3    H2 1513   5.859   1.465   2.562 -1.4220 -0.3204  0.4511
  503TIP3   OH2 1514   5.423   3.927   2.362 -0.3107  0.5712 -0.3316
  503TIP3    H1 1515   5.441   3.963   2.449  1.6030 -0.8955 -0.0558
  503TIP3    H2 1516   5.335   3.959   2.341 -0.5671  1.5027  1.8411
  504TIP3   OH2 1517   2.129   3.517   2.699  0.5277 -0.1354  0.4085
  504TIP3    H1 1518   2.081   3.496   2.778  0.0794  0.2204  0.2351
  504TIP3    H2 1519   2.094   3.602   2.671  0.4936 -0.3815 -0.3153
  505TIP3   OH2 1520   2.589   1.637   3.255  0.4759 -0.1591 -0.4006
  505TIP3    H1 1521   2.614   1.547   3.274 -2.4214 -0.9020  0.4673
  505TIP3    H2 1522   2.642   1.690   3.315  0.7757 -1.4701  0.5351
  506TIP3   OH2 1523   1.650   0.804   0.585  0.1895  0.0047  0.1754
  506TIP3    H1 1524   1.622   0.727   0.635  0.4297  0.7077  1.4402
  506TIP3    H2 1525   1.605   0.878   0.627  3.8452  1.2096  2.3588
  507TIP3   OH2 1526   2.961   0.231   3.279 -0.0592  0.2884  0.6255
  507TIP3    H1 1527   2.899   0.179   3.228  0.0416  2.4441 -1.8892
  507TIP3    H2 1528   2.965   0.186   3.364 -2.9225 -1.4932 -0.0236
  508TIP3   OH2 1529   4.239   4.033   2.902 -0.1180  0.2755 -0.1085
  508TIP3    H1 1530   4.273   4.000   2.818 -1.2495 -0.7284 -0.2026
  508TIP3    H2 1531   4.160   3.981   2.917 -0.3072  0.9316  1.2489
  509TIP3   OH2 1532   4.403   4.378   2.761 -0.3406  0.2788 -0.0810
  509TIP3    H1 1533   4.312   4.409   2.764 -0.1466  0.8755  2.6330
  509TIP3    H2 1534   4.438   4.399   2.848  1.3171 -3.1448  0.2530
  510TIP3   OH2 1535   2.356   5.019   4.320  0.0246  0.5197  0.0209
  510TIP3    H1 1536   2.434   4.965   4.311 -0.6948 -0.9781  1.9984
  510TIP3    H2 1537   2.285   4.957   4.337 -0.7137  2.0009  3.1690
  511TIP3   OH2 1538   3.659   3.942   2.409 -0.1062 -0.1516 -0.0372
  511TIP3    H1 1539   3.628   3.921   2.497 -0.5997 -0.8213 -0.3668
  511TIP3    H2 1540   3.646   4.037   2.402  0.6099  0.0297  0.8618
  512TIP3   OH2 1541   2.926   3.739   2.281  0.4376 -0.0174  0.3951
  512TIP3    H1 1542   2.916   3.811   2.217 -0.9825  0.4759  1.1299
  512TIP3    H2 1543   2.915   3.660   2.229  0.2279  0.3491 -0.1323
  513TIP3   OH2 1544   0.804   4.336   2.678  0.0493 -0.5983 -0.1161
  513TIP3    H1 1545   0.779   4.397   2.746  0.3948 -1.2611  0.6199
  513TIP3    H2 1546   0.792   4.249   2.717  0.6853 -0.9831 -0.7292
  514TIP3   OH2 1547   3.415   5.452   0.398 -0.8122  0.4878 -0.2936
  514TIP3    H1 1548   3.453   5.448   0.310 -0.7189 -2.0132 -0.1960
  514TIP3    H2 1549   3.491   5.443   0.456 -1.0569  0.3888  0.0088
  515TIP3   OH2 1550   6.106   3.776   1.126 -0.1765  0.5009  0.0029
  515TIP3    H1 1551   6.160   3.831   1.069 -1.5011  1.8594 -0.0312
  515TIP3    H2 1552   6.046   3.731   1.067 -0.2976  0.4342  0.1743
  516TIP3   OH2 1553   0.539   0.914   4.870  0.2583  0.3534  0.0882
  516TIP3    H1 1554   0.533   0.933   4.777 -1.1924 -0.5193 -0.0221
  516TIP3    H2 1555   0.624   0.870   4.880 -0.0505 -0.5451 -1.0148
  517TIP3   OH2 1556   3.635   1.678   2.152 -0.5763 -0.6744 -0.1010
  517TIP3    H1 1557   3.666   1.664   2.062 -1.1606  0.3601 -0.4869
  517TIP3    H2 1558   3.704   1.642   2.207  0.3458 -0.2812 -0.9585
  518TIP3   OH2 1559   6.146   4.563   0.454 -0.1885  0.0837  0.0441
  518TIP3    H1 1560   6.199   4.570   0.533 -0.3147 -1.0433  0.2513
  518TIP3    H2 1561   6.088   4.639   0.456 -1.1709 -0.6518  1.7932
  519TIP3   OH2 1562   0.358   5.531   4.597  0.4727 -0.2283 -0.0698
  519TIP3    H1 1563   0.283   5.476   4.572  1.8824 -1.9156 -0.7535
  519TIP3    H2 1564   0.402   5.551   4.515  1.4505 -0.2866  0.4228
  520TIP3   OH2 1565   2.467   1.832   4.371  0.2827 -0.6351  0.4717
  520TIP3    H1 1566   2.551   1.821   4.327  1.0772  1.5609  1.2647
  520TIP3    H2 1567   2.405   1.852   4.300  0.6278 -1.3184 -0.0291
  521TIP3   OH2 1568   6.204   4.181   0.216 -0.1864  0.3310 -0.2158
  521TIP3    H1 1569   6.151   4.179   0.136 -1.2269  0.3891  0.4456
  521TIP3    H2 1570   6.168   4.253   0.267  0.5931  0.4208  0.2288
  522TIP3   OH2 1571   2.712   2.265   0.697 -0.5735 -0.4128  0.7882
  522TIP3    H1 1572   2.656   2.190   0.716 -1.4561  0.1962  0.7212
  522TIP3    H2 1573   2.727   2.260   0.603 -0.9960 -0.2752  0.7095
  523TIP3   OH2 1574   0.626   0.214   2.627  0.0472 -0.0552  0.0650
  523TIP3    H1 1575   0.625   0.144   2.561 -0.1821  0.7935 -0.8621
  523TIP3    H2 1576   0.673   0.286   2.585 -0.5951  0.7051  0.6257
  524TIP3   OH2 1577   5.683   3.294   2.037 -0.1566  0.0231 -0.0155
  524TIP3    H1 1578   5.648   3.335   1.958  1.3805 -1.0204 -1.2886
  524TIP3    H2 1579   5.759   3.347   2.060  0.3886 -0.6373 -0.2446
  525TIP3   OH2 1580   4.628   0.780   4.580  1.0030 -0.4229 -0.9841
  525TIP3    H1 1581   4.664   0.868   4.591  1.6122 -0.5024 -2.1804
  525TIP3    H2 1582   4.704   0.725   4.561  0.4481 -0.8863 -1.9325
  526TIP3   OH2 1583   3.188   5.617   1.436  0.0226 -0.2997 -0.2629
  526TIP3    H1 1584   3.100   5.623   1.473 -0.0435  1.2178 -0.5878
  526TIP3    H2 1585   3.246   5.645   1.507  0.1108  0.0290 -0.4579
  527TIP3   OH2 1586   4.615   2.547   0.276 -0.3265 -0.7439 -0.7349
  527TIP3    H1 1587   4.622   2.602   0.199 -1.0007 -0.1971 -0.4210
  527TIP3    H2 1588   4.521   2.527   0.283 -0.5106  0.5023  0.8029
  528TIP3   OH2 1589   0.295   0.063   1.087  0.5661  0.1286  0.0326
  528TIP3    H1 1590   0.340   0.133   1.039 -0.7160 -0.3032 -1.9119
  528TIP3    H2 1591   0.354   0.043   1.160  1.5324  2.3884 -0.0195
  529TIP3   OH2 1592   6.308   3.324   0.835  0.5570  0.5967  0.5388
  529TIP3    H1 1593   6.379   3.261   0.842 -1.4192 -2.2257 -2.0896
  529TIP3    H2 1594   6.243   3.295   0.900  0.3946  1.0971  0.6071
  530TIP3   OH2 1595   0.546   0.291   1.247  0.4310 -0.2072 -0.2356
  530TIP3    H1 1596   0.550   0.334   1.333  1.5022 -0.0588 -0.3397
  530TIP3    H2 1597   0.596   0.210   1.259  0.3882 -0.2977 -0.6585
  531TIP3   OH2 1598   2.648   1.532   3.787  0.2121  0.0549  0.1128
  531TIP3    H1 1599   2.554   1.541   3.806  0.1023 -0.3291 -0.2187
  531TIP3    H2 1600   2.670   1.443   3.816  0.2943 -0.1325 -0.5014
  532TIP3   OH2 1601   2.106   1.975   3.985  0.5468 -0.2764 -0.2715
  532TIP3    H1 1602   2.032   2.024   3.949  0.4141 -0.8883 -0.8469
  532TIP3    H2 1603   2.141   1.927   3.910 -0.1625 -2.1190  0.5385
  533TIP3   OH2 1604   0.006   2.400   4.508 -0.0162 -0.0939  0.0877
  533TIP3    H1 1605   0.093   2.371   4.534 -0.4778 -0.0408  1.8029
  533TIP3    H2 1606   0.022   2.481   4.459  0.8862 -0.0725  0.3956
  534TIP3   OH2 1607   1.456   5.836   0.957  0.5159 -0.3436  0.6634
  534TIP3    H1 1608   1.508   5.867   0.882  0.3453 -1.1636  0.1975
  534TIP3    H2 1609   1.494   5.882   1.032  2.3826 -1.4112  0.4451
  535TIP3   OH2 1610   5.878   5.105   4.979 -0.2097  0.1658 -0.7907
  535TIP3    H1 1611   5.964   5.112   5.021 -0.2384  0.3666 -0.7674
  535TIP3    H2 1612   5.828   5.046   5.037 -0.0083 -0.1475 -0.9343
  536TIP3   OH2 1613   2.350   3.389   3.409  0.2826 -0.2826  0.2843
  536TIP3    H1 1614   2.356   3.360   3.500  2.5391 -0.5182  0.1137
  536TIP3    H2 1615   2.386   3.478   3.410  1.5759 -0.7761 -0.5610
  537TIP3   OH2 1616   0.060   2.265   1.552  0.7266 -0.1382 -0.4812
  537TIP3    H1 1617   0.063   2.326   1.626 -1.2941  0.4139 -0.8019
  537TIP3    H2 1618   0.132   2.292   1.495  0.9705  0.7956  0.2537
  538TIP3   OH2 1619   0.461   1.316   0.673 -0.6119 -0.0815  0.3316
  538TIP3    H1 1620   0.473   1.391   0.614  0.9078 -0.7041 -0.2034
  538TIP3    H2 1621   0.497   1.345   0.757  0.7060 -0.4307 -0.0818
  539TIP3   OH2 1622   4.896   1.000   4.028  0.2156 -0.1266  0.3457
  539TIP3    H1 1623   4.924   1.062   3.961 -0.6777 -0.8847 -0.7499
  539TIP3    H2 1624   4.949   0.922   4.013  0.0599 -0.2792  0.5690
  540TIP3   OH2 1625   1.242   1.901   0.712  0.7656  0.5474  0.0952
  540TIP3    H1 1626   1.261   1.923   0.621 -1.1210 -0.1747 -0.5216
  540TIP3    H2 1627   1.223   1.985   0.754 -2.9197  0.6035 -1.3717
  541TIP3   OH2 1628   3.295   4.677   3.603  0.1150 -0.3546 -0.1171
  541TIP3    H1 1629   3.294   4.583   3.618 -0.2574 -0.2387  0.5993
  541TIP3    H2 1630   3.238   4.690   3.527  0.0398 -0.6886 -0.1179
  542TIP3   OH2 1631   3.456   1.516   1.952 -0.2223 -0.5223 -0.3443
  542TIP3    H1 1632   3.428   1.578   2.020 -0.2741 -1.2320  0.2956
  542TIP3    H2 1633   3.548   1.538   1.937 -0.7840  1.1389 -1.7150
  543TIP3   OH2 1634   2.006   0.328   2.822 -0.2288  0.3721  0.2189
  543TIP3    H1 1635   1.941   0.300   2.758 -0.3090  2.3637 -0.6534
  543TIP3    H2 1636   2.017   0.253   2.880 -1.9801 -0.6354 -0.6690
  544TIP3   OH2 1637   4.926   0.503   2.628 -0.1773  0.2042  0.2470
  544TIP3    H1 1638   4.984   0.463   2.693 -1.7132 -0.5101  1.2597
  544TIP3    H2 1639   4.918   0.594   2.654  0.8714  0.4324 -0.2044
  545TIP3   OH2 1640   4.926   0.150   4.541 -0.3335 -0.4305 -0.3685
  545TIP3    H1 1641   4.930   0.076   4.601  1.4023 -0.6337 -0.6783
  545TIP3    H2 1642   5.018   0.167   4.517 -0.5100  2.6438  0.6815
  546TIP3   OH2 1643   2.421   1.356   2.425  0.4487 -0.0019  0.0090
  546TIP3    H1 1644   2.452   1.405   2.349  0.9732  2.1555  1.5227
  546TIP3    H2 1645   2.326   1.356   2.416  0.5411 -0.6413 -1.1307
  547TIP3   OH2 1646   3.322   1.266   4.232  0.2408 -0.2549 -0.2201
  547TIP3    H1 1647   3.410   1.234   4.209 -0.2835 -0.7445 -1.6460
  547TIP3    H2 1648   3.336   1.357   4.256  1.1809 -0.4083 -0.1161
  548TIP3   OH2 1649   5.238   5.167   0.161  0.1378  0.1548  0.7755
  548TIP3    H1 1650   5.186   5.113   0.221  0.1334  0.0952  0.7180
  548TIP3    H2 1651   5.320   5.182   0.207 -0.1107  0.6448  1.0667
  549TIP3   OH2 1652   3.770   0.307   3.455  0.0596  0.4499  0.1238
  549TIP3    H1 1653   3.701   0.358   3.412 -0.9041 -0.6775  0.2902
  549TIP3    H2 1654   3.802   0.247   3.387 -1.2538 -1.1223  0.8201
  550TIP3   OH2 1655   5.088   3.142   4.803  0.2067  0.4728 -0.0197
  550TIP3    H1 1656   5.181   3.162   4.798  0.2589 -0.0990 -2.0274
  550TIP3    H2 1657   5.080   3.086   4.880  1.8422 -0.9919 -0.8410
  551TIP3   OH2 1658   2.535   0.701   3.342 -0.0603  0.1024 -0.1162
  551TIP3    H1 1659   2.597   0.758   3.297  0.9835 -1.2832 -0.4790
  551TIP3    H2 1660   2.456   0.703   3.288 -0.3766  1.8744  0.3513
  552TIP3   OH2 1661   3.762   5.870   0.637  0.6285  0.3697 -0.3149
  552TIP3    H1 1662   3.695   5.925   0.596  0.8779  1.1218  0.2727
  552TIP3    H2 1663   3.840   5.925   0.641  0.8056  0.0822  0.5327
  553TIP3   OH2 1664   3.607   5.355   1.856  0.1899 -0.1092  0.0757
  553TIP3    H1 1665   3.615   5.442   1.897  0.5005  0.2655 -0.7488
  553TIP3    H2 1666   3.516   5.331   1.869  0.2205  0.1194  0.7543
  554TIP3   OH2 1667   5.047   0.202   1.051 -1.0027  0.7089 -0.5288
  554TIP3    H1 1668   4.958   0.217   1.084 -1.3627  1.7009 -1.8709
  554TIP3    H2 1669   5.101   0.265   1.098 -1.2739  1.1696 -0.8283
  555TIP3   OH2 1670   5.560   3.804   1.474  0.1084  0.1800  0.1814
  555TIP3    H1 1671   5.556   3.812   1.569 -0.3458 -1.5002  0.3350
  555TIP3    H2 1672   5.601   3.885   1.445 -1.0191  1.3520  1.6827
  556TIP3   OH2 1673   6.258   3.153   0.411 -0.4610  0.2107 -0.2126
  556TIP3    H1 1674   6.198   3.084   0.441 -0.6201 -0.1302 -1.2811
  556TIP3    H2 1675   6.200   3.226   0.390 -0.1571  1.5017  2.9221
  557TIP3   OH2 1676   3.287   5.190   2.899  0.5595 -0.0337  0.1501
  557TIP3    H1 1677   3.296   5.112   2.845 -0.1676 -0.3040  0.4025
  557TIP3    H2 1678   3.221   5.166   2.965  2.0867 -0.0517  1.7504
  558TIP3   OH2 1679   2.690   3.342   2.329  0.5605  0.3154 -0.1726
  558TIP3    H1 1680   2.664   3.414   2.386  1.5936  0.5197  0.0679
  558TIP3    H2 1681   2.705   3.268   2.388 -0.7916 -0.2080 -0.4478
  559TIP3   OH2 1682   6.248   5.745   3.540 -0.2355 -0.8697 -0.2953
  559TIP3    H1 1683   6.163   5.709   3.565  1.1497 -2.4195  2.8250
  559TIP3    H2 1684   6.267   5.810   3.607  0.4196  0.6109 -1.8482
  560TIP3   OH2 1685   3.006   5.008   0.131  0.5289 -0.1231  0.9032
  560TIP3    H1 1686   3.043   4.925   0.100  1.5909 -0.1163  2.0783
  560TIP3    H2 1687   3.076   5.072   0.118 -0.4846  0.7493 -0.5462
  561TIP3   OH2 1688   0.537   3.479   1.363 -0.1899 -0.2456  0.3406
  561TIP3    H1 1689   0.482   3.469   1.440 -0.1871 -0.8803  0.2643
  561TIP3    H2 1690   0.483   3.530   1.302  0.2097  1.2267  1.1471
  562TIP3   OH2 1691   3.705   2.937   3.300 -0.8769  0.3220  0.3680
  562TIP3    H1 1692   3.636   2.982   3.349  0.1076  2.0098  0.2587
  562TIP3    H2 1693   3.682   2.950   3.208 -0.4355  0.8521  0.3322
  563TIP3   OH2 1694   2.874   1.549   3.222  0.0935 -0.5109 -0.3707
  563TIP3    H1 1695   2.883   1.597   3.140  1.0037 -0.0918 -0.0363
  563TIP3    H2 1696   2.835   1.612   3.283 -0.7313 -0.8702 -0.5170
  564TIP3   OH2 1697   4.919   2.124   0.597 -0.1394 -0.0536  0.4407
  564TIP3    H1 1698   4.828   2.127   0.567 -0.2582 -1.2894  0.6281
  564TIP3    H2 1699   4.936   2.212   0.630 -0.7142  0.6962 -1.1624
  565TIP3   OH2 1700   2.854   1.576   3.635 -0.0411 -0.4524 -0.1296
  565TIP3    H1 1701   2.783   1.574   3.700  1.1841 -0.7444  1.2663
  565TIP3    H2 1702   2.930   1.609   3.684  0.8208 -0.2645 -1.5482
  566TIP3   OH2 1703   2.636   4.376   2.475 -0.7734  0.0139 -0.1936
  566TIP3    H1 1704   2.596   4.295   2.444 -2.2073  0.3173  0.7762
  566TIP3    H2 1705   2.605   4.386   2.565 -1.1235  1.9497 -0.4857
  567TIP3   OH2 1706   4.501   0.661   3.851 -0.2563  0.4948 -0.1149
  567TIP3    H1 1707   4.464   0.739   3.892  1.4845  2.0350 -1.3653
  567TIP3    H2 1708   4.583   0.645   3.897 -0.7824 -0.8610  0.3926
  568TIP3   OH2 1709   4.457   2.867   2.584 -0.1210  0.5785 -0.3768
  568TIP3    H1 1710   4.508   2.937   2.624  2.2077 -0.5842 -1.1078
  568TIP3    H2 1711   4.424   2.903   2.502 -0.1796  1.2537 -0.0553
  569TIP3   OH2 1712   4.833   3.849   4.526  0.0920 -0.3965  0.2097
  569TIP3    H1 1713   4.864   3.940   4.527 -1.1597  0.0919 -1.0785
  569TIP3    H2 1714   4.799   3.834   4.614 -0.7724  0.7985  0.1038
  570TIP3   OH2 1715   5.246   4.782   4.397 -0.6757 -0.1158 -0.0694
  570TIP3    H1 1716   5.210   4.853   4.344  0.3205  0.4483 -0.0086
  570TIP3    H2 1717   5.180   4.713   4.392 -0.8252  0.1081 -1.6309
  571TIP3   OH2 1718   3.752   3.555   4.500 -0.1669 -0.0320 -0.3093
  571TIP3    H1 1719   3.663   3.578   4.525 -0.1032 -0.0175 -0.0967
  571TIP3    H2 1720   3.742   3.475   4.448 -0.1454 -1.1684  1.3589
  572TIP3   OH2 1721   0.949   1.864   1.252  0.5504  0.2871  0.1067
  572TIP3    H1 1722   0.888   1.923   1.296  0.0161  1.2617 -1.8491
  572TIP3    H2 1723   0.918   1.776   1.276 -1.6191  0.7420 -0.7150
  573TIP3   OH2 1724   3.404   2.245   3.134  0.8599  0.4369 -0.0269
  573TIP3    H1 1725   3.313   2.245   3.103  0.5369  0.8470  0.8742
  573TIP3    H2 1726   3.431   2.336   3.130  1.7194  0.1458 -1.5884
  574TIP3   OH2 1727   6.135   5.246   2.325 -0.5706  0.4131 -0.1493
  574TIP3    H1 1728   6.215   5.294   2.347 -0.4617  0.8614 -1.4398
  574TIP3    H2 1729   6.092   5.300   2.259 -0.7168 -0.9837 -1.2485
  575TIP3   OH2 1730   2.307   3.946   4.228  0.1473  0.4387  0.1640
  575TIP3    H1 1731   2.245   3.912   4.163 -0.4133  1.3675  0.1960
  575TIP3    H2 1732   2.340   3.868   4.272  0.7696 -0.2329 -1.4176
  576TIP3   OH2 1733   4.643   1.856   4.702 -0.6585  0.4618  0.2485
  576TIP3    H1 1734   4.677   1.831   4.617  1.2598  1.9043  0.5221
  576TIP3    H2 1735   4.566   1.910   4.683 -2.0761 -1.6885 -0.4263
  577TIP3   OH2 1736   0.105   2.794   0.087  0.0212  0.0519 -0.3637
  577TIP3    H1 1737   0.026   2.740   0.086 -1.5864  2.2605 -2.1119
  577TIP3    H2 1738   0.089   2.858   0.157  1.4123 -0.9926  0.9546
  578TIP3   OH2 1739   3.360   3.394   0.784 -0.6250  0.1411 -0.4869
  578TIP3    H1 1740   3.291   3.459   0.770 -2.1745 -0.7247  2.3587
  578TIP3    H2 1741   3.328   3.315   0.740  0.5615  0.7760 -2.6509
  579TIP3   OH2 1742   3.433   1.611   4.762 -0.4628  0.3491 -0.0632
  579TIP3    H1 1743   3.345   1.576   4.748  0.3385 -2.0601  0.5297
  579TIP3    H2 1744   3.475   1.549   4.821  0.9500  2.6257  1.5101
  580TIP3   OH2 1745   1.272   0.449   0.094  0.3806 -0.7067 -0.2881
  580TIP3    H1 1746   1.272   0.544   0.083  1.6480 -0.6900 -0.2211
  580TIP3    H2 1747   1.181   0.427   0.115  0.3410  0.6581  1.1508
  581TIP3   OH2 1748   5.509   4.092   0.555  0.2887  0.3411 -0.7361
  581TIP3    H1 1749   5.441   4.055   0.611  0.8526  0.4204  0.0192
  581TIP3    H2 1750   5.561   4.017   0.527 -0.5263  0.1876 -1.9221
  582TIP3   OH2 1751   6.195   3.086   2.159 -0.5139 -0.0091  0.1779
  582TIP3    H1 1752   6.196   3.021   2.230 -2.2898  0.4369  0.6630
  582TIP3    H2 1753   6.241   3.044   2.087  0.0085 -1.0654  1.1003
  583TIP3   OH2 1754   1.977   1.450   0.822  0.4722 -0.0556 -0.1091
  583TIP3    H1 1755   1.916   1.470   0.893  0.7274 -0.5415  0.2578
  583TIP3    H2 1756   1.926   1.398   0.760 -0.2863  1.9142 -1.2282
  584TIP3   OH2 1757   0.475   5.771   2.153  0.2696 -0.0416  0.2641
  584TIP3    H1 1758   0.462   5.795   2.061 -1.2212 -0.2858  0.3885
  584TIP3    H2 1759   0.427   5.689   2.163  1.4612 -0.6795  0.9688
  585TIP3   OH2 1760   3.193   0.624   0.821  0.0007  0.6237 -0.2495
  585TIP3    H1 1761   3.225   0.539   0.791  1.3524  1.8479 -2.4958
  585TIP3    H2 1762   3.210   0.624   0.915 -0.4070 -1.7142 -0.1121
  586TIP3   OH2 1763   4.903   5.110   2.110  0.8532  0.3600 -0.0906
  586TIP3    H1 1764   4.885   5.120   2.204  0.8996  1.3919 -0.1777
  586TIP3    H2 1765   4.986   5.064   2.106  0.3162 -0.6721  0.3619
  587TIP3   OH2 1766   3.201   2.068   1.947 -0.1023 -0.5826  0.5760
  587TIP3    H1 1767   3.220   2.066   2.041 -2.6043 -0.1303  1.1451
  587TIP3    H2 1768   3.233   2.153   1.918  0.9834 -0.8551  0.9062
  588TIP3   OH2 1769   2.465   2.612   0.758 -0.3301 -0.1827 -0.3877
  588TIP3    H1 1770   2.420   2.592   0.840  1.7050 -0.0558  0.8388
  588TIP3    H2 1771   2.439   2.542   0.698 -0.2999 -1.4329  1.0146
  589TIP3   OH2 1772   5.545   2.444   0.947 -0.5367  0.3340  0.2862
  589TIP3    H1 1773   5.597   2.389   0.888  0.6446  1.0566  0.6168
  589TIP3    H2 1774   5.575   2.533   0.929 -0.3155  0.5851  1.8173
  590TIP3   OH2 1775   0.558   1.409   4.340 -0.5578 -0.1444  0.0692
  590TIP3    H1 1776   0.568   1.324   4.298 -1.9620 -0.1157 -0.3727
  590TIP3    H2 1777   0.597   1.471   4.278  0.5957 -0.4545  0.4580
  591TIP3   OH2 1778   0.299   0.816   0.034  0.0843 -0.0466  0.5305
  591TIP3    H1 1779   0.325   0.879   0.102  0.2894  0.1993  0.2223
  591TIP3    H2 1780   0.317   0.860  -0.048 -0.7970 -0.0815  0.3030
  592TIP3   OH2 1781   5.029   1.838   1.457  0.7695  0.3290 -0.0697
  592TIP3    H1 1782   5.119   1.853   1.428  0.4684 -0.8388 -1.7189
  592TIP3    H2 1783   4.983   1.808   1.379 -1.3691  1.9977  0.4394
  593TIP3   OH2 1784   4.201   2.053   1.124  0.5180 -0.9134 -0.0762
  593TIP3    H1 1785   4.202   2.105   1.205  1.2835 -0.3186 -0.4492
  593TIP3    H2 1786   4.157   1.972   1.148 -2.3321  0.5701  0.1134
  594TIP3   OH2 1787   4.339   0.064   4.702  0.2099 -0.2272  0.5803
  594TIP3    H1 1788   4.417   0.041   4.753  1.0181 -1.6659 -1.1607
  594TIP3    H2 1789   4.271   0.004   4.733  1.4475 -3.1579 -1.7328
  595TIP3   OH2 1790   1.917   1.539   1.420  0.3445  0.0472 -0.3425
  595TIP3    H1 1791   1.861   1.615   1.437  1.3511  0.3995  1.6514
  595TIP3    H2 1792   2.006   1.574   1.417  0.9456 -1.1292  1.7313
  596TIP3   OH2 1793   2.813   3.349   5.158 -0.1972 -0.1186 -0.0927
  596TIP3    H1 1794   2.754   3.415   5.193 -0.1755 -0.3430  0.3741
  596TIP3    H2 1795   2.837   3.381   5.071  1.8847  1.8402  1.0939
  597TIP3   OH2 1796   2.881   5.892   4.677 -0.4856  0.0131  0.1414
  597TIP3    H1 1797   2.948   5.825   4.691 -0.6782 -0.1814  0.1435
  597TIP3    H2 1798   2.801   5.854   4.715 -0.6886  0.0729 -0.2257
  598TIP3   OH2 1799   3.304   5.722   1.646  0.4012 -0.2500 -0.3838
  598TIP3    H1 1800   3.343   5.807   1.626 -0.3772 -0.2255 -1.9401
  598TIP3    H2 1801   3.293   5.722   1.741 -0.1714  1.6479 -0.4142
  599TIP3   OH2 1802   3.621   2.185   5.001 -0.5238 -0.2710 -0.2290
  599TIP3    H1 1803   3.713   2.188   4.977 -0.7875  0.2835 -1.2202
  599TIP3    H2 1804   3.621   2.174   5.096  0.5498 -1.2625 -0.3206
  600TIP3   OH2 1805   0.421   3.426   4.112  0.1023  0.0446  0.2737
  600TIP3    H1 1806   0.436   3.355   4.049  1.6994  1.8285 -1.5237
  600TIP3    H2 1807   0.370   3.490   4.062  1.1659  1.3833  0.8498
  601TIP3   OH2 1808   3.026   4.591   4.551 -0.5026  0.0629 -0.5109
  601TIP3    H1 1809   3.085   4.641   4.495  0.1560  1.4048  1.3185
  601TIP3    H2 1810   2.957   4.560   4.491  0.5099  0.8756 -2.1583
  602TIP3   OH2 1811   4.477   2.867   3.906 -0.1915  0.3891 -0.4921
  602TIP3    H1 1812   4.524   2.866   3.990 -1.4959 -0.3131  0.2486
  602TIP3    H2 1813   4.523   2.934   3.855  0.8271  0.6158  0.6624
  603TIP3   OH2 1814   3.707   4.609   3.652  0.7660  0.2366  0.1728
  603TIP3    H1 1815   3.679   4.545   3.717 -2.7093 -0.4735 -1.7507
  603TIP3    H2 1816   3.652   4.686   3.669  0.5891  0.4326 -1.1783
  604TIP3   OH2 1817   3.170   0.459   3.856  0.1348 -0.3608  0.2271
  604TIP3    H1 1818   3.110   0.530   3.880 -1.3484 -0.5877 -2.4870
  604TIP3    H2 1819   3.156   0.392   3.924  0.2111  1.1289  1.7875
  605TIP3   OH2 1820   5.008   4.631   4.441  0.2470 -0.0753  0.3299
  605TIP3    H1 1821   4.983   4.642   4.533  0.2442  1.6608  0.1460
  605TIP3    H2 1822   4.931   4.659   4.392  0.4448 -0.4637 -0.2076
  606TIP3   OH2 1823   4.772   5.203   2.998 -0.0830  0.3249  0.7437
  606TIP3    H1 1824   4.809   5.156   2.923  1.4754  0.4010  1.4276
  606TIP3    H2 1825   4.742   5.134   3.057 -0.5909  0.2500  0.3992
  607TIP3   OH2 1826   4.720   0.361  -0.016  0.7530  0.3907  0.0623
  607TIP3    H1 1827   4.720   0.336   0.076  1.0204  3.6492  1.0605
  607TIP3    H2 1828   4.628   0.356  -0.043  0.4819  0.7418  0.9120
  608TIP3   OH2 1829   2.460   3.108   4.659  0.9872  0.3710 -0.0512
  608TIP3    H1 1830   2.530   3.134   4.718  0.7034  0.9972  0.0166
  608TIP3    H2 1831   2.384   3.160   4.686 -0.1988 -1.9011  1.3735
  609TIP3   OH2 1832   1.164   4.912   2.408  0.3577  0.4853 -0.5507
  609TIP3    H1 1833   1.118   4.971   2.349  0.0557  1.1952  0.3716
  609TIP3    H2 1834   1.251   4.950   2.418 -1.1002  3.4629  3.5240
  610TIP3   OH2 1835   2.869   3.166   3.240  0.2339  0.6040  0.3473
  610TIP3    H1 1836   2.957   3.197   3.263  0.5480 -2.4563  4.2019
  610TIP3    H2 1837   2.884   3.102   3.171  1.4172 -1.2072  2.1696
  611TIP3   OH2 1838   2.115   5.698   1.520 -0.2125  0.1955 -0.0865
  611TIP3    H1 1839   2.184   5.763   1.505 -1.9589  2.0517 -0.5921
  611TIP3    H2 1840   2.144   5.620   1.472  0.6382  1.5354 -1.8688
  612TIP3   OH2 1841   2.351   1.965   1.294 -0.4039  0.2968  0.1005
  612TIP3    H1 1842   2.269   1.921   1.271  0.5952 -1.8338  0.3897
  612TIP3    H2 1843   2.325   2.036   1.352 -1.9495 -1.4409  1.6699
  613TIP3   OH2 1844   6.164  -0.015   0.715  0.3200  0.1217 -0.4233
  613TIP3    H1 1845   6.139   0.072   0.747 -1.4943 -0.1982 -0.8497
  613TIP3    H2 1846   6.235   0.001   0.653  0.6838  1.1868  0.2434
  614TIP3   OH2 1847   3.798   4.356   1.586 -0.0941  0.1551 -0.4209
  614TIP3    H1 1848   3.740   4.300   1.532 -2.0979  1.5048  0.2221
  614TIP3    H2 1849   3.781   4.328   1.676 -1.4629  1.9935 -0.0464
  615TIP3   OH2 1850   3.533   2.741   0.330  0.1689 -0.2510  0.4777
  615TIP3    H1 1851   3.543   2.677   0.400  1.8145  0.2459  0.7556
  615TIP3    H2 1852   3.448   2.781   0.345 -0.5637 -1.8406  0.7299
  616TIP3   OH2 1853   3.388   2.022   0.381  0.5417  0.1596  0.3006
  616TIP3    H1 1854   3.330   1.946   0.378  1.0960 -0.2307 -1.1452
  616TIP3    H2 1855   3.340   2.087   0.433  0.3564 -1.4052  2.1935
  617TIP3   OH2 1856   1.012   4.487   0.680  0.3641  0.6493 -0.2790
  617TIP3    H1 1857   1.080   4.425   0.706 -0.4380  0.3160  1.1402
  617TIP3    H2 1858   0.989   4.462   0.591  0.8360 -0.3771 -0.1244
  618TIP3   OH2 1859   5.959   2.520   1.970  0.0519 -0.0812 -0.2054
  618TIP3    H1 1860   5.918   2.578   2.034  0.2367  0.0546 -0.2079
  618TIP3    H2 1861   6.015   2.578   1.918 -1.5051  0.1703 -1.7235
  619TIP3   OH2 1862   1.315   1.079   1.743 -0.1800 -0.3655  0.4709
  619TIP3    H1 1863   1.359   1.079   1.658 -0.2372 -0.5683  0.4403
  619TIP3    H2 1864   1.368   1.019   1.796  1.0859  1.3288  1.2225
  620TIP3   OH2 1865   2.053   4.651   3.619 -0.1238 -0.5638  0.0148
  620TIP3    H1 1866   2.082   4.680   3.532  0.4162  0.5074  0.5248
  620TIP3    H2 1867   2.068   4.557   3.619 -0.0568 -0.5628 -1.0318
  621TIP3   OH2 1868   4.130   2.638   4.630  0.9668  0.1582  0.2275
  621TIP3    H1 1869   4.185   2.616   4.555 -0.6043  2.3384 -1.6894
  621TIP3    H2 1870   4.188   2.685   4.689  1.3193  2.3998 -1.7448
  622TIP3   OH2 1871   4.571   1.900   2.187 -0.6046  0.1582  0.5799
  622TIP3    H1 1872   4.628   1.868   2.257 -0.0374  1.0230  0.5271
  622TIP3    H2 1873   4.555   1.992   2.209 -1.1724  0.1899  0.0617
  623TIP3   OH2 1874   2.669   1.814   2.184  0.2902  0.0001  0.0571
  623TIP3    H1 1875   2.622   1.818   2.100 -2.2258 -2.7903  1.1571
  623TIP3    H2 1876   2.741   1.752   2.168  1.1089  1.0489 -0.5005
  624TIP3   OH2 1877   3.774   2.417   2.715  0.2004 -0.1508  0.1771
  624TIP3    H1 1878   3.861   2.455   2.704  0.7896 -1.4545  0.2031
  624TIP3    H2 1879   3.738   2.463   2.791 -0.1075  2.0757 -1.2313
  625TIP3   OH2 1880   3.419   5.493   0.852  0.3093 -0.2187 -0.0068
  625TIP3    H1 1881   3.345   5.437   0.827  0.5763  0.0138 -1.4557
  625TIP3    H2 1882   3.490   5.464   0.795  0.8549  0.6421  0.2292
  626TIP3   OH2 1883   3.936   5.688   4.286 -0.1329  0.8620 -0.5399
  626TIP3    H1 1884   3.995   5.650   4.351  1.4666  0.5002 -2.0885
  626TIP3    H2 1885   3.867   5.622   4.274  0.8670 -0.1640 -0.8867
  627TIP3   OH2 1886   1.089   5.783   4.282 -0.5522 -0.4168  1.1353
  627TIP3    H1 1887   1.181   5.809   4.287 -1.1918  2.9345 -1.1668
  627TIP3    H2 1888   1.044   5.844   4.340 -1.6438  0.7479 -0.8128
  628TIP3   OH2 1889   2.132   3.649   0.971  0.1266  0.2813  0.1148
  628TIP3    H1 1890   2.052   3.597   0.981  0.4475 -0.3823 -0.7077
  628TIP3    H2 1891   2.201   3.585   0.954  0.9867  0.7876  1.5063
  629TIP3   OH2 1892   3.870   3.638   4.180  0.6879  0.6680  0.3134
  629TIP3    H1 1893   3.778   3.667   4.182  1.0087  1.9008 -0.9766
  629TIP3    H2 1894   3.868   3.558   4.128  0.3488  0.7351  0.2144
  630TIP3   OH2 1895   1.756   0.372   3.549  0.1457  0.5178 -0.7160
  630TIP3    H1 1896   1.706   0.370   3.467 -0.4296  2.0332 -0.4378
  630TIP3    H2 1897   1.755   0.464   3.575  0.8782  0.1602  0.6618
  631TIP3   OH2 1898   4.631   1.497   0.925  0.5658 -0.7360 -0.0746
  631TIP3    H1 1899   4.569   1.569   0.935  0.4056 -1.1250  2.3545
  631TIP3    H2 1900   4.598   1.429   0.984  2.4501 -1.5590  0.1025
  632TIP3   OH2 1901   0.414   3.250   1.797 -0.0765  0.9487  0.3915
  632TIP3    H1 1902   0.398   3.290   1.882  1.4167  1.1681  0.5809
  632TIP3    H2 1903   0.370   3.164   1.803  0.9624  0.4771  1.8010
  633TIP3   OH2 1904   0.603   0.337   3.702 -0.2001  0.3996 -0.6200
  633TIP3    H1 1905   0.612   0.307   3.793  0.3147 -0.5805 -0.9815
  633TIP3    H2 1906   0.514   0.311   3.677 -0.2538  0.4465 -0.4811
  634TIP3   OH2 1907   3.369   3.731   3.923  0.1175 -0.0875  0.0995
  634TIP3    H1 1908   3.355   3.822   3.950  2.0502  0.6864 -1.2643
  634TIP3    H2 1909   3.461   3.713   3.946  0.7992 -0.5160 -2.6231
  635TIP3   OH2 1910   0.736   5.882   0.415  0.4292  0.2146 -0.1462
  635TIP3    H1 1911   0.770   5.962   0.375  1.5258  0.3825  1.0561
  635TIP3    H2 1912   0.669   5.912   0.477  0.1065  0.1087 -0.4386
  636TIP3   OH2 1913   0.171   2.973   0.854  0.1278  0.0558 -0.0230
  636TIP3    H1 1914   0.113   2.949   0.927  0.8805 -0.7198  0.3422
  636TIP3    H2 1915   0.221   2.893   0.837  1.9493  1.0465  0.4692
  637TIP3   OH2 1916   4.926   2.464   2.985 -0.6799  0.4022 -0.0890
  637TIP3    H1 1917   4.981   2.416   2.924 -1.0379 -0.4522  0.2389
  637TIP3    H2 1918   4.848   2.487   2.935  0.2548  2.2816 -0.7756
  638TIP3   OH2 1919   2.180   3.212   0.807  0.5120 -0.1740  0.2840
  638TIP3    H1 1920   2.176   3.275   0.735 -1.2364 -0.3724  0.1433
  638TIP3    H2 1921   2.252   3.241   0.862  0.0292  1.7000 -0.0139
  639TIP3   OH2 1922   5.719   2.808   4.317  0.4083  0.2087 -0.1732
  639TIP3    H1 1923   5.729   2.837   4.226 -0.1112 -0.8378 -0.5863
  639TIP3    H2 1924   5.733   2.714   4.314 -2.7243 -0.4039  0.2316
  640TIP3   OH2 1925   0.801   5.158   3.351 -0.0421  0.0522 -0.8126
  640TIP3    H1 1926   0.859   5.232   3.371  0.4976 -0.2030 -1.3804
  640TIP3    H2 1927   0.839   5.084   3.398 -1.7639  0.5268  1.4956
  641TIP3   OH2 1928   1.848   3.389   4.992 -0.4681 -0.0664  0.4829
  641TIP3    H1 1929   1.813   3.473   4.963 -0.8976 -0.4650 -0.1795
  641TIP3    H2 1930   1.935   3.410   5.026 -0.0995  0.5025 -0.7261
  642TIP3   OH2 1931   4.019   3.580   0.477  0.3336  0.0463  0.0043
  642TIP3    H1 1932   4.013   3.670   0.446  0.3168  0.0313 -0.0369
  642TIP3    H2 1933   3.975   3.529   0.409  1.8964 -0.2008 -0.8747
  643TIP3   OH2 1934   2.208   3.769   3.722 -0.3961  0.3525 -0.4355
  643TIP3    H1 1935   2.197   3.681   3.759 -0.7271  0.0298 -1.2717
  643TIP3    H2 1936   2.119   3.799   3.705 -0.2822  0.8478 -0.1653
  644TIP3   OH2 1937   4.405   3.234   4.814  0.3751 -0.4643  0.4426
  644TIP3    H1 1938   4.336   3.282   4.768 -0.0576 -0.3573  1.1977
  644TIP3    H2 1939   4.444   3.298   4.873 -0.0322 -0.9674  1.2679
  645TIP3   OH2 1940   2.522   5.273   3.679  0.6340  0.5384 -0.4951
  645TIP3    H1 1941   2.606   5.303   3.645  0.3375  0.2567 -1.5123
  645TIP3    H2 1942   2.465   5.350   3.671  0.3709  0.2693 -1.3549
  646TIP3   OH2 1943   3.595   0.412   3.286  0.2940  0.1164  0.1360
  646TIP3    H1 1944   3.545   0.386   3.208 -0.0621 -1.3053  0.8098
  646TIP3    H2 1945   3.542   0.481   3.326  0.1558  0.4027 -0.5297
  647TIP3   OH2 1946   5.559   3.588   0.992  0.4811  0.0327 -0.1885
  647TIP3    H1 1947   5.651   3.601   1.015  0.7761 -2.5022  0.4381
  647TIP3    H2 1948   5.511   3.626   1.065  1.0242  1.0135 -0.3208
  648TIP3   OH2 1949   2.169   3.481   3.119  0.5787  0.3758 -0.0507
  648TIP3    H1 1950   2.076   3.458   3.121  0.9041 -1.0150  1.9743
  648TIP3    H2 1951   2.213   3.399   3.096  1.2947  1.3806 -2.6528
  649TIP3   OH2 1952   1.959   0.826   0.932  0.0253 -0.4519  0.3863
  649TIP3    H1 1953   2.021   0.807   0.861  0.2211  1.6337 -0.0611
  649TIP3    H2 1954   1.995   0.904   0.975 -0.4878 -1.2371  2.3276
  650TIP3   OH2 1955   4.839   2.446   3.843 -0.3067  0.3098 -0.3366
  650TIP3    H1 1956   4.873   2.518   3.791 -1.5962  0.7144 -0.6472
  650TIP3    H2 1957   4.917   2.398   3.871  0.5393  1.5422 -0.5173
  651TIP3   OH2 1958   2.281   0.675   1.233  0.8004 -0.7800  0.1603
  651TIP3    H1 1959   2.280   0.670   1.329  1.2183  0.1723  0.2284
  651TIP3    H2 1960   2.240   0.594   1.204  0.4279 -0.9576  1.1522
  652TIP3   OH2 1961   0.087   5.077   4.621  0.1490 -0.1306  0.5823
  652TIP3    H1 1962   0.158   5.123   4.575  0.0276 -1.2211 -0.7439
  652TIP3    H2 1963   0.104   5.094   4.714  2.1117 -0.2958  0.2973
  653TIP3   OH2 1964   5.183   3.959   1.739 -0.3188 -0.4974 -0.2928
  653TIP3    H1 1965   5.238   4.006   1.676  0.3144  0.4937  0.9561
  653TIP3    H2 1966   5.095   3.993   1.723  0.0106  0.5647  0.0682
  654TIP3   OH2 1967   0.084   0.971   3.368 -0.1346 -0.2117 -0.1275
  654TIP3    H1 1968   0.107   0.884   3.401  0.1551 -0.3674 -0.7347
  654TIP3    H2 1969   0.006   0.958   3.315 -0.3240 -0.0352  0.1035
  655TIP3   OH2 1970   4.825   4.692   1.449  0.5043  0.2767  0.6007
  655TIP3    H1 1971   4.800   4.618   1.504 -0.2488  0.6349  0.7574
  655TIP3    H2 1972   4.761   4.760   1.470 -1.2161 -0.2947 -2.3084
  656TIP3   OH2 1973   1.171   1.479   3.233  0.0108  0.2146 -0.1738
  656TIP3    H1 1974   1.077   1.459   3.241  0.5353 -1.8017  2.1424
  656TIP3    H2 1975   1.192   1.522   3.316  1.1642  0.6833 -0.6957
  657TIP3   OH2 1976   0.011   1.793   3.827 -0.2747  0.2228  0.4070
  657TIP3    H1 1977   0.050   1.750   3.904 -1.5880  2.0340  2.1800
  657TIP3    H2 1978   0.003   1.723   3.763  1.0362 -1.3395  1.8384
  658TIP3   OH2 1979   2.543   4.106   4.227 -0.8564  0.1583 -0.4151
  658TIP3    H1 1980   2.509   4.196   4.235  0.1581  0.3914  3.2559
  658TIP3    H2 1981   2.464   4.053   4.215 -1.3714  1.5213 -4.3402
  659TIP3   OH2 1982   5.698   1.033   0.251 -0.3711 -0.5494  0.0042
  659TIP3    H1 1983   5.747   1.098   0.301 -2.6279  0.9422  0.4356
  659TIP3    H2 1984   5.766   0.983   0.205  1.6619 -0.3994  2.5722
  660TIP3   OH2 1985   5.381   0.526   4.484  1.0049  0.4497  0.3409
  660TIP3    H1 1986   5.448   0.459   4.498  1.5297  0.5987 -1.2846
  660TIP3    H2 1987   5.368   0.565   4.571  2.6347  0.0567  0.7938
  661TIP3   OH2 1988   6.257   2.806   1.231 -0.0480 -0.2419  0.4287
  661TIP3    H1 1989   6.314   2.730   1.241 -0.6534 -0.7811 -0.1452
  661TIP3    H2 1990   6.261   2.850   1.316 -0.2544 -1.3166  1.0173
  662TIP3   OH2 1991   1.409   5.462   2.607 -0.2339  0.1654  0.3344
  662TIP3    H1 1992   1.373   5.386   2.561  1.7967 -0.4358 -0.3645
  662TIP3    H2 1993   1.332   5.508   2.640 -1.7716 -0.0625 -2.5594
  663TIP3   OH2 1994   5.346   5.617   0.358  0.8930 -0.4479  0.3481
  663TIP3    H1 1995   5.271   5.586   0.307  0.7064 -1.8772  1.4369
  663TIP3    H2 1996   5.397   5.668   0.296 -1.9417  2.3394  0.0142
  664TIP3   OH2 1997   2.808   0.947   4.717 -0.3560 -0.5660  0.4236
  664TIP3    H1 1998   2.855   0.979   4.640 -1.1062 -3.0437 -1.2037
  664TIP3    H2 1999   2.876   0.918   4.777  0.2776 -1.7218 -0.7969
  665TIP3   OH2 2000   2.353   3.509   0.428 -0.0679  0.3872  0.2930
  665TIP3    H1 2001   2.301   3.562   0.369  1.8286  2.6010  0.4522
  665TIP3    H2 2002   2.366   3.564   0.505  2.5299  0.0439  0.2013
  666TIP3   OH2 2003   5.788   1.211   1.085 -0.0640  0.5674 -0.0692
  666TIP3    H1 2004   5.817   1.201   0.994  0.4674 -0.6232  0.2196
  666TIP3    H2 2005   5.694   1.195   1.082  0.2038 -1.0981 -0.1754
  667TIP3   OH2 2006   4.049   5.355   3.775  0.6020 -0.1856 -0.2598
  667TIP3    H1 2007   4.102   5.382   3.849  0.9993 -0.1971 -0.5395
  667TIP3    H2 2008   4.110   5.348   3.702 -0.0236  1.3668 -0.9883
  668TIP3   OH2 2009   4.107   5.350   2.732 -0.6824 -0.4278 -0.5706
  668TIP3    H1 2010   4.070   5.268   2.699 -1.2981  0.0546 -1.0892
  668TIP3    H2 2011   4.032   5.399   2.765 -0.7120  1.0333 -2.6248
  669TIP3   OH2 2012   3.302   5.330   3.315  0.0137  0.2335  0.2168
  669TIP3    H1 2013   3.315   5.267   3.243 -2.4264 -0.0225 -0.0732
  669TIP3    H2 2014   3.297   5.276   3.394 -1.8545  0.0253 -0.0058
  670TIP3   OH2 2015   4.446   1.211   2.092 -0.3228  0.1888  0.1493
  670TIP3    H1 2016   4.445   1.298   2.053 -0.6856  0.5088  0.8651
  670TIP3    H2 2017   4.371   1.210   2.151 -0.1024 -0.4794  0.4257
  671TIP3   OH2 2018   2.424   0.849   3.575  0.3535  0.1235  0.0841
  671TIP3    H1 2019   2.464   0.934   3.556  0.4542  0.2047  0.6556
  671TIP3    H2 2020   2.454   0.792   3.505 -1.4286  1.0852 -1.5647
  672TIP3   OH2 2021   5.749   1.211   2.912  0.1561 -0.4037 -0.2230
  672TIP3    H1 2022   5.746   1.296   2.867  0.1252  0.0817  0.6644
  672TIP3    H2 2023   5.657   1.190   2.928  0.1989  0.0087  0.6457
  673TIP3   OH2 2024   3.662   0.852   1.626 -0.2698  0.1319 -0.0081
  673TIP3    H1 2025   3.584   0.905   1.611  0.8004  1.7683  0.0382
  673TIP3    H2 2026   3.690   0.874   1.715 -0.6187 -1.6455  0.5922
  674TIP3   OH2 2027   2.927   4.435   3.402  0.0315  0.0660 -0.0344
  674TIP3    H1 2028   2.958   4.376   3.471 -0.5881 -0.2934 -0.0622
  674TIP3    H2 2029   2.834   4.417   3.395 -0.5360  2.1727  1.0757
  675TIP3   OH2 2030   2.343   2.361   2.616 -0.7576 -0.0800  0.1890
  675TIP3    H1 2031   2.355   2.276   2.658 -1.8487 -1.1506 -1.5479
  675TIP3    H2 2032   2.305   2.341   2.530  1.1693  1.9889 -1.2874
  676TIP3   OH2 2033   2.409   5.661   4.205 -0.2759  0.5766  0.2034
  676TIP3    H1 2034   2.359   5.603   4.262  0.3104  0.5479  0.7029
  676TIP3    H2 2035   2.494   5.668   4.247  0.4820 -0.1626 -1.1374
  677TIP3   OH2 2036   3.086   2.252   3.115  0.6637 -0.9814 -0.7454
  677TIP3    H1 2037   3.008   2.295   3.080  1.4250 -0.7995 -2.3077
  677TIP3    H2 2038   3.070   2.159   3.101 -0.1829 -1.1361  0.9511
  678TIP3   OH2 2039   3.283   0.162   3.788 -0.1219 -0.3077 -0.2829
  678TIP3    H1 2040   3.359   0.109   3.814  1.7239  1.7665 -1.1206
  678TIP3    H2 2041   3.235   0.177   3.869  0.1642 -1.8980  0.2283
  679TIP3   OH2 2042   1.003   0.927   4.539 -0.5197 -0.3327  0.1738
  679TIP3    H1 2043   0.959   0.877   4.471  0.7523  0.7128 -1.5251
  679TIP3    H2 2044   1.043   0.862   4.596 -2.6009 -1.2515  0.6680
  680TIP3   OH2 2045   3.687   0.831   4.174 -0.1005 -0.0739 -0.0341
  680TIP3    H1 2046   3.782   0.824   4.186 -0.1039 -1.2813 -0.6049
  680TIP3    H2 2047   3.668   0.773   4.100 -1.1688  0.8537 -0.5115
  681TIP3   OH2 2048   4.713   4.272   4.852 -0.2819 -0.3751  0.0418
  681TIP3    H1 2049   4.733   4.236   4.938  0.1281 -1.7683 -0.6129
  681TIP3    H2 2050   4.701   4.366   4.868  1.7676 -0.2696  1.2877
  682TIP3   OH2 2051   5.625   4.310   4.599  0.5790  0.0922 -0.1451
  682TIP3    H1 2052   5.669   4.389   4.631  0.3864 -0.6772  2.2204
  682TIP3    H2 2053   5.545   4.343   4.557  0.5653  1.1943  0.6724
  683TIP3   OH2 2054   1.115   2.149   1.975 -0.6641 -0.1856 -0.3335
  683TIP3    H1 2055   1.053   2.077   1.960 -0.5800 -1.3908  3.9145
  683TIP3    H2 2056   1.200   2.106   1.985 -0.2307  0.7534  0.0986
  684TIP3   OH2 2057   5.789   1.881   1.902 -0.3334  0.5887  0.0025
  684TIP3    H1 2058   5.732   1.957   1.908 -0.1911  0.6382  1.1033
  684TIP3    H2 2059   5.822   1.869   1.992 -0.1314 -0.5872 -0.2075
  685TIP3   OH2 2060   3.117   0.936   0.585  0.9831 -0.3858 -0.2456
  685TIP3    H1 2061   3.171   0.879   0.530  0.2603 -0.7340 -0.6052
  685TIP3    H2 2062   3.142   1.025   0.558  1.4588 -0.5378 -0.3208
  686TIP3   OH2 2063   4.815   4.976   1.621  0.0940  0.3209  0.0634
  686TIP3    H1 2064   4.763   5.043   1.666  0.3758  0.0986  0.7378
  686TIP3    H2 2065   4.821   5.007   1.531 -0.4102  0.8255  0.1949
  687TIP3   OH2 2066   4.186   3.570   4.115  0.0556  0.0100 -0.0581
  687TIP3    H1 2067   4.198   3.576   4.210 -2.8860 -0.0120  0.4224
  687TIP3    H2 2068   4.129   3.644   4.094  0.3301 -0.2331 -1.7509
  688TIP3   OH2 2069   5.057   4.742   0.216 -0.1196  0.3598 -0.1638
  688TIP3    H1 2070   4.999   4.702   0.281  0.1420 -0.3054 -0.3247
  688TIP3    H2 2071   5.107   4.807   0.264 -0.7339  0.6744  0.0547
  689TIP3   OH2 2072   4.477   3.031   0.815 -0.0561 -0.2687  0.2061
  689TIP3    H1 2073   4.449   3.024   0.906  0.6823 -0.1511  0.4518
  689TIP3    H2 2074   4.512   3.120   0.808 -0.7040 -0.0491 -0.3700
  690TIP3   OH2 2075   2.454   0.604   5.064 -0.4558 -0.4997  0.1898
  690TIP3    H1 2076   2.532   0.583   5.116 -0.1887 -1.4840 -0.5833
  690TIP3    H2 2077   2.489   0.636   4.981 -0.8342 -2.0302 -0.5944
  691TIP3   OH2 2078   1.555   0.064   1.654  0.0377 -0.5237  0.2812
  691TIP3    H1 2079   1.479   0.048   1.710  1.4962 -3.6232  1.6278
  691TIP3    H2 2080   1.630   0.061   1.714  1.3940  0.2104 -1.2840
  692TIP3   OH2 2081   6.111   5.633   0.910  0.4379  0.5573 -0.2603
  692TIP3    H1 2082   6.202   5.628   0.938  0.5676 -0.1622 -0.8058
  692TIP3    H2 2083   6.113   5.681   0.828  0.2217  1.3134  0.1663
  693TIP3   OH2 2084   2.935   5.817   3.602  0.3169  0.1774  0.0000
  693TIP3    H1 2085   3.024   5.800   3.573  0.8545 -0.2800  1.7813
  693TIP3    H2 2086   2.903   5.732   3.633 -0.9036  0.2496 -0.9652
  694TIP3   OH2 2087   3.757   1.242   1.806  0.5627  0.0479 -0.1392
  694TIP3    H1 2088   3.836   1.296   1.797  0.9724 -0.4694  0.2407
  694TIP3    H2 2089   3.685   1.299   1.779  0.6408  1.6940  2.6990
  695TIP3   OH2 2090   5.965   0.967   2.045 -0.0324 -0.6953 -0.4229
  695TIP3    H1 2091   6.027   0.939   2.112  1.3156  0.7273 -1.0148
  695TIP3    H2 2092   5.967   1.063   2.049 -0.7724 -0.6030 -1.7285
  696TIP3   OH2 2093   4.263   1.491   1.631  0.9325  0.5796 -0.3694
  696TIP3    H1 2094   4.342   1.446   1.601  0.1241 -0.4322 -1.0335
  696TIP3    H2 2095   4.196   1.467   1.567 -0.7477 -1.2865  1.8833
  697TIP3   OH2 2096   2.789   4.842   4.424  0.6022  0.1013 -0.1757
  697TIP3    H1 2097   2.853   4.856   4.353 -0.2543 -0.4487 -1.0929
  697TIP3    H2 2098   2.840   4.849   4.504  1.1438  3.6030 -0.6588
  698TIP3   OH2 2099   4.462   3.426   0.451 -0.5494  0.4179 -0.2716
  698TIP3    H1 2100   4.418   3.443   0.367 -0.0806 -2.3738 -1.1874
  698TIP3    H2 2101   4.395   3.389   0.507 -0.1442 -0.7819 -0.5575
  699TIP3   OH2 2102   1.571   1.870   1.165  0.3386  0.3557 -0.3319
  699TIP3    H1 2103   1.537   1.838   1.248  0.7989  0.3634 -0.1404
  699TIP3    H2 2104   1.615   1.794   1.126 -1.2608 -0.1175 -1.3243
  700TIP3   OH2 2105   5.673   0.596   3.907 -0.3705 -0.5917 -0.4973
  700TIP3    H1 2106   5.626   0.601   3.991  0.6406 -0.1758  0.0670
  700TIP3    H2 2107   5.745   0.535   3.924  0.9110  0.8665 -0.4984
  701TIP3   OH2 2108   3.388   3.465   3.765 -0.2605 -0.0049  0.0291
  701TIP3    H1 2109   3.442   3.477   3.687 -0.8480 -1.3728 -0.6255
  701TIP3    H2 2110   3.371   3.554   3.796  0.2005  0.5584 -1.2532
  702TIP3   OH2 2111   0.609   2.838   4.486 -0.4445  0.1951 -0.2992
  702TIP3    H1 2112   0.685   2.876   4.529  1.0690 -2.0527 -0.7771
  702TIP3    H2 2113   0.592   2.895   4.411  0.6006  0.9007 -0.0123
  703TIP3   OH2 2114   2.504   5.513   0.424  0.2837  0.0562 -0.1590
  703TIP3    H1 2115   2.542   5.525   0.510 -0.7703  0.4098  0.2759
  703TIP3    H2 2116   2.484   5.601   0.393 -0.3153 -0.1263 -0.3063
  704TIP3   OH2 2117   2.085   3.506   3.394  0.0669  0.0443  0.5000
  704TIP3    H1 2118   2.101   3.417   3.424  0.6991  0.1277  0.4352
  704TIP3    H2 2119   2.156   3.523   3.331 -1.2677 -0.1775 -1.1465
  705TIP3   OH2 2120   0.121   4.173   1.154  0.1959 -0.7890  0.2576
  705TIP3    H1 2121   0.042   4.223   1.134  1.0003 -0.0922 -1.2769
  705TIP3    H2 2122   0.095   4.117   1.228 -1.0670  1.0162  1.2649
  706TIP3   OH2 2123   4.386   5.286   1.655 -0.3078  0.1003 -0.0519
  706TIP3    H1 2124   4.370   5.253   1.567 -0.3862  0.6526 -0.2527
  706TIP3    H2 2125   4.327   5.237   1.711  0.5705 -1.0939 -0.1277
  707TIP3   OH2 2126   4.053   3.132   3.496  0.3470  0.0662 -0.5231
  707TIP3    H1 2127   4.037   3.226   3.488 -0.7861 -0.1247 -0.6070
  707TIP3    H2 2128   4.012   3.106   3.578  1.6626 -0.1598  0.0846
  708TIP3   OH2 2129   0.739   2.725   4.180  0.0765  0.2701 -0.7099
  708TIP3    H1 2130   0.812   2.674   4.146  0.1904 -0.5886  0.7483
  708TIP3    H2 2131   0.778   2.808   4.207  0.4278  0.0181 -0.4323
  709TIP3   OH2 2132   1.014   0.471   1.061 -0.3372  0.2267  0.8413
  709TIP3    H1 2133   1.012   0.523   1.142 -1.7629 -0.7929  1.5023
  709TIP3    H2 2134   0.936   0.416   1.066  0.0823 -0.5724 -0.7768
  710TIP3   OH2 2135   0.905   2.927   4.294 -0.9416 -0.2536 -0.1077
  710TIP3    H1 2136   0.963   2.999   4.270  2.3483 -3.1094 -1.6985
  710TIP3    H2 2137   0.921   2.913   4.387 -1.3348  0.7890  0.1262
  711TIP3   OH2 2138   4.053   3.064   4.495 -0.4228  0.0141  0.1261
  711TIP3    H1 2139   4.064   3.153   4.462 -0.3600 -0.0039  0.0986
  711TIP3    H2 2140   3.978   3.070   4.554  0.1093  0.2677  0.7887
  712TIP3   OH2 2141   0.703   3.941   3.708 -0.0494  0.4672  0.2619
  712TIP3    H1 2142   0.773   4.005   3.694 -0.3653  0.7724  0.0810
  712TIP3    H2 2143   0.711   3.917   3.800 -1.0454  2.0825  0.7859
  713TIP3   OH2 2144   2.525   1.990   1.682 -0.3334 -0.2981  0.6714
  713TIP3    H1 2145   2.454   1.948   1.730 -1.3130  0.4631 -0.0637
  713TIP3    H2 2146   2.550   1.926   1.615 -2.1696  0.4067 -0.7797
  714TIP3   OH2 2147   5.735   5.234   2.499 -0.7839  0.0352 -0.3118
  714TIP3    H1 2148   5.782   5.195   2.573 -0.5897  1.9870  0.6729
  714TIP3    H2 2149   5.785   5.207   2.422  1.6426  1.4715  0.6410
  715TIP3   OH2 2150   5.201   2.329   1.461 -0.3060 -0.6874  0.1038
  715TIP3    H1 2151   5.111   2.363   1.466 -0.6415 -1.6191  0.6653
  715TIP3    H2 2152   5.209   2.272   1.537  0.7417 -0.6840  0.0073
  716TIP3   OH2 2153   3.622   0.377   1.080 -0.2134 -0.3843 -0.1309
  716TIP3    H1 2154   3.571   0.318   1.025 -1.0532  0.2674 -0.0645
  716TIP3    H2 2155   3.574   0.459   1.079 -1.0292 -0.7079  2.6473
  717TIP3   OH2 2156   5.480   5.685   3.533  1.0505  0.0653 -0.4637
  717TIP3    H1 2157   5.522   5.624   3.473  2.3335  0.3997  0.0438
  717TIP3    H2 2158   5.493   5.771   3.492  0.5287  0.1385 -0.4787
  718TIP3   OH2 2159   5.720   1.368   0.366  0.1106  0.0978  0.4337
  718TIP3    H1 2160   5.753   1.346   0.278 -0.7089  0.3916  0.0446
  718TIP3    H2 2161   5.783   1.327   0.425  0.5610 -0.2924 -0.2882
  719TIP3   OH2 2162   6.239   0.327   4.275 -0.0094 -0.3823 -0.3891
  719TIP3    H1 2163   6.228   0.263   4.205 -0.5876  0.0425 -0.7026
  719TIP3    H2 2164   6.254   0.275   4.353 -1.9807 -0.9845 -0.3604
  720TIP3   OH2 2165   3.474   1.809   1.590 -1.1141  0.3060  0.2903
  720TIP3    H1 2166   3.432   1.736   1.636 -1.2724 -0.2844 -0.7436
  720TIP3    H2 2167   3.494   1.774   1.503  3.0032  0.0126  1.1615
  721TIP3   OH2 2168   4.066   2.933   0.695  0.7590  0.2806  0.2055
  721TIP3    H1 2169   4.121   2.856   0.677  0.4599  0.1573 -0.2130
  721TIP3    H2 2170   3.992   2.898   0.746 -1.4349 -0.5126 -3.1839
  722TIP3   OH2 2171   1.640   5.160   2.495 -0.8438 -0.1633 -0.2001
  722TIP3    H1 2172   1.718   5.140   2.444  0.1282  1.8314  0.4038
  722TIP3    H2 2173   1.628   5.255   2.486 -3.9813 -0.5560 -1.3164
  723TIP3   OH2 2174   3.426   1.731   4.156  0.2757 -0.0235 -1.0638
  723TIP3    H1 2175   3.391   1.806   4.205 -1.0571 -0.7974 -0.7664
  723TIP3    H2 2176   3.405   1.655   4.211  1.4810 -0.6331 -1.4183
  724TIP3   OH2 2177   5.766   4.235   2.014 -0.0507  0.1184 -0.1310
  724TIP3    H1 2178   5.726   4.278   2.090  1.1156  1.3660 -0.1826
  724TIP3    H2 2179   5.764   4.142   2.035 -2.1256  0.1964  0.2537
  725TIP3   OH2 2180   3.540   2.276   0.201 -0.4052 -0.0783 -0.1100
  725TIP3    H1 2181   3.573   2.186   0.197 -0.3051 -0.0266 -0.4531
  725TIP3    H2 2182   3.473   2.273   0.269  0.5648 -0.1058  0.8778
  726TIP3   OH2 2183   0.120   4.728   0.179  0.0310  0.1316  0.4124
  726TIP3    H1 2184   0.171   4.690   0.250 -0.1487  1.6048  1.3667
  726TIP3    H2 2185   0.117   4.659   0.112  1.2827 -0.8155  1.2865
  727TIP3   OH2 2186   0.952   4.198   1.025  0.1871 -0.0187  0.1380
  727TIP3    H1 2187   1.046   4.192   1.045 -0.3509 -1.4141  2.7622
  727TIP3    H2 2188   0.925   4.280   1.066  0.4532  1.1303 -1.8680
  728TIP3   OH2 2189   3.481   3.696   5.087 -0.2901 -0.3949 -0.0735
  728TIP3    H1 2190   3.399   3.699   5.136  0.5453  0.1090  1.3489
  728TIP3    H2 2191   3.549   3.705   5.153  1.0072 -2.3511 -1.0435
  729TIP3   OH2 2192   0.731   1.396   2.822 -0.3590 -0.1505  0.2703
  729TIP3    H1 2193   0.774   1.414   2.738 -1.8907  0.2413 -0.4535
  729TIP3    H2 2194   0.732   1.300   2.829  0.5762 -0.1566  0.2628
  730TIP3   OH2 2195   3.375   0.060   1.354 -0.2361  0.1179  0.3367
  730TIP3    H1 2196   3.295   0.032   1.310 -0.0347 -0.9897  0.6326
  730TIP3    H2 2197   3.354   0.055   1.447  0.3141 -0.6909  0.4326
  731TIP3   OH2 2198   1.475   5.183   0.859  0.2531  0.1473 -0.2952
  731TIP3    H1 2199   1.493   5.109   0.800 -1.4118  0.5544 -1.3703
  731TIP3    H2 2200   1.562   5.213   0.886  1.0194 -1.0028 -1.3534
  732TIP3   OH2 2201   1.385   1.679   4.522  0.1867 -0.3642 -0.2609
  732TIP3    H1 2202   1.293   1.701   4.534 -0.1398 -1.4486 -0.6710
  732TIP3    H2 2203   1.389   1.584   4.531  1.0837 -0.4560 -1.3449
  733TIP3   OH2 2204   4.215   5.629   4.676 -0.2583  0.2508  0.7117
  733TIP3    H1 2205   4.299   5.622   4.721  0.8870  0.8044 -1.1896
  733TIP3    H2 2206   4.186   5.718   4.692 -0.6350 -0.0200  1.5876
  734TIP3   OH2 2207   1.497   3.118   3.194  0.0473  0.5939  0.1880
  734TIP3    H1 2208   1.502   3.023   3.208  0.2985  0.5693 -0.0511
  734TIP3    H2 2209   1.418   3.145   3.240 -0.2909  0.1895 -0.1474
  735TIP3   OH2 2210   1.805   1.197   4.915  0.1643  0.3771 -0.8488
  735TIP3    H1 2211   1.823   1.106   4.891 -0.8643 -0.2744  0.6765
  735TIP3    H2 2212   1.800   1.244   4.831  0.9907 -0.8969 -1.6456
  736TIP3   OH2 2213   4.285   5.187   4.133  0.6675 -0.1427  0.0336
  736TIP3    H1 2214   4.354   5.123   4.114 -0.3234 -1.9811  2.1200
  736TIP3    H2 2215   4.208   5.153   4.087  0.2974 -0.1116  0.6199
  737TIP3   OH2 2216   2.472   2.441   5.011  0.1554  0.0505  0.3304
  737TIP3    H1 2217   2.513   2.469   4.930  0.0720  0.3075  0.3744
  737TIP3    H2 2218   2.507   2.501   5.078  1.7446 -1.3784  0.8515
  738TIP3   OH2 2219   3.225   5.131   2.184 -0.2430  0.1546  0.2348
  738TIP3    H1 2220   3.227   5.055   2.242 -0.8385 -0.1884 -0.1768
  738TIP3    H2 2221   3.134   5.135   2.154  0.0992  0.1979 -0.8235
  739TIP3   OH2 2222   2.561   5.007   3.553 -0.0416  0.3343 -0.1077
  739TIP3    H1 2223   2.593   4.952   3.625  0.2578  1.2312  0.4681
  739TIP3    H2 2224   2.562   5.096   3.589 -3.5373  0.4139  0.0685
  740TIP3   OH2 2225   3.075   2.599   3.573  0.7032 -0.3697  0.4824
  740TIP3    H1 2226   3.148   2.617   3.514  1.4840 -0.1070  1.5094
  740TIP3    H2 2227   3.089   2.510   3.603 -0.2076 -0.8399 -0.4233
  741TIP3   OH2 2228   4.763   1.816   4.444 -0.4679  0.1989  0.5882
  741TIP3    H1 2229   4.805   1.901   4.457  1.8041 -0.9640  1.5252
  741TIP3    H2 2230   4.780   1.795   4.352  1.6825 -0.5138  1.0931
  742TIP3   OH2 2231   5.273   2.132   1.234  0.7347 -0.1418  0.7465
  742TIP3    H1 2232   5.340   2.108   1.297  0.7752  1.8377  1.5310
  742TIP3    H2 2233   5.209   2.183   1.284 -0.9107 -1.2031 -0.1695
  743TIP3   OH2 2234   1.672   2.968   0.325 -0.3344  0.1722  0.0883
  743TIP3    H1 2235   1.666   2.938   0.415 -0.1984  0.3229  0.1487
  743TIP3    H2 2236   1.756   2.935   0.294 -0.1661  0.5153  0.1678
  744TIP3   OH2 2237   0.555   5.702   0.125  0.2851 -0.0289 -0.2364
  744TIP3    H1 2238   0.476   5.649   0.137 -1.0345  2.2184  2.0168
  744TIP3    H2 2239   0.612   5.678   0.199  0.7376 -0.0332 -0.5815
  745TIP3   OH2 2240   3.247   3.811   4.848 -0.1854  0.0582  0.5836
  745TIP3    H1 2241   3.272   3.770   4.930 -1.5031 -0.0134  0.9716
  745TIP3    H2 2242   3.183   3.751   4.809 -0.7087  0.8161  0.2429
  746TIP3   OH2 2243   1.029   5.091   2.248 -0.1955  0.0950 -0.8627
  746TIP3    H1 2244   1.037   5.178   2.211 -0.3294  0.7711  0.6283
  746TIP3    H2 2245   0.940   5.063   2.225 -0.0839  0.2543 -1.5053
  747TIP3   OH2 2246   1.189   3.706   4.853  0.5338  0.2423 -0.5691
  747TIP3    H1 2247   1.255   3.642   4.829  0.6589  0.4671 -0.8252
  747TIP3    H2 2248   1.114   3.687   4.797  0.6693  0.4907 -0.8384
  748TIP3   OH2 2249   3.346   4.561   0.978  0.3153 -0.1428  0.1880
  748TIP3    H1 2250   3.283   4.631   0.960  2.1133  1.5335  0.0509
  748TIP3    H2 2251   3.313   4.519   1.058 -0.1893  1.7056  1.0111
  749TIP3   OH2 2252   4.739   0.916   1.800  0.1972  0.2131 -0.0620
  749TIP3    H1 2253   4.771   0.905   1.890  2.0938 -3.7942 -0.9886
  749TIP3    H2 2254   4.657   0.866   1.797  0.5353 -0.3245 -0.6935
  750TIP3   OH2 2255   3.246   5.240   3.601  0.2288  0.3739  0.1613
  750TIP3    H1 2256   3.189   5.255   3.677  2.0014  1.3402  1.3972
  750TIP3    H2 2257   3.331   5.216   3.640  1.0048  0.2259 -1.5473
  751TIP3   OH2 2258   2.290   1.744   0.328  0.3489  0.0165  0.0281
  751TIP3    H1 2259   2.301   1.650   0.341  0.1508 -0.0581 -0.3049
  751TIP3    H2 2260   2.378   1.778   0.314  0.3494 -0.2462 -0.6317
  752TIP3   OH2 2261   2.068   4.624   1.509  0.8038 -0.1172  0.3420
  752TIP3    H1 2262   1.989   4.596   1.463  0.9503  0.2394 -0.1228
  752TIP3    H2 2263   2.048   4.608   1.602 -0.3291  1.2252  0.3630
  753TIP3   OH2 2264   5.734   0.835   0.948 -0.1765  0.2316 -0.4014
  753TIP3    H1 2265   5.772   0.802   1.029 -0.3416 -1.1372 -0.8541
  753TIP3    H2 2266   5.790   0.908   0.923  1.8601 -1.3366 -0.7255
  754TIP3   OH2 2267   2.660   3.757   4.151 -0.1658 -0.1731 -0.3669
  754TIP3    H1 2268   2.591   3.769   4.217  0.5964  0.0082  0.4215
  754TIP3    H2 2269   2.617   3.773   4.068 -0.9510  0.5005  0.1490
  755TIP3   OH2 2270   4.669   6.003   1.335  0.7869 -0.6129 -0.2337
  755TIP3    H1 2271   4.676   5.949   1.413  0.9395 -0.7015 -0.3085
  755TIP3    H2 2272   4.751   5.989   1.288  1.6248  1.0590  0.6448
  756TIP3   OH2 2273   5.516   0.287   4.575  0.7431 -0.1905  0.2392
  756TIP3    H1 2274   5.499   0.199   4.610  0.5753 -0.4588 -0.4980
  756TIP3    H2 2275   5.536   0.340   4.652  1.3328 -0.9880  0.6463
  757TIP3   OH2 2276   1.372   3.549   4.673 -0.4246 -0.2423  0.1426
  757TIP3    H1 2277   1.332   3.462   4.674 -0.6179 -0.1734 -0.6889
  757TIP3    H2 2278   1.353   3.583   4.585 -1.7485  1.3020  0.9711
  758TIP3   OH2 2279   0.642   5.071   1.274 -0.0620  0.0766  0.4615
  758TIP3    H1 2280   0.570   5.116   1.317 -1.8859 -0.4725 -1.7725
  758TIP3    H2 2281   0.717   5.129   1.285 -0.7936  0.6913  2.8469
  759TIP3   OH2 2282   2.661   2.214   4.186  0.5659  0.1051  0.0461
  759TIP3    H1 2283   2.573   2.239   4.213  0.0205  0.3178 -1.7572
  759TIP3    H2 2284   2.663   2.119   4.195  0.0976  0.0869 -0.0450
  760TIP3   OH2 2285   3.926   2.227   4.433 -0.0179  0.0413 -0.4228
  760TIP3    H1 2286   3.852   2.250   4.377 -0.5363 -1.6320 -0.5024
  760TIP3    H2 2287   3.890   2.162   4.494  0.9000  0.7075  0.8940
  761TIP3   OH2 2288   5.037   3.676   4.896 -0.7474 -0.1063  0.1324
  761TIP3    H1 2289   4.992   3.760   4.885 -2.8472 -1.1548  0.3615
  761TIP3    H2 2290   5.004   3.641   4.978  0.3165 -1.0414  0.1845
  762TIP3   OH2 2291   0.905   4.990   1.654  0.4771 -0.0761  0.2172
  762TIP3    H1 2292   0.892   4.918   1.716 -0.0133 -0.3145 -0.1548
  762TIP3    H2 2293   0.998   5.010   1.659  0.5120 -0.3620  0.7361
  763TIP3   OH2 2294   3.958   2.636   2.630  0.3444 -0.4500  0.7042
  763TIP3    H1 2295   4.041   2.675   2.603 -0.2075  0.0224 -0.3670
  763TIP3    H2 2296   3.970   2.618   2.723  0.4413  2.9028  1.4735
  764TIP3   OH2 2297   4.503   3.882   0.850 -0.3377  0.0134 -0.3184
  764TIP3    H1 2298   4.561   3.916   0.918 -0.5798  1.1214 -0.6405
  764TIP3    H2 2299   4.539   3.917   0.769 -2.2236  1.9382 -0.4176
  765TIP3   OH2 2300   3.173   4.530   1.892  1.0927 -0.4736  0.4189
  765TIP3    H1 2301   3.137   4.441   1.898  0.1359 -0.3317 -2.1085
  765TIP3    H2 2302   3.109   4.578   1.840  2.0785  1.4654  0.9080
  766TIP3   OH2 2303   5.510   0.681   4.116  0.3161  0.0679  0.0645
  766TIP3    H1 2304   5.466   0.600   4.139  0.3779  0.0701  0.1880
  766TIP3    H2 2305   5.440   0.740   4.088  0.4176 -0.5816 -1.6879
  767TIP3   OH2 2306   3.765   3.318   3.000 -0.2626 -0.5403 -0.3298
  767TIP3    H1 2307   3.826   3.344   3.069  0.1994 -2.1268 -0.1008
  767TIP3    H2 2308   3.682   3.358   3.026 -0.6012 -2.6032  2.2683
  768TIP3   OH2 2309   2.150   1.304   0.946  0.0607 -0.2087  0.3968
  768TIP3    H1 2310   2.230   1.294   0.893 -0.0391 -2.5408  0.5719
  768TIP3    H2 2311   2.091   1.355   0.890  1.0861  0.1450 -0.4080
  769TIP3   OH2 2312   1.111   1.256   3.927  0.0189 -0.1539  0.0470
  769TIP3    H1 2313   1.133   1.214   4.010 -1.1088 -2.1251 -0.5866
  769TIP3    H2 2314   1.134   1.191   3.861  0.4774  1.2078 -1.1752
  770TIP3   OH2 2315   1.427   0.270   2.378 -0.9683  0.3560  0.0636
  770TIP3    H1 2316   1.489   0.332   2.341  0.5777 -0.5309  1.0843
  770TIP3    H2 2317   1.402   0.214   2.304  0.8786 -0.4197 -0.0217
  771TIP3   OH2 2318   0.735   1.714   3.251 -0.0121 -0.8058 -0.2352
  771TIP3    H1 2319   0.745   1.798   3.206  0.2910 -1.5607 -1.6270
  771TIP3    H2 2320   0.729   1.650   3.180  0.8636 -2.0872  0.8218
  772TIP3   OH2 2321   2.078   4.962   0.102 -0.1246 -0.2987 -0.0313
  772TIP3    H1 2322   2.005   5.017   0.130 -0.8786 -0.4344 -1.6598
  772TIP3    H2 2323   2.115   4.928   0.184  0.6119  2.8603  1.1237
  773TIP3   OH2 2324   2.635   3.295   2.034 -0.1201  0.0413  0.5557
  773TIP3    H1 2325   2.639   3.285   2.129 -1.2253  2.0923  0.8935
  773TIP3    H2 2326   2.641   3.390   2.020  1.8763 -0.3117 -1.5702
  774TIP3   OH2 2327   5.154   0.801   4.651 -0.2508 -0.2102  0.1789
  774TIP3    H1 2328   5.197   0.718   4.673  2.4594  0.9536 -0.2969
  774TIP3    H2 2329   5.184   0.861   4.719 -2.4340  0.3569  0.6953
  775TIP3   OH2 2330   1.241   3.310   4.678  0.2340  0.1185  0.1508
  775TIP3    H1 2331   1.274   3.253   4.747  2.2913  1.0100 -0.0318
  775TIP3    H2 2332   1.288   3.282   4.599 -0.0672  0.8737 -0.3115
  776TIP3   OH2 2333   5.037   5.585   1.793 -0.3192 -0.3098 -0.1224
  776TIP3    H1 2334   4.989   5.655   1.837  0.7796  0.9576 -0.8738
  776TIP3    H2 2335   5.062   5.622   1.709  1.8066 -0.9430  0.1672
  777TIP3   OH2 2336   1.593   2.031   4.621 -0.0729 -0.6914 -0.4915
  777TIP3    H1 2337   1.527   1.994   4.563  1.0753 -1.3455 -1.4271
  777TIP3    H2 2338   1.670   1.976   4.608  0.9634  0.6267 -0.1563
  778TIP3   OH2 2339   2.937   3.025   0.583 -0.3847  0.0867  0.3807
  778TIP3    H1 2340   2.946   2.959   0.514 -2.0752  0.5066 -0.2704
  778TIP3    H2 2341   2.980   3.103   0.548 -0.5269  0.0579  0.1423
  779TIP3   OH2 2342   2.281   5.717   2.295  0.2301 -0.1317 -0.3949
  779TIP3    H1 2343   2.270   5.808   2.269 -0.7436 -0.1856 -0.1847
  779TIP3    H2 2344   2.268   5.717   2.390 -1.5083 -0.7407 -0.6024
  780TIP3   OH2 2345   2.766   2.058   2.264  0.2597  0.0587  0.0759
  780TIP3    H1 2346   2.726   1.971   2.251  0.0006  0.1804  0.0508
  780TIP3    H2 2347   2.839   2.042   2.323  0.0255 -0.1294  0.3172
  781TIP3   OH2 2348   3.175   1.019   1.625 -0.2009  0.1525  0.7147
  781TIP3    H1 2349   3.144   1.091   1.679 -1.9005 -0.3657  0.4975
  781TIP3    H2 2350   3.121   0.944   1.650 -0.8613 -0.1812 -1.4334
  782TIP3   OH2 2351   1.280   1.286   0.663  0.2248 -0.4381 -0.0742
  782TIP3    H1 2352   1.328   1.367   0.647  1.1676 -0.4052  2.4876
  782TIP3    H2 2353   1.346   1.225   0.695 -0.0527 -3.0057 -3.7232
  783TIP3   OH2 2354   1.288   4.359   0.730  0.2715  0.0543 -0.0781
  783TIP3    H1 2355   1.310   4.306   0.806  0.2975  1.2733  0.7901
  783TIP3    H2 2356   1.370   4.367   0.681  0.3562 -0.3597 -0.0111
  784TIP3   OH2 2357   5.969   5.325   2.940  0.1490 -0.3621 -0.7457
  784TIP3    H1 2358   5.985   5.237   2.905 -0.3577 -0.9419  0.4495
  784TIP3    H2 2359   5.972   5.315   3.035 -0.3293  0.8351 -0.5834
  785TIP3   OH2 2360   2.094   5.568   3.277  0.6849  0.2692  0.2649
  785TIP3    H1 2361   2.082   5.647   3.225  2.8990 -0.1223 -1.0000
  785TIP3    H2 2362   2.098   5.598   3.368  0.4569  1.4655 -0.1128
  786TIP3   OH2 2363   5.495   0.950   3.135  0.4711 -0.1640  0.4386
  786TIP3    H1 2364   5.520   0.906   3.054 -1.3023  0.6481 -0.5902
  786TIP3    H2 2365   5.442   0.886   3.183  0.4777 -0.2110  0.3819
  787TIP3   OH2 2366   3.834   0.577   1.521 -0.2404 -0.4103 -0.1680
  787TIP3    H1 2367   3.787   0.586   1.604  2.5985 -1.1437  1.6909
  787TIP3    H2 2368   3.817   0.487   1.493 -0.0960 -0.6338  0.4302
  788TIP3   OH2 2369   1.124   4.206   4.832 -0.7300 -0.2072 -0.1684
  788TIP3    H1 2370   1.124   4.234   4.924 -0.0396  0.6664 -0.4204
  788TIP3    H2 2371   1.175   4.125   4.832  1.8676  1.3196 -0.1818
  789TIP3   OH2 2372   6.288   4.499   3.429 -0.2157 -0.2817 -0.1120
  789TIP3    H1 2373   6.350   4.572   3.426  2.1265 -2.1069  0.5469
  789TIP3    H2 2374   6.269   4.486   3.522  0.5501 -1.3803 -0.0876
  790TIP3   OH2 2375   3.688   5.790   1.779 -0.2005  0.5716 -0.3407
  790TIP3    H1 2376   3.756   5.727   1.805  0.1662  1.6899  1.6379
  790TIP3    H2 2377   3.629   5.793   1.854 -2.0525  0.1958 -1.7274
  791TIP3   OH2 2378   3.635   3.755   1.183 -0.0224  0.7073 -0.0866
  791TIP3    H1 2379   3.587   3.737   1.102 -1.0987  2.0229  0.2244
  791TIP3    H2 2380   3.581   3.717   1.252  2.0374 -2.5391 -0.0680
  792TIP3   OH2 2381   3.066   2.337   3.394 -0.3122 -0.2950  0.2740
  792TIP3    H1 2382   2.990   2.293   3.358 -0.0839  0.1265 -0.7557
  792TIP3    H2 2383   3.041   2.429   3.400  0.1892 -0.1148 -0.2906
  793TIP3   OH2 2384   4.194   0.097   3.165  0.1314 -0.3617 -0.5079
  793TIP3    H1 2385   4.190   0.146   3.248 -1.6600 -0.3969 -0.5400
  793TIP3    H2 2386   4.278   0.123   3.126  0.1577  1.1021  0.4360
  794TIP3   OH2 2387   0.506   0.867   1.876  0.3964 -0.2996 -0.7460
  794TIP3    H1 2388   0.411   0.869   1.887  0.0340  1.6827 -3.1772
  794TIP3    H2 2389   0.534   0.958   1.888  2.0791 -0.9088  0.3360
  795TIP3   OH2 2390   5.749   4.017   2.828  0.3950 -0.0350 -0.1426
  795TIP3    H1 2391   5.733   4.104   2.866 -1.9941 -0.4025 -0.1898
  795TIP3    H2 2392   5.728   3.956   2.899 -0.5961 -0.6330 -0.9360
  796TIP3   OH2 2393   5.065   5.508   4.932 -0.1839  0.0837  0.4822
  796TIP3    H1 2394   5.050   5.546   4.846 -2.0056  3.7514  2.1848
  796TIP3    H2 2395   5.160   5.505   4.941  0.0321  1.5450 -0.9527
  797TIP3   OH2 2396   1.153   0.295   2.534 -0.2554 -0.5067 -0.5182
  797TIP3    H1 2397   1.123   0.372   2.486 -1.0977 -0.9254 -0.6764
  797TIP3    H2 2398   1.249   0.296   2.523  0.1821  2.3694  2.2889
  798TIP3   OH2 2399   3.883   4.890   4.550 -0.3466 -0.2897 -0.3287
  798TIP3    H1 2400   3.929   4.846   4.479 -0.4791 -0.0871 -0.5402
  798TIP3    H2 2401   3.953   4.929   4.602 -0.1948 -1.1463  0.1349
  799TIP3   OH2 2402   3.328   4.247   1.848 -0.1053 -0.1132 -0.3456
  799TIP3    H1 2403   3.309   4.162   1.888  0.5834  0.6657  1.7704
  799TIP3    H2 2404   3.271   4.309   1.894  0.0039  0.7128 -1.2750
  800TIP3   OH2 2405   3.594   2.545   2.912 -0.8850 -0.0902 -0.0905
  800TIP3    H1 2406   3.543   2.554   2.992  0.1962  0.5113  0.5620
  800TIP3    H2 2407   3.593   2.633   2.873 -1.9260 -0.5166 -1.0934
  801TIP3   OH2 2408   5.098   0.528   3.048  0.3464  0.3627 -0.0383
  801TIP3    H1 2409   5.036   0.542   3.119  0.2516 -1.8697  0.4011
  801TIP3    H2 2410   5.089   0.435   3.026 -0.0184  1.0467 -3.3525
  802TIP3   OH2 2411   5.816   1.290   0.133 -0.0393 -0.0979  0.1904
  802TIP3    H1 2412   5.782   1.203   0.110  1.1142 -1.1729  2.2687
  802TIP3    H2 2413   5.910   1.278   0.144 -0.0325  1.0424  1.9280
  803TIP3   OH2 2414   0.229   3.717   2.721  0.2221 -0.6126 -0.2793
  803TIP3    H1 2415   0.186   3.634   2.740  0.3740 -0.6527 -0.1022
  803TIP3    H2 2416   0.255   3.711   2.629 -0.7219 -0.3276 -0.5678
  804TIP3   OH2 2417   5.922   1.412   4.963  0.3680  0.1340  0.2720
  804TIP3    H1 2418   5.985   1.483   4.947 -1.0994  1.6034  0.8191
  804TIP3    H2 2419   5.957   1.366   5.039  1.9824 -0.5411 -0.8126
  805TIP3   OH2 2420   1.866   0.824   4.116 -0.1915 -0.3854 -0.0332
  805TIP3    H1 2421   1.937   0.860   4.063 -0.6823 -0.0588 -0.4726
  805TIP3    H2 2422   1.846   0.740   4.076  1.0411 -1.2533  1.0688
  806TIP3   OH2 2423   0.742   2.286   0.934 -0.4666  0.5060  0.4821
  806TIP3    H1 2424   0.731   2.306   0.841  2.2786 -0.1012 -0.0835
  806TIP3    H2 2425   0.745   2.371   0.977  0.6052  0.9157 -0.3648
  807TIP3   OH2 2426   1.242   4.693   4.356  0.3849 -0.7762  0.9707
  807TIP3    H1 2427   1.172   4.755   4.379  0.1665 -0.4447 -0.4940
  807TIP3    H2 2428   1.309   4.707   4.423  1.2951  2.6332 -0.4029
  808TIP3   OH2 2429   0.084   2.330   2.988 -0.1291  0.1524 -0.1654
  808TIP3    H1 2430   0.018   2.385   2.947 -0.9571 -0.4797  0.2775
  808TIP3    H2 2431   0.036   2.279   3.053  1.2881  1.8526  2.3968
  809TIP3   OH2 2432   6.254   5.475   2.793 -0.5537  0.2008 -0.6444
  809TIP3    H1 2433   6.328   5.469   2.732  1.8824 -1.3867  2.1878
  809TIP3    H2 2434   6.219   5.386   2.796 -0.4138  0.1708  0.4689
  810TIP3   OH2 2435   5.281   1.050   3.833 -0.1385 -0.2638  0.6719
  810TIP3    H1 2436   5.218   1.122   3.824  0.2313  0.0902  0.8695
  810TIP3    H2 2437   5.356   1.089   3.879  0.2728 -0.6442  0.3385
  811TIP3   OH2 2438   4.358   2.314   0.945  0.3082  0.5295 -0.2997
  811TIP3    H1 2439   4.335   2.371   0.871 -1.1230  1.2177  0.6159
  811TIP3    H2 2440   4.339   2.367   1.022 -0.1481 -0.8531  0.5761
  812TIP3   OH2 2441   2.558   3.106   4.416 -0.3594  0.0010  0.2703
  812TIP3    H1 2442   2.518   3.163   4.350  2.6522  1.7871 -0.2148
  812TIP3    H2 2443   2.494   3.101   4.486 -2.4638  0.4632 -1.5122
  813TIP3   OH2 2444   3.365   1.133   3.854  0.3499  0.0674  0.2873
  813TIP3    H1 2445   3.363   1.229   3.859 -1.6517  0.0093  2.5759
  813TIP3    H2 2446   3.457   1.112   3.836  0.6784  2.4084 -1.1632
  814TIP3   OH2 2447   2.147   5.743   3.726  0.0594 -0.4294 -0.0411
  814TIP3    H1 2448   2.165   5.689   3.649  1.3340  0.8781 -0.7214
  814TIP3    H2 2449   2.163   5.684   3.801  1.4856 -0.9943 -0.7479
  815TIP3   OH2 2450   0.522   0.697   3.132  0.7450  0.0430  0.1330
  815TIP3    H1 2451   0.510   0.604   3.113 -1.4172  0.7301 -2.4889
  815TIP3    H2 2452   0.437   0.727   3.164  0.4630  1.6045 -1.8370
  816TIP3   OH2 2453   0.935   4.810   2.092  0.3374 -0.3952 -0.5902
  816TIP3    H1 2454   1.001   4.754   2.134 -0.5152 -2.3790 -1.7640
  816TIP3    H2 2455   0.952   4.800   1.999 -0.4230  0.6245 -0.8498
  817TIP3   OH2 2456   1.631   1.940   5.036  0.0998 -0.4002  0.4026
  817TIP3    H1 2457   1.623   1.846   5.022 -1.1570 -0.2029 -0.2946
  817TIP3    H2 2458   1.702   1.948   5.101 -0.6172 -1.8851  1.4248
  818TIP3   OH2 2459   4.075   1.545   3.213  0.1229  0.2391  1.0660
  818TIP3    H1 2460   4.137   1.512   3.148 -1.1979 -1.1119  0.4695
  818TIP3    H2 2461   4.001   1.485   3.210 -2.0028  2.7020  0.5986
  819TIP3   OH2 2462   1.778   5.766   0.889 -0.5555 -0.8122  0.4227
  819TIP3    H1 2463   1.843   5.796   0.953 -0.8071 -0.4623  0.5186
  819TIP3    H2 2464   1.749   5.846   0.845 -0.4403 -1.0403 -0.0841
  820TIP3   OH2 2465   1.523   1.250   0.240 -0.3354 -0.2024  0.1438
  820TIP3    H1 2466   1.596   1.294   0.196 -0.7584  0.4453  0.0876
  820TIP3    H2 2467   1.462   1.320   0.262  0.0205 -0.4548  2.0946
  821TIP3   OH2 2468   4.665   5.471   0.954 -0.7850  0.4551  0.6210
  821TIP3    H1 2469   4.652   5.538   1.021 -1.6428  1.2293 -0.2956
  821TIP3    H2 2470   4.689   5.392   1.004 -2.1519  0.8074  1.9223
  822TIP3   OH2 2471   5.237   5.892   0.021  0.0151  0.0204  0.4629
  822TIP3    H1 2472   5.300   5.896   0.093  1.9222 -2.3810 -0.9027
  822TIP3    H2 2473   5.269   5.956  -0.043  1.9609 -1.9793 -0.7361
  823TIP3   OH2 2474   5.324   3.043   3.356 -0.2320  0.5375 -0.3994
  823TIP3    H1 2475   5.291   2.954   3.354  2.3658 -0.5303  0.1608
  823TIP3    H2 2476   5.251   3.095   3.391 -1.4643 -1.4982  0.2026
  824TIP3   OH2 2477   4.658   1.587   2.897  0.4806  0.0505 -0.6909
  824TIP3    H1 2478   4.736   1.567   2.846  0.5252 -0.3871 -0.4560
  824TIP3    H2 2479   4.586   1.583   2.834  0.6969  0.9298 -1.0073
  825TIP3   OH2 2480   5.969   4.024   2.353 -0.4929  0.1903 -0.4713
  825TIP3    H1 2481   5.943   4.101   2.404 -0.2219 -0.4174  0.6244
  825TIP3    H2 2482   5.997   4.060   2.268  1.6407  1.5586  0.7130
  826TIP3   OH2 2483   0.073   2.736   3.736  0.0214  0.6972 -0.4533
  826TIP3    H1 2484   0.138   2.803   3.758 -0.6362  1.3250 -0.3742
  826TIP3    H2 2485   0.095   2.662   3.792 -0.2338  1.4488  0.6627
  827TIP3   OH2 2486   4.991   4.092   0.760  0.2437  0.1697  0.4691
  827TIP3    H1 2487   4.940   4.152   0.813  1.5003  0.7980  0.9990
  827TIP3    H2 2488   4.971   4.005   0.796 -2.0906  0.1487 -0.7297
  828TIP3   OH2 2489   3.690   4.202   1.210  0.0748 -0.4058  0.6650
  828TIP3    H1 2490   3.642   4.282   1.190 -0.4639 -1.4261 -2.8250
  828TIP3    H2 2491   3.782   4.225   1.201 -0.0489 -0.0036  0.4357
  829TIP3   OH2 2492   4.626   4.058   2.298  0.3913  0.0440 -0.3620
  829TIP3    H1 2493   4.661   3.977   2.263  0.9951  1.0674 -2.2837
  829TIP3    H2 2494   4.688   4.125   2.269 -0.3260  1.2379  0.7895
  830TIP3   OH2 2495   4.690   5.621   2.068  0.4475 -0.5393  0.4278
  830TIP3    H1 2496   4.644   5.539   2.054  0.3660 -0.5978  0.9903
  830TIP3    H2 2497   4.626   5.689   2.044  0.1588 -0.6258  0.9292
  831TIP3   OH2 2498   4.309   4.571   0.351  0.0870 -0.2132  0.2430
  831TIP3    H1 2499   4.331   4.590   0.260  0.9038 -0.1436  0.4488
  831TIP3    H2 2500   4.250   4.495   0.346 -0.2163  0.0625 -0.3627
  832TIP3   OH2 2501   1.564   5.613   4.403  0.5921 -0.3926 -0.1975
  832TIP3    H1 2502   1.627   5.548   4.435  0.1890 -0.5147  0.3513
  832TIP3    H2 2503   1.489   5.561   4.375 -0.2228 -0.1000  1.3669
  833TIP3   OH2 2504   0.033   3.637   3.380 -0.1319 -0.3415  0.3216
  833TIP3    H1 2505   0.108   3.623   3.438 -0.7202  0.6125  1.3481
  833TIP3    H2 2506   0.033   3.732   3.364 -0.9763 -0.3642  0.1570
  834TIP3   OH2 2507   5.237   2.454   2.940 -0.3605  0.0371  0.1283
  834TIP3    H1 2508   5.189   2.530   2.906 -2.4718 -0.7839  1.0665
  834TIP3    H2 2509   5.321   2.490   2.968 -0.9782  1.8754 -0.1974
  835TIP3   OH2 2510   1.040   5.974   1.208 -0.4695 -0.0548  0.9235
  835TIP3    H1 2511   1.078   5.895   1.169 -1.1740  0.2957 -0.5336
  835TIP3    H2 2512   0.952   5.947   1.236 -0.0301 -0.2587  2.1840
  836TIP3   OH2 2513   4.349   2.510   3.128 -0.0059  0.0553 -0.2240
  836TIP3    H1 2514   4.299   2.456   3.066  0.2262  0.5439 -0.8334
  836TIP3    H2 2515   4.283   2.567   3.168 -0.3292 -0.9451  0.7387
  837TIP3   OH2 2516   1.355   3.672   4.404  0.2041  0.0945  0.0097
  837TIP3    H1 2517   1.442   3.691   4.370 -0.1251 -0.9566 -1.5024
  837TIP3    H2 2518   1.310   3.757   4.402  0.6422  0.3175 -0.8614
  838TIP3   OH2 2519   1.779   3.069   2.828  0.1374 -0.1874 -0.0750
  838TIP3    H1 2520   1.707   3.079   2.766  0.4340 -0.9259 -0.5399
  838TIP3    H2 2521   1.746   3.111   2.908 -0.7793 -0.4469 -0.2984
  839TIP3   OH2 2522   5.785   2.815   4.060 -0.2260 -0.1017 -0.2934
  839TIP3    H1 2523   5.786   2.907   4.034  1.9792 -0.1032 -0.4424
  839TIP3    H2 2524   5.835   2.770   3.992  0.5920 -1.0292  0.8588
  840TIP3   OH2 2525   1.559   4.239   1.887 -0.1785 -0.3232  0.3660
  840TIP3    H1 2526   1.543   4.156   1.932  1.4097 -0.1807  1.2861
  840TIP3    H2 2527   1.636   4.223   1.832 -2.3005 -0.5940 -2.7287
  841TIP3   OH2 2528   1.131   2.644   3.152  0.0501  0.6168  0.0743
  841TIP3    H1 2529   1.036   2.643   3.166  0.0613  0.8739  0.1723
  841TIP3    H2 2530   1.141   2.634   3.057 -0.0457 -0.3443  0.1499
  842TIP3   OH2 2531   5.300   4.491   2.965  0.2105  0.2700  0.2065
  842TIP3    H1 2532   5.258   4.576   2.962 -0.5586 -0.1266 -1.7400
  842TIP3    H2 2533   5.394   4.510   2.969  0.0513  1.2173 -0.3744
  843TIP3   OH2 2534   1.586   0.876   4.175 -0.9407 -0.0614 -0.1233
  843TIP3    H1 2535   1.671   0.873   4.129 -0.4283  1.8759  0.5885
  843TIP3    H2 2536   1.559   0.785   4.180  0.6881 -0.6624 -1.1424
  844TIP3   OH2 2537   3.488   3.481   2.277  0.6009 -0.2065  0.0290
  844TIP3    H1 2538   3.553   3.539   2.237  1.1235 -1.3375 -0.8351
  844TIP3    H2 2539   3.480   3.511   2.367  1.9805  0.2532  0.0149
  845TIP3   OH2 2540   0.562   2.105   3.209  0.0849  0.2135 -0.0083
  845TIP3    H1 2541   0.645   2.058   3.204  0.7812  1.2992  0.8609
  845TIP3    H2 2542   0.509   2.067   3.139  1.5564 -0.0339 -1.0414
  846TIP3   OH2 2543   0.748   5.283   3.101  0.1676  0.1219  0.3025
  846TIP3    H1 2544   0.686   5.229   3.052 -2.0182  1.1229  1.8608
  846TIP3    H2 2545   0.766   5.233   3.181 -0.0572  0.6530  0.6882
  847TIP3   OH2 2546   5.851   1.934   3.489  0.1116  0.2730  0.5927
  847TIP3    H1 2547   5.909   1.995   3.444  0.6317 -1.2987 -0.9851
  847TIP3    H2 2548   5.909   1.866   3.524 -0.5905 -0.3238  0.6365
  848TIP3   OH2 2549   6.017   0.853   0.647 -0.6624  0.4041  0.3207
  848TIP3    H1 2550   6.029   0.898   0.563  1.8032  1.4759  1.1678
  848TIP3    H2 2551   6.005   0.761   0.623  2.3738  0.2793 -1.2292
  849TIP3   OH2 2552   2.108   0.456   1.241  0.2000  0.2826 -0.0704
  849TIP3    H1 2553   2.014   0.437   1.231  0.1091  1.0205 -0.8461
  849TIP3    H2 2554   2.144   0.379   1.284 -0.9028  0.3090  0.9657
  850TIP3   OH2 2555   2.727   5.031   3.134  0.0723 -0.0375  0.4793
  850TIP3    H1 2556   2.780   4.962   3.173 -0.3983 -0.7523 -0.0993
  850TIP3    H2 2557   2.755   5.034   3.042 -1.8396 -1.4538 -0.2225
  851TIP3   OH2 2558   4.350   3.439   3.940 -0.1123 -0.3529 -0.2239
  851TIP3    H1 2559   4.408   3.511   3.916  1.1159 -0.8351  1.1726
  851TIP3    H2 2560   4.285   3.478   3.998  1.2330 -0.5408  1.4682
  852TIP3   OH2 2561   5.940   3.915   0.394 -0.4815  0.3077 -0.1940
  852TIP3    H1 2562   5.919   3.955   0.310 -1.2873 -0.9932 -0.6398
  852TIP3    H2 2563   6.021   3.958   0.422 -0.4394  1.0624 -1.4200
  853TIP3   OH2 2564   5.462   5.574   0.919  0.5596 -0.0142 -0.2384
  853TIP3    H1 2565   5.528   5.541   0.858 -1.5148 -2.3183 -1.4401
  853TIP3    H2 2566   5.481   5.530   1.002  0.1621 -1.2412 -0.7742
  854TIP3   OH2 2567   0.260   1.867   3.640  0.4694  0.0341 -0.8506
  854TIP3    H1 2568   0.223   1.836   3.557  2.7206 -2.1921 -1.1219
  854TIP3    H2 2569   0.209   1.821   3.707 -0.6184  0.9773 -1.0120
  855TIP3   OH2 2570   0.581   5.406   0.638  0.0745 -0.2470  0.2281
  855TIP3    H1 2571   0.519   5.473   0.608  0.0758 -0.2911  0.1268
  855TIP3    H2 2572   0.667   5.444   0.622  0.0820  0.3101  1.4698
  856TIP3   OH2 2573   5.694   4.886   1.015  0.7020 -0.0478 -0.1890
  856TIP3    H1 2574   5.734   4.962   0.973 -1.0695  0.5003 -0.9862
  856TIP3    H2 2575   5.681   4.912   1.106 -1.4750  1.3693 -0.8166
  857TIP3   OH2 2576   3.824   0.860   3.484 -0.3662  0.0653  0.6028
  857TIP3    H1 2577   3.882   0.921   3.437  1.3027 -0.3113  2.0596
  857TIP3    H2 2578   3.855   0.773   3.458 -1.6078 -0.1877 -0.1189
  858TIP3   OH2 2579   2.268   2.552   0.942  0.6016 -0.2614  0.4457
  858TIP3    H1 2580   2.193   2.493   0.950 -1.5364  2.2209  0.2726
  858TIP3    H2 2581   2.301   2.561   1.032  0.6594 -1.2919  0.5427
  859TIP3   OH2 2582   4.725   1.274   1.698  0.5113  0.0692  0.2580
  859TIP3    H1 2583   4.654   1.221   1.735  0.0382  0.5072  0.0051
  859TIP3    H2 2584   4.706   1.363   1.727  1.2193  0.1228  0.5617
  860TIP3   OH2 2585   3.402   1.414   3.620 -0.1106 -0.3477 -0.0954
  860TIP3    H1 2586   3.438   1.493   3.580 -0.5210 -0.6470 -1.0877
  860TIP3    H2 2587   3.447   1.342   3.576  0.2682 -0.6830  0.8078
  861TIP3   OH2 2588   3.038   2.816   0.964 -0.0766 -0.2767  0.3071
  861TIP3    H1 2589   3.089   2.868   0.902 -1.6489  0.6471 -0.2562
  861TIP3    H2 2590   3.051   2.725   0.936  1.6000 -0.1200  0.4670
  862TIP3   OH2 2591   2.948   3.908   2.767  0.3906 -0.1102 -0.3026
  862TIP3    H1 2592   2.880   3.840   2.775 -0.4660  0.7103 -0.3573
  862TIP3    H2 2593   2.916   3.966   2.698  1.6659 -0.2635 -1.0493
  863TIP3   OH2 2594   0.855   0.918   3.679 -0.0074 -0.0302  0.1921
  863TIP3    H1 2595   0.874   1.004   3.640 -2.7343 -1.1160 -4.2628
  863TIP3    H2 2596   0.763   0.924   3.704  0.2662 -1.1422  1.5193
  864TIP3   OH2 2597   2.067   3.378   1.608 -0.2678 -0.0124 -0.2374
  864TIP3    H1 2598   2.094   3.467   1.585  1.3791 -0.1284  1.0882
  864TIP3    H2 2599   1.974   3.375   1.584 -0.1028  1.7123 -1.2811
  865TIP3   OH2 2600   5.669   2.834   3.169  0.7849 -0.3433 -0.2269
  865TIP3    H1 2601   5.609   2.894   3.126 -0.8274 -1.7936 -0.1140
  865TIP3    H2 2602   5.750   2.885   3.181  0.4564  0.8831 -2.6383
  866TIP3   OH2 2603   4.446   4.591   0.613  0.0144  0.6260 -0.0750
  866TIP3    H1 2604   4.423   4.681   0.639 -1.8502  0.1061  0.2364
  866TIP3    H2 2605   4.400   4.580   0.529 -0.8806 -0.4479  0.5324
  867TIP3   OH2 2606   1.182   1.857   2.764  0.3521  0.2584 -0.2117
  867TIP3    H1 2607   1.093   1.862   2.729  0.6500 -0.3830 -1.0914
  867TIP3    H2 2608   1.175   1.798   2.839  0.3269 -1.2451 -1.3427
  868TIP3   OH2 2609   4.098   1.396   2.985 -0.7052 -0.8240  0.0249
  868TIP3    H1 2610   4.010   1.377   3.016 -0.9584 -1.1967 -0.8832
  868TIP3    H2 2611   4.137   1.311   2.967  1.2885 -0.9734  4.0465
  869TIP3   OH2 2612   0.480   1.531   2.484 -0.0464  0.8169 -0.0772
  869TIP3    H1 2613   0.481   1.446   2.440 -0.4253  0.1014  1.2235
  869TIP3    H2 2614   0.499   1.510   2.576 -1.7776  1.9261  0.5895
  870TIP3   OH2 2615   0.717   0.409   5.015 -0.1695  0.6524 -0.5016
  870TIP3    H1 2616   0.650   0.457   4.966 -0.8113 -0.7599 -1.0800
  870TIP3    H2 2617   0.700   0.431   5.107 -2.9034 -1.3206 -0.4028
  871TIP3   OH2 2618   0.231   5.710   0.781 -0.0657 -0.2251 -0.1449
  871TIP3    H1 2619   0.145   5.692   0.743  0.0692 -0.3301 -0.3983
  871TIP3    H2 2620   0.248   5.802   0.759 -0.5363  0.0910  0.7294
  872TIP3   OH2 2621   2.956   4.168   1.695  0.1261 -0.1937  0.0659
  872TIP3    H1 2622   3.007   4.172   1.614 -1.0725 -0.2930 -0.7103
  872TIP3    H2 2623   2.902   4.090   1.686 -0.9001  0.4557  0.4157
  873TIP3   OH2 2624   0.502   4.193   0.460  0.2001  0.3103 -0.1983
  873TIP3    H1 2625   0.536   4.112   0.421 -1.3131  0.0259 -1.0136
  873TIP3    H2 2626   0.577   4.252   0.463  1.2030 -0.9510 -0.0820
  874TIP3   OH2 2627   2.820   0.609   4.661 -0.1731 -0.3039  0.1198
  874TIP3    H1 2628   2.873   0.669   4.608 -0.5125  0.1381  0.2744
  874TIP3    H2 2629   2.825   0.525   4.614  2.0520 -0.7424  1.0319
  875TIP3   OH2 2630   4.950   3.984   2.208 -0.1402 -0.0602 -0.0603
  875TIP3    H1 2631   4.873   3.944   2.168 -0.1082 -0.8456  0.6386
  875TIP3    H2 2632   4.928   4.078   2.212 -1.5854 -0.4060  1.2113
  876TIP3   OH2 2633   0.087   4.520   4.332 -0.1944 -0.0910 -0.2145
  876TIP3    H1 2634   0.152   4.494   4.397  0.9673  3.3686  0.1865
  876TIP3    H2 2635   0.087   4.448   4.269  2.6197 -1.1073  0.7914
  877TIP3   OH2 2636   5.241   2.838   2.275  0.2315 -0.0250  0.0508
  877TIP3    H1 2637   5.211   2.927   2.290 -0.5843 -0.1657 -0.6888
  877TIP3    H2 2638   5.330   2.848   2.241 -0.2214  0.5575 -0.9955
  878TIP3   OH2 2639   2.255   4.012   0.666  0.2591 -0.2848 -0.6353
  878TIP3    H1 2640   2.244   3.971   0.752 -0.8491 -0.9103 -1.0586
  878TIP3    H2 2641   2.273   4.104   0.686  3.9804 -1.0652  0.3794
  879TIP3   OH2 2642   5.523   4.529   3.636  0.1280 -0.4462 -0.0938
  879TIP3    H1 2643   5.605   4.516   3.588  1.6927  2.6611  1.5193
  879TIP3    H2 2644   5.546   4.513   3.728 -1.0635  0.5040  0.3857
  880TIP3   OH2 2645   4.623   4.192   3.427 -0.2239  0.0678  0.0604
  880TIP3    H1 2646   4.562   4.226   3.493 -0.4349 -0.8344  0.3448
  880TIP3    H2 2647   4.709   4.215   3.460 -0.3286 -0.3750  0.6647
  881TIP3   OH2 2648   5.538   3.311   3.349  0.6359  1.0530 -0.5063
  881TIP3    H1 2649   5.571   3.390   3.392  1.3510  0.6439 -0.2787
  881TIP3    H2 2650   5.543   3.331   3.256 -1.0639  2.0036 -0.4282
  882TIP3   OH2 2651   4.485   4.323   0.638  0.3438  0.0069  0.4312
  882TIP3    H1 2652   4.412   4.293   0.584 -0.3630  0.4733  1.1049
  882TIP3    H2 2653   4.507   4.410   0.605  1.5307 -0.6753 -0.6700
  883TIP3   OH2 2654   5.261   1.389   3.283  0.1946 -0.5892 -0.4016
  883TIP3    H1 2655   5.318   1.462   3.304 -1.4481  0.8829 -0.8382
  883TIP3    H2 2656   5.192   1.391   3.350 -0.4997 -1.0157 -1.0722
  884TIP3   OH2 2657   5.735   3.752   3.701  0.1828  0.3318 -0.2999
  884TIP3    H1 2658   5.658   3.726   3.751 -0.4783  0.1369 -1.3946
  884TIP3    H2 2659   5.803   3.763   3.767 -0.5987 -0.1551  0.6178
  885TIP3   OH2 2660   0.302   5.301   4.895  0.6611 -0.0178  0.4290
  885TIP3    H1 2661   0.373   5.263   4.844  1.3135  0.5058  0.9364
  885TIP3    H2 2662   0.234   5.233   4.896  1.8216 -1.2261  1.3764
  886TIP3   OH2 2663   3.018   3.531   4.454  0.3027  0.5089 -0.1367
  886TIP3    H1 2664   3.098   3.550   4.406  0.4054 -1.6187 -0.8834
  886TIP3    H2 2665   2.954   3.511   4.387  0.2975 -1.9830  0.5317
  887TIP3   OH2 2666   4.738   1.775   3.515  0.5037 -0.4129  0.4353
  887TIP3    H1 2667   4.704   1.714   3.581  0.4034 -1.8690 -0.9179
  887TIP3    H2 2668   4.713   1.736   3.431  0.7201  1.3434 -0.4844
  888TIP3   OH2 2669   0.859   0.683   1.610  0.0247  0.1814  0.0725
  888TIP3    H1 2670   0.765   0.695   1.615 -0.7177 -2.3008 -3.6216
  888TIP3    H2 2671   0.882   0.634   1.689 -1.9387 -0.0458  0.5386
  889TIP3   OH2 2672   2.669   5.796   4.825  0.1793 -0.7157  0.7654
  889TIP3    H1 2673   2.716   5.781   4.907 -1.6592 -0.3161  1.9459
  889TIP3    H2 2674   2.619   5.715   4.812 -1.8176  0.3214  1.6643
  890TIP3   OH2 2675   1.905   0.102   3.187  0.1804 -0.8992  0.5903
  890TIP3    H1 2676   1.914   0.091   3.282 -0.9980  0.0314  0.8359
  890TIP3    H2 2677   1.838   0.040   3.161  2.2551 -2.9875 -0.1050
  891TIP3   OH2 2678   3.286   1.390   5.060 -0.2914 -0.0949 -0.1989
  891TIP3    H1 2679   3.258   1.350   5.142  1.1805 -0.4611  0.1578
  891TIP3    H2 2680   3.209   1.438   5.029 -1.4983 -1.5955  0.3590
  892TIP3   OH2 2681   2.374   2.005   2.088 -0.1749  0.1361 -0.3194
  892TIP3    H1 2682   2.424   2.067   2.141 -0.2849 -0.5101  0.5573
  892TIP3    H2 2683   2.426   1.994   2.008  0.6608  0.1190  0.2195
  893TIP3   OH2 2684   5.065   3.446   2.593  0.1151 -0.2545 -0.4961
  893TIP3    H1 2685   4.998   3.386   2.561 -0.3157 -0.3855  0.6357
  893TIP3    H2 2686   5.035   3.533   2.565  0.3946 -0.4823 -1.5386
  894TIP3   OH2 2687   2.121   3.278   2.532  0.0834 -0.0535  0.2785
  894TIP3    H1 2688   2.093   3.316   2.448 -0.0031  0.4904  0.5473
  894TIP3    H2 2689   2.143   3.354   2.586 -0.5585 -0.3666  0.9961
  895TIP3   OH2 2690   0.181   5.134   3.171  0.2866  0.4041 -0.4895
  895TIP3    H1 2691   0.234   5.086   3.234 -0.5860  0.7137  0.5172
  895TIP3    H2 2692   0.098   5.086   3.167  0.0250  0.8659 -0.7595
  896TIP3   OH2 2693   4.994   5.898   0.502 -0.4844 -0.3926 -0.0949
  896TIP3    H1 2694   5.090   5.893   0.501 -0.4964 -0.7415 -1.2096
  896TIP3    H2 2695   4.975   5.990   0.483 -0.3750 -0.3605 -0.0539
  897TIP3   OH2 2696   0.868   3.983   3.111  0.0320  0.3129  0.0288
  897TIP3    H1 2697   0.866   4.065   3.161 -0.2376  0.9570 -1.0040
  897TIP3    H2 2698   0.927   3.926   3.161 -1.1625  0.4760  1.7300
  898TIP3   OH2 2699   3.226   0.209   4.925  0.3019 -0.0969  0.0888
  898TIP3    H1 2700   3.290   0.247   4.984 -0.2444  0.6375  0.2272
  898TIP3    H2 2701   3.141   0.233   4.963 -0.0748  1.0649 -1.3823
  899TIP3   OH2 2702   0.856   5.177   1.930 -0.3534 -0.1203 -0.2965
  899TIP3    H1 2703   0.929   5.151   1.873 -0.5100 -0.6491 -0.2587
  899TIP3    H2 2704   0.801   5.233   1.874 -0.9038 -1.2469 -0.9133
  900TIP3   OH2 2705   2.619   5.672   0.938 -0.5948  0.7449 -0.0253
  900TIP3    H1 2706   2.713   5.680   0.954 -0.3332  1.5142 -1.7544
  900TIP3    H2 2707   2.612   5.628   0.853 -1.8379 -0.4396  0.6395
  901TIP3   OH2 2708   3.291   4.065   4.778 -0.1446 -0.0718 -0.2654
  901TIP3    H1 2709   3.313   4.109   4.860  3.4281 -0.8013 -0.6322
  901TIP3    H2 2710   3.244   3.986   4.805 -1.1460  0.8708  0.8461
  902TIP3   OH2 2711   5.004   5.949   1.936  0.0921 -0.4583  0.2208
  902TIP3    H1 2712   5.007   5.969   1.842 -1.2314 -2.5871 -0.3407
  902TIP3    H2 2713   5.065   6.012   1.976  0.3721  0.7775 -1.9885
  903TIP3   OH2 2714   1.918   1.809   2.729  0.3629 -0.5606  1.1288
  903TIP3    H1 2715   1.943   1.747   2.798 -0.2950 -1.8075  0.2949
  903TIP3    H2 2716   1.824   1.796   2.718  0.6752 -1.4393 -0.9501
  904TIP3   OH2 2717   1.293   1.695   0.139  0.0439  0.2881  0.5058
  904TIP3    H1 2718   1.215   1.669   0.091  1.8849 -0.4000 -2.3846
  904TIP3    H2 2719   1.314   1.782   0.105 -0.2236  1.0863  2.3147
  905TIP3   OH2 2720   3.547   0.239   3.020  0.9796  0.1131  0.3525
  905TIP3    H1 2721   3.637   0.212   3.035  1.0430  1.0231  1.8690
  905TIP3    H2 2722   3.495   0.160   3.034  1.4370 -0.0764  1.0135
  906TIP3   OH2 2723   3.839   2.243   1.327  0.0471  0.0858  0.4956
  906TIP3    H1 2724   3.761   2.275   1.373 -0.2399  0.2244 -0.0763
  906TIP3    H2 2725   3.854   2.156   1.364 -1.3268 -0.6137 -0.4835
  907TIP3   OH2 2726   4.592   3.869   3.431 -0.1028 -0.4136  0.6249
  907TIP3    H1 2727   4.570   3.962   3.420 -2.0816 -0.8910  0.1670
  907TIP3    H2 2728   4.669   3.856   3.375 -1.3602  0.4254 -1.4033
  908TIP3   OH2 2729   3.779   2.121   2.806 -0.2855 -0.7730  0.3222
  908TIP3    H1 2730   3.770   2.206   2.763 -0.4747 -1.0938 -0.2925
  908TIP3    H2 2731   3.707   2.118   2.869 -0.8590 -0.8532 -0.3189
  909TIP3   OH2 2732   4.362   0.219   2.981  0.4994 -0.3774 -0.8240
  909TIP3    H1 2733   4.355   0.168   2.900  0.3381 -1.0262 -0.4157
  909TIP3    H2 2734   4.456   0.239   2.988  0.2692  1.3731 -2.1555
  910TIP3   OH2 2735   3.929   4.704   1.044 -0.3647  0.1930 -0.0437
  910TIP3    H1 2736   4.024   4.692   1.034 -0.5305 -2.0054  0.5313
  910TIP3    H2 2737   3.919   4.799   1.059  1.6521  0.5837 -0.7977
  911TIP3   OH2 2738   0.827   5.011   2.518  0.1900 -0.1266 -0.3782
  911TIP3    H1 2739   0.788   4.924   2.522  0.9406 -0.4733 -0.3112
  911TIP3    H2 2740   0.824   5.043   2.608  0.8991 -0.5436 -0.1949
  912TIP3   OH2 2741   5.456   2.716   1.508 -0.3738 -0.2753  0.4204
  912TIP3    H1 2742   5.367   2.743   1.532 -0.1758  1.1932 -0.3885
  912TIP3    H2 2743   5.513   2.779   1.552  0.1211  0.6000 -1.4124
  913TIP3   OH2 2744   3.312   3.114   5.181 -0.1267  0.5071  0.4029
  913TIP3    H1 2745   3.260   3.158   5.114 -0.8492  1.3252  1.4675
  913TIP3    H2 2746   3.368   3.183   5.217 -0.5146  0.3332  1.3640
  914TIP3   OH2 2747   1.182   2.994   3.743 -0.3491 -0.2279 -0.4295
  914TIP3    H1 2748   1.169   2.998   3.649  1.7151  0.6383 -0.7424
  914TIP3    H2 2749   1.120   2.928   3.774 -0.5073 -1.0955 -2.4870
  915TIP3   OH2 2750   2.902   2.497   4.576  0.2010 -0.6753 -0.1718
  915TIP3    H1 2751   2.824   2.549   4.554 -1.0586 -2.2615  0.3495
  915TIP3    H2 2752   2.941   2.475   4.492 -1.6570 -2.3556 -0.6807
  916TIP3   OH2 2753   6.153   1.845   0.884 -0.2206 -0.2050 -0.1669
  916TIP3    H1 2754   6.245   1.825   0.896 -0.6993 -1.0773  2.8628
  916TIP3    H2 2755   6.130   1.806   0.800  1.7111 -1.6653 -0.0757
  917TIP3   OH2 2756   2.334   0.375   2.429 -0.0670 -0.0404 -0.2900
  917TIP3    H1 2757   2.295   0.449   2.476  0.6315  0.5710 -0.6639
  917TIP3    H2 2758   2.301   0.298   2.476 -1.6683  0.4484 -0.5318
  918TIP3   OH2 2759   5.863   1.514   4.583  0.0402  0.5363  0.3029
  918TIP3    H1 2760   5.814   1.490   4.662 -0.8078 -0.2101 -0.4257
  918TIP3    H2 2761   5.870   1.609   4.587 -1.5093  0.6771  0.4250
  919TIP3   OH2 2762   1.628   1.927   3.959  0.0073 -0.4064 -0.4410
  919TIP3    H1 2763   1.622   1.909   4.052  0.0513 -0.8978 -0.5316
  919TIP3    H2 2764   1.589   1.850   3.917 -1.5812  0.5260 -0.7894
  920TIP3   OH2 2765   4.189   3.044   0.292 -0.4041 -0.2863 -0.5049
  920TIP3    H1 2766   4.097   3.016   0.288 -0.4470 -1.0727  2.9391
  920TIP3    H2 2767   4.239   2.963   0.285 -0.1513 -0.2499  0.6251
  921TIP3   OH2 2768   5.157   3.755   4.361 -0.5786  0.2400  0.0160
  921TIP3    H1 2769   5.105   3.834   4.348 -0.5352 -0.0632 -2.4912
  921TIP3    H2 2770   5.246   3.787   4.376 -1.1322  0.7093  2.7522
  922TIP3   OH2 2771   5.415   5.397   0.527  0.4132 -0.1329 -0.3813
  922TIP3    H1 2772   5.449   5.368   0.443  0.5152  2.0529 -1.1560
  922TIP3    H2 2773   5.357   5.471   0.505  0.7627  0.7477  1.4839
  923TIP3   OH2 2774   3.329   5.874   1.355 -0.3209  0.1893 -0.3597
  923TIP3    H1 2775   3.282   5.791   1.364  1.9418 -1.5378 -3.0759
  923TIP3    H2 2776   3.401   5.868   1.418  0.8643 -0.7471 -1.7622
  924TIP3   OH2 2777   0.246   4.463   2.256  0.2128  0.9491  0.3068
  924TIP3    H1 2778   0.321   4.431   2.307 -0.3784 -1.3111 -0.1332
  924TIP3    H2 2779   0.180   4.394   2.265 -1.7386  2.7297  0.4180
  925TIP3   OH2 2780   5.713   1.945   3.137  0.3013 -0.2085 -0.1599
  925TIP3    H1 2781   5.712   2.036   3.164 -0.7024 -0.6851  1.5448
  925TIP3    H2 2782   5.628   1.931   3.095  1.3201  0.1711 -2.5358
  926TIP3   OH2 2783   5.785   3.106   4.048  0.2369 -0.5142 -0.1897
  926TIP3    H1 2784   5.699   3.146   4.043  0.8475  0.7410 -1.1550
  926TIP3    H2 2785   5.808   3.086   3.958  0.7627 -1.2916  0.1008
  927TIP3   OH2 2786   1.688   4.830   0.209 -0.6474 -0.0928  0.1308
  927TIP3    H1 2787   1.713   4.790   0.126 -0.1683  3.1500 -1.4478
  927TIP3    H2 2788   1.598   4.799   0.224 -0.1577 -2.0558 -0.6459
  928TIP3   OH2 2789   6.350   4.915   4.051 -0.0803  0.4397  0.1692
  928TIP3    H1 2790   6.278   4.897   3.990 -0.1809 -1.0211  0.6660
  928TIP3    H2 2791   6.356   5.010   4.054 -1.8009  0.5960 -0.1259
  929TIP3   OH2 2792   0.894   4.173   3.920  0.8343 -0.0352  0.4451
  929TIP3    H1 2793   0.975   4.136   3.884  0.8145  0.3277  0.0226
  929TIP3    H2 2794   0.879   4.253   3.869 -0.1823 -0.4788  0.0269
  930TIP3   OH2 2795   5.464   1.876   1.080 -0.0690 -0.0670  0.2518
  930TIP3    H1 2796   5.387   1.826   1.053  0.1969 -0.3349 -0.0272
  930TIP3    H2 2797   5.461   1.956   1.028  0.1372 -0.3277 -0.1649
  931TIP3   OH2 2798   2.092   4.105   3.552  1.1046  0.3785 -0.3661
  931TIP3    H1 2799   2.021   4.064   3.502 -0.3541 -0.7186  2.3328
  931TIP3    H2 2800   2.172   4.077   3.509 -0.0402  0.4932 -2.7117
  932TIP3   OH2 2801   1.793   3.057   1.073  0.1519  0.1949 -0.7316
  932TIP3    H1 2802   1.776   2.986   1.010 -0.3386  0.3268 -0.7499
  932TIP3    H2 2803   1.867   3.105   1.035 -0.8529  0.9560 -1.8000
  933TIP3   OH2 2804   4.457   5.438   1.431  0.3715  0.6877 -0.3966
  933TIP3    H1 2805   4.389   5.402   1.489 -0.2064  0.9271 -0.9128
  933TIP3    H2 2806   4.436   5.402   1.345 -0.3548  2.3939 -0.9817
  934TIP3   OH2 2807   2.173   1.848   2.662 -0.3462 -0.2310 -0.4706
  934TIP3    H1 2808   2.084   1.823   2.688  0.2008 -1.9887 -0.1270
  934TIP3    H2 2809   2.228   1.819   2.734  0.4903  1.1253 -0.5448
  935TIP3   OH2 2810   0.184   4.783   4.259  0.0247 -0.2482 -0.6599
  935TIP3    H1 2811   0.148   4.714   4.315 -1.2496 -0.4512 -1.6793
  935TIP3    H2 2812   0.110   4.810   4.205  0.8826  0.9047 -1.2922
  936TIP3   OH2 2813   0.527   0.619   2.001 -0.6828 -0.0918 -0.1859
  936TIP3    H1 2814   0.548   0.700   1.954 -1.4083  0.8073  1.0029
  936TIP3    H2 2815   0.440   0.595   1.969 -0.6235 -0.2066 -0.2623
  937TIP3   OH2 2816   0.978   2.168   5.012  0.1137 -0.4112 -0.2367
  937TIP3    H1 2817   1.019   2.169   5.098  0.6960  0.2355 -0.5124
  937TIP3    H2 2818   1.046   2.134   4.954 -0.7051 -2.1609 -0.2541
  938TIP3   OH2 2819   2.828   1.070   2.996  0.0007 -0.2734 -0.4167
  938TIP3    H1 2820   2.907   1.047   3.045 -0.7933 -0.6241  0.7242
  938TIP3    H2 2821   2.802   1.155   3.031 -0.0347 -0.0682 -0.9245
  939TIP3   OH2 2822   4.449   0.893   0.934 -0.2503  0.4085 -0.2106
  939TIP3    H1 2823   4.507   0.840   0.880  0.4200  0.2300  0.6720
  939TIP3    H2 2824   4.467   0.984   0.907 -0.7525  0.2687 -1.0796
  940TIP3   OH2 2825   3.796   3.957   0.158  0.1481  0.6330 -0.1664
  940TIP3    H1 2826   3.785   3.876   0.208  2.7644 -1.4883 -2.6987
  940TIP3    H2 2827   3.709   3.976   0.124 -0.7131 -0.5912  1.2073
  941TIP3   OH2 2828   2.759   2.555   0.732 -0.1147  0.6911  0.8092
  941TIP3    H1 2829   2.698   2.602   0.789 -2.0589 -1.5926  0.7507
  941TIP3    H2 2830   2.729   2.574   0.644  1.4335  2.2719  0.5523
  942TIP3   OH2 2831   0.469   1.393   1.766 -0.1482  0.2049  0.7393
  942TIP3    H1 2832   0.512   1.466   1.809  1.6833  0.3629 -1.1716
  942TIP3    H2 2833   0.377   1.400   1.791  0.5534  1.0955  3.3300
  943TIP3   OH2 2834   4.362   5.197   1.133  0.3389 -0.1241 -0.3234
  943TIP3    H1 2835   4.389   5.187   1.041  0.4365 -0.2874 -0.2770
  943TIP3    H2 2836   4.428   5.150   1.183  0.1908 -0.1809 -0.1811
  944TIP3   OH2 2837   5.727   0.465   3.641  0.3571 -0.0835  0.6722
  944TIP3    H1 2838   5.703   0.443   3.731  0.8779  1.8076  1.3219
  944TIP3    H2 2839   5.737   0.560   3.642  1.1645 -0.1164 -1.2014
  945TIP3   OH2 2840   5.767   1.930   2.813  0.5744  0.0923  0.4544
  945TIP3    H1 2841   5.721   2.013   2.811  0.4963  0.1592  2.6851
  945TIP3    H2 2842   5.705   1.867   2.775 -0.2855  0.6453  0.9260
  946TIP3   OH2 2843   5.350   5.767   3.942  0.3324  0.2484  0.0963
  946TIP3    H1 2844   5.286   5.696   3.940  0.8174 -0.1937 -0.6972
  946TIP3    H2 2845   5.298   5.847   3.934 -0.0877 -0.1458 -1.6954
  947TIP3   OH2 2846   4.125   0.120   4.299  0.3222 -0.0734 -0.1670
  947TIP3    H1 2847   4.209   0.108   4.343  0.5375 -0.1034 -0.5775
  947TIP3    H2 2848   4.115   0.214   4.290  0.2856 -0.0680 -0.0649
  948TIP3   OH2 2849   1.754   3.896   3.174 -0.0044  0.6936 -0.1815
  948TIP3    H1 2850   1.666   3.864   3.154  0.2477  0.0232 -0.2579
  948TIP3    H2 2851   1.803   3.885   3.092  0.5059 -0.2184  0.2258
  949TIP3   OH2 2852   5.274   5.801   0.547 -0.0102  0.1357  0.0881
  949TIP3    H1 2853   5.310   5.725   0.501 -0.4468 -0.7388  1.1366
  949TIP3    H2 2854   5.347   5.833   0.600 -0.0654 -0.0922  0.3043
  950TIP3   OH2 2855   3.775   2.382   0.705 -0.2056 -0.4062  0.2193
  950TIP3    H1 2856   3.735   2.431   0.633 -0.3039  1.6701  1.5731
  950TIP3    H2 2857   3.708   2.318   0.730 -0.8146 -0.0656 -0.4905
  951TIP3   OH2 2858   1.607   1.589   0.273  0.1315 -0.8411  0.0113
  951TIP3    H1 2859   1.642   1.666   0.227  1.4093 -1.5874 -0.3288
  951TIP3    H2 2860   1.531   1.562   0.221 -0.7258  0.5407  0.4877
  952TIP3   OH2 2861   5.020   1.374   5.033 -0.1970  0.5471  0.1633
  952TIP3    H1 2862   5.007   1.326   5.114  0.6646  0.5108  0.2897
  952TIP3    H2 2863   4.979   1.319   4.966  0.9773 -0.4967  0.2696
  953TIP3   OH2 2864   5.620   5.085   0.675  0.1791 -0.8386 -0.4874
  953TIP3    H1 2865   5.651   5.039   0.753 -1.3684 -0.2532  0.5314
  953TIP3    H2 2866   5.681   5.158   0.664 -0.8261  0.4148  1.5892
  954TIP3   OH2 2867   0.644   0.453   1.763  0.1623  0.3154  0.3227
  954TIP3    H1 2868   0.726   0.489   1.796  1.1667 -1.2548 -0.3465
  954TIP3    H2 2869   0.580   0.470   1.832  0.3879  3.7671 -0.1297
  955TIP3   OH2 2870   5.162   3.981   0.557  0.4788  0.1983  0.3992
  955TIP3    H1 2871   5.250   3.964   0.590  0.3950  1.3877  1.2923
  955TIP3    H2 2872   5.113   4.012   0.633 -0.6261 -0.1478 -0.1548
  956TIP3   OH2 2873   1.785   0.435   4.423 -0.2303  0.1568 -0.4032
  956TIP3    H1 2874   1.745   0.361   4.468  0.6763 -0.0078  0.1532
  956TIP3    H2 2875   1.877   0.411   4.414  0.2118  1.4655  0.3489
  957TIP3   OH2 2876   5.429   0.093   0.325  0.5171  0.2435 -0.0566
  957TIP3    H1 2877   5.410   0.059   0.237 -0.2773 -1.1295  0.6145
  957TIP3    H2 2878   5.510   0.050   0.350 -0.1143 -0.6330  0.5146
  958TIP3   OH2 2879   6.155   4.457   3.162 -0.0077  0.8123 -0.1898
  958TIP3    H1 2880   6.171   4.363   3.150 -0.7396  0.9180 -2.3115
  958TIP3    H2 2881   6.209   4.480   3.238  0.3527 -1.2706  0.2558
  959TIP3   OH2 2882   1.954   3.874   3.350  0.4141  0.5253  0.4324
  959TIP3    H1 2883   2.013   3.818   3.300 -1.7943 -1.5076 -0.0872
  959TIP3    H2 2884   1.881   3.891   3.291 -2.8451 -2.8924  3.0294
  960TIP3   OH2 2885   4.469   3.875   2.837  0.3546 -0.3511 -0.6771
  960TIP3    H1 2886   4.446   3.936   2.906  1.8744 -2.3630  1.7643
  960TIP3    H2 2887   4.391   3.871   2.781 -0.8765  1.4330  0.8182
  961TIP3   OH2 2888   1.849   0.795   1.729 -0.2231 -0.7376 -0.0033
  961TIP3    H1 2889   1.825   0.880   1.766  0.6102  0.2613 -1.6325
  961TIP3    H2 2890   1.943   0.800   1.716 -0.4895 -0.8473 -2.5359
  962TIP3   OH2 2891   5.953   1.491   2.932  0.3094  0.6726 -0.5881
  962TIP3    H1 2892   6.035   1.519   2.971  0.0650  0.9003 -0.2362
  962TIP3    H2 2893   5.915   1.431   2.996 -0.6005  1.8634  0.0298
  963TIP3   OH2 2894   6.254   1.463   2.866 -0.4837 -0.0028  0.1115
  963TIP3    H1 2895   6.265   1.439   2.774  2.6020 -0.9199  0.5808
  963TIP3    H2 2896   6.227   1.555   2.864 -2.6936 -0.6132 -1.6684
  964TIP3   OH2 2897   2.354   1.922   4.617  0.6556 -0.0609 -0.4940
  964TIP3    H1 2898   2.331   1.943   4.527  0.4677 -0.9049 -0.6551
  964TIP3    H2 2899   2.446   1.897   4.614  0.8257  0.5354 -0.3376
  965TIP3   OH2 2900   3.918   2.078   1.525 -0.7036  0.7704 -0.0833
  965TIP3    H1 2901   3.918   2.152   1.585 -0.1680  0.5997  0.1398
  965TIP3    H2 2902   4.002   2.035   1.541 -0.6590  0.5887 -0.7928
  966TIP3   OH2 2903   1.716   0.339   3.841 -0.0690  0.0066  0.4226
  966TIP3    H1 2904   1.775   0.270   3.873  0.4814  0.6647  0.8493
  966TIP3    H2 2905   1.732   0.342   3.747  1.8721  1.3181  0.7290
  967TIP3   OH2 2906   5.891   2.661   2.838  0.0816 -0.2883  0.3700
  967TIP3    H1 2907   5.819   2.724   2.842  0.3366  0.0682 -0.3966
  967TIP3    H2 2908   5.958   2.704   2.785  0.3758 -1.0913  0.0664
  968TIP3   OH2 2909   2.590   5.005   1.765  0.5288 -0.0159 -0.3982
  968TIP3    H1 2910   2.524   4.938   1.780 -0.4735  1.0482  0.0756
  968TIP3    H2 2911   2.585   5.061   1.842  1.3695  0.5968 -0.7764
  969TIP3   OH2 2912   3.493   4.507   4.745  0.4348 -0.1894 -0.0488
  969TIP3    H1 2913   3.424   4.553   4.792  0.3625 -0.6143  0.2649
  969TIP3    H2 2914   3.557   4.575   4.724  0.5433 -0.0186  0.7953
  970TIP3   OH2 2915   6.145   4.174   5.117 -0.2122 -0.6451 -0.3063
  970TIP3    H1 2916   6.078   4.208   5.058 -2.1209 -2.1829  0.8747
  970TIP3    H2 2917   6.188   4.104   5.068 -2.0855 -2.2126  0.1713
  971TIP3   OH2 2918   4.885   4.057   2.541  0.3529 -0.0934 -0.2920
  971TIP3    H1 2919   4.805   4.005   2.535  1.1313 -1.2979 -0.6565
  971TIP3    H2 2920   4.893   4.079   2.634 -1.0647  1.1585 -0.4328
  972TIP3   OH2 2921   3.662   2.545   4.115 -0.2443  0.2152  0.0481
  972TIP3    H1 2922   3.691   2.596   4.191  0.6699  0.2420 -0.3130
  972TIP3    H2 2923   3.718   2.574   4.043  0.2177 -1.2290 -0.1929
  973TIP3   OH2 2924   3.186   2.740   0.615  0.6566 -0.9336 -0.3201
  973TIP3    H1 2925   3.091   2.736   0.623  0.5686  0.0536 -0.7388
  973TIP3    H2 2926   3.204   2.728   0.522  0.6504  2.5456 -0.9014
  974TIP3   OH2 2927   5.614   1.328   2.253  0.0417  0.3913 -0.4123
  974TIP3    H1 2928   5.537   1.379   2.276  1.7860  3.0455 -0.0820
  974TIP3    H2 2929   5.657   1.309   2.336 -1.2442 -3.0000 -0.3585
  975TIP3   OH2 2930   4.670   2.101   0.461  0.3453 -0.4700 -0.2518
  975TIP3    H1 2931   4.618   2.102   0.380  2.2532  1.6433 -1.5786
  975TIP3    H2 2932   4.611   2.135   0.528 -0.9904 -1.3560 -0.9412
  976TIP3   OH2 2933   5.395   0.886   5.054 -0.2179 -0.3386  0.1179
  976TIP3    H1 2934   5.432   0.898   4.967  1.2399  1.0550  0.8780
  976TIP3    H2 2935   5.418   0.797   5.078  0.2467 -0.3978 -0.5323
  977TIP3   OH2 2936   1.511   1.003   3.251 -0.4560  0.1749  0.1334
  977TIP3    H1 2937   1.578   1.018   3.319  0.5393  0.2998 -0.8393
  977TIP3    H2 2938   1.507   0.907   3.244 -0.9105  0.1500  0.6985
  978TIP3   OH2 2939   0.247   0.917   4.894  0.3806 -0.2586 -0.3199
  978TIP3    H1 2940   0.236   1.004   4.933  0.2809  0.3427 -1.6186
  978TIP3    H2 2941   0.335   0.919   4.856 -0.0491 -0.2981 -1.3435
  979TIP3   OH2 2942   3.794   3.818   2.981 -0.1833 -0.1583 -0.4323
  979TIP3    H1 2943   3.785   3.768   2.900 -1.2445  0.2098 -0.5576
  979TIP3    H2 2944   3.790   3.910   2.954 -0.4872 -0.0310  0.0214
  980TIP3   OH2 2945   6.157   2.220   4.464  0.0436  0.4179 -0.1875
  980TIP3    H1 2946   6.150   2.260   4.377 -1.2913  2.0003  0.5846
  980TIP3    H2 2947   6.235   2.260   4.502  0.6205 -0.2645 -0.6351
  981TIP3   OH2 2948   2.823   4.744   5.082 -0.3188  0.3667  0.2061
  981TIP3    H1 2949   2.868   4.827   5.096  0.1878  0.2609 -0.7392
  981TIP3    H2 2950   2.771   4.757   5.003  0.9908 -0.6837 -0.8887
  982TIP3   OH2 2951   5.597   1.485   0.683 -0.2579  0.3009 -0.0912
  982TIP3    H1 2952   5.670   1.432   0.715  0.2933  0.2609 -1.3398
  982TIP3    H2 2953   5.519   1.440   0.714  0.2266  0.3503  1.2866
  983TIP3   OH2 2954   0.506   2.928   0.947  0.2311 -0.2868  0.4648
  983TIP3    H1 2955   0.537   2.926   1.038  1.3218 -0.7944  0.0941
  983TIP3    H2 2956   0.554   3.001   0.908 -0.4959  0.1498  0.3776
  984TIP3   OH2 2957   3.654   3.013   0.930  0.1349 -0.3046 -0.2482
  984TIP3    H1 2958   3.558   3.007   0.925  0.0741  0.2012  0.2009
  984TIP3    H2 2959   3.681   3.037   0.842 -0.1115 -0.8806 -0.4891
  985TIP3   OH2 2960   1.714   5.513   0.980  0.1379 -0.0678  0.0173
  985TIP3    H1 2961   1.780   5.454   0.943  1.5893  1.5512 -0.1248
  985TIP3    H2 2962   1.747   5.601   0.961 -0.3196  0.8592  2.9189
  986TIP3   OH2 2963   2.911   2.351   0.243  0.0861  0.5271  0.3265
  986TIP3    H1 2964   2.891   2.419   0.179 -1.2074 -0.2691 -0.1617
  986TIP3    H2 2965   2.900   2.394   0.328 -0.6241  0.9642  0.0246
  987TIP3   OH2 2966   0.029   4.541   0.607 -0.5671 -0.4043  0.5178
  987TIP3    H1 2967   0.031   4.490   0.688 -0.4875 -1.9077 -0.3966
  987TIP3    H2 2968   0.084   4.492   0.546 -1.2052  0.3154 -0.6723
  988TIP3   OH2 2969   6.239   1.428   3.132 -0.6929  0.6572  0.6041
  988TIP3    H1 2970   6.256   1.419   3.039  0.2704  0.9654  0.7355
  988TIP3    H2 2971   6.229   1.338   3.164 -2.2782  0.5961  0.0053
  989TIP3   OH2 2972   6.265   5.616   4.674 -0.3866 -0.0272  0.0981
  989TIP3    H1 2973   6.283   5.594   4.766 -1.0024  1.4495  0.5952
  989TIP3    H2 2974   6.350   5.643   4.639  0.0079 -1.3545 -0.0083
  990TIP3   OH2 2975   2.697   0.313   1.285  0.0371 -0.1887 -0.4324
  990TIP3    H1 2976   2.653   0.379   1.232 -0.4712 -0.0864  0.0950
  990TIP3    H2 2977   2.696   0.234   1.232 -0.2169 -0.0148 -0.6896
  991TIP3   OH2 2978   2.780   0.784   3.768  0.8670  0.2711  0.0506
  991TIP3    H1 2979   2.797   0.786   3.674 -0.0494  0.6841 -0.1116
  991TIP3    H2 2980   2.688   0.758   3.775  1.3275 -1.2921  0.8811
  992TIP3   OH2 2981   4.009   2.100   2.960 -0.1186 -0.3428  0.3453
  992TIP3    H1 2982   4.053   2.045   2.895  1.3430  1.5670 -0.3866
  992TIP3    H2 2983   3.927   2.127   2.917 -0.3826 -1.1304  0.3355
  993TIP3   OH2 2984   2.116   1.466   4.152  0.0623  0.5046 -0.3574
  993TIP3    H1 2985   2.133   1.541   4.094 -0.5813  0.7678 -0.2154
  993TIP3    H2 2986   2.093   1.395   4.093  0.1988  0.5488 -0.4658
  994TIP3   OH2 2987   1.786   5.134   2.111  0.0891 -0.3333  0.5215
  994TIP3    H1 2988   1.807   5.105   2.200  1.2574 -1.9814 -0.2459
  994TIP3    H2 2989   1.702   5.092   2.091 -0.2251  0.1208  0.8654
  995TIP3   OH2 2990   2.359   4.289   1.707 -0.4213 -0.2312  0.0872
  995TIP3    H1 2991   2.406   4.224   1.758 -0.4459  0.4396  0.9848
  995TIP3    H2 2992   2.353   4.251   1.619 -1.0278 -1.7422  0.7454
  996TIP3   OH2 2993   4.738   2.782   1.603 -0.5241 -0.2237  0.3865
  996TIP3    H1 2994   4.823   2.739   1.596 -0.7437 -0.6325  0.2112
  996TIP3    H2 2995   4.737   2.846   1.532  0.2146  0.8056  1.2591
  997TIP3   OH2 2996   0.475   0.829   5.126  0.1953  0.5965 -0.1825
  997TIP3    H1 2997   0.524   0.847   5.045 -0.0644  0.4289 -0.3768
  997TIP3    H2 2998   0.410   0.764   5.101  0.1639  0.4848  0.1821
  998TIP3   OH2 2999   6.057   0.109   3.102  0.0033  0.0262  0.5062
  998TIP3    H1 3000   6.027   0.177   3.041 -1.2596 -0.9987 -0.0920
  998TIP3    H2 3001   5.987   0.043   3.099  0.2810 -0.4057  2.5161
  999TIP3   OH2 3002   2.234   5.383   0.021 -0.1623  0.0227 -0.4036
  999TIP3    H1 3003   2.233   5.479   0.018 -1.3991  0.0205 -0.3186
  999TIP3    H2 3004   2.173   5.360   0.090  0.1921 -0.8380 -0.3650
 1000TIP3   OH2 3005   1.131   1.984   3.879 -0.8980  0.2514  0.2785
 1000TIP3    H1 3006   1.079   1.906   3.897 -1.2171 -0.1788 -2.1108
 1000TIP3    H2 3007   1.202   1.981   3.942 -1.2727 -1.6078  0.6700
 1001TIP3   OH2 3008   1.390   3.684   0.913  0.2612 -0.2629 -0.5230
 1001TIP3    H1 3009   1.463   3.628   0.940  0.3604  0.6946  1.3166
 1001TIP3    H2 3010   1.312   3.630   0.925  0.4324 -0.3199  0.3621
 1002TIP3   OH2 3011   1.444   1.164   1.502  0.0916 -0.0356 -0.5526
 1002TIP3    H1 3012   1.441   1.253   1.537  0.1013 -0.9838  2.1467
 1002TIP3    H2 3013   1.527   1.159   1.456  0.7482  0.9554  0.4787
 1003TIP3   OH2 3014   0.607   2.273   2.537 -0.3443 -0.3294 -0.3978
 1003TIP3    H1 3015   0.610   2.270   2.441  1.5545  0.3077 -0.4004
 1003TIP3    H2 3016   0.626   2.364   2.558 -1.2531 -0.3585  0.5906
 1004TIP3   OH2 3017   4.321   4.869   4.341 -0.2532  0.0824 -0.4517
 1004TIP3    H1 3018   4.239   4.882   4.388 -1.0283  1.9562 -2.1224
 1004TIP3    H2 3019   4.389   4.897   4.402 -0.9927  0.0597  0.3976
 1005TIP3   OH2 3020   1.581   3.854   1.218  0.0627 -0.2116  0.4560
 1005TIP3    H1 3021   1.607   3.889   1.303 -0.6034 -0.6255  0.8327
 1005TIP3    H2 3022   1.568   3.761   1.233  0.6369 -0.4151 -0.2699
 1006TIP3   OH2 3023   0.363   0.820   3.592  0.1932 -0.0516  0.0573
 1006TIP3    H1 3024   0.273   0.792   3.575  0.3639 -0.6845  0.1447
 1006TIP3    H2 3025   0.354   0.904   3.637 -0.3546 -0.0958  0.0402
 1007TIP3   OH2 3026   4.268   1.439   4.230  0.1969 -0.0976  0.7219
 1007TIP3    H1 3027   4.359   1.410   4.222  0.1489  0.1739 -1.2289
 1007TIP3    H2 3028   4.248   1.480   4.146 -1.8980 -0.6062  0.9134
 1008TIP3   OH2 3029   4.743   0.774   5.079  0.5232 -0.4289 -0.3955
 1008TIP3    H1 3030   4.670   0.836   5.082  1.0187  0.1245  0.8370
 1008TIP3    H2 3031   4.702   0.689   5.062 -0.5972 -0.3877  1.8491
 1009TIP3   OH2 3032   3.386   2.428   1.630  0.1646 -0.0477  0.0975
 1009TIP3    H1 3033   3.462   2.456   1.682  1.3657 -0.0855 -1.5444
 1009TIP3    H2 3034   3.363   2.505   1.578  1.0030 -0.8820 -1.5858
 1010TIP3   OH2 3035   4.855   5.305   4.029 -0.2265  0.1142  0.6961
 1010TIP3    H1 3036   4.875   5.332   3.940 -2.6775 -0.2602 -0.0468
 1010TIP3    H2 3037   4.803   5.377   4.065  0.4868  0.1303  1.7391
 1011TIP3   OH2 3038   2.379   0.778   4.055 -0.7113  0.5177  0.3654
 1011TIP3    H1 3039   2.401   0.767   4.148  0.8789  1.7327  0.1762
 1011TIP3    H2 3040   2.291   0.743   4.047 -0.9161  0.4689  2.3579
 1012TIP3   OH2 3041   1.283   1.819   3.681  0.6130 -0.3465 -0.1487
 1012TIP3    H1 3042   1.303   1.907   3.648 -1.0778 -0.0119 -0.4206
 1012TIP3    H2 3043   1.192   1.825   3.710  0.6600 -1.8540  0.4052
 1013TIP3   OH2 3044   2.182   4.012   2.466  0.1727 -0.1115 -0.2743
 1013TIP3    H1 3045   2.254   3.952   2.485 -0.7618 -1.6817 -1.3705
 1013TIP3    H2 3046   2.162   3.997   2.374 -1.8639 -0.1230  0.1179
 1014TIP3   OH2 3047   3.340   4.307   2.545 -0.3092  0.5611  0.2350
 1014TIP3    H1 3048   3.325   4.218   2.513  2.0137  1.0221 -2.5995
 1014TIP3    H2 3049   3.269   4.359   2.508 -0.5618  0.2148  0.2354
 1015TIP3   OH2 3050   3.741   4.525   0.347 -0.3815  0.4999 -0.1998
 1015TIP3    H1 3051   3.800   4.592   0.313 -0.7203 -0.0345 -1.9169
 1015TIP3    H2 3052   3.799   4.462   0.390  0.3619 -0.0575 -1.9200
 1016TIP3   OH2 3053   5.586   3.037   3.420  0.0613 -0.9552 -0.0225
 1016TIP3    H1 3054   5.572   3.118   3.371  1.2857 -1.6605 -1.6343
 1016TIP3    H2 3055   5.501   2.993   3.419 -0.3494 -0.1770 -0.0264
 1017TIP3   OH2 3056   4.160   5.858   1.978  0.1920 -0.4394  0.5653
 1017TIP3    H1 3057   4.128   5.772   1.949  0.7548 -0.0302 -1.4323
 1017TIP3    H2 3058   4.083   5.913   1.979  0.1418 -0.4871 -0.1245
 1018TIP3   OH2 3059   3.015   5.972   2.112  0.4702  0.5142  0.0922
 1018TIP3    H1 3060   3.059   5.924   2.042  1.8132  0.6371  0.8176
 1018TIP3    H2 3061   2.943   5.914   2.140  0.0907  0.3460 -1.1727
 1019TIP3   OH2 3062   6.265   4.069   3.421  0.2860 -0.5020  0.0576
 1019TIP3    H1 3063   6.306   3.988   3.388  2.1107 -0.3094  1.6478
 1019TIP3    H2 3064   6.339   4.128   3.436 -0.9217  1.0627  0.0364
 1020TIP3   OH2 3065   3.171   1.693   3.465  0.3340  0.1618 -0.3012
 1020TIP3    H1 3066   3.136   1.709   3.378  1.3949 -0.5396 -0.8921
 1020TIP3    H2 3067   3.129   1.758   3.521 -1.3440 -0.2099 -1.0764
 1021TIP3   OH2 3068   0.764   1.625   1.505  0.4171 -0.1028 -0.2711
 1021TIP3    H1 3069   0.849   1.591   1.533  0.7953 -0.3600 -1.6882
 1021TIP3    H2 3070   0.762   1.611   1.411 -1.1470  0.0460 -0.2819
 1022TIP3   OH2 3071   5.305   1.952   3.164 -0.0319 -0.5016 -0.3062
 1022TIP3    H1 3072   5.369   1.918   3.102  2.5428  1.5454  0.9801
 1022TIP3    H2 3073   5.288   1.879   3.224 -0.4610 -1.6723 -1.8119
 1023TIP3   OH2 3074   2.361   2.430   3.883 -0.1465 -0.1456  0.2796
 1023TIP3    H1 3075   2.397   2.488   3.951  0.5014 -0.7355  0.4494
 1023TIP3    H2 3076   2.432   2.419   3.821  0.1148 -1.6105  0.7983
 1024TIP3   OH2 3077   0.127   2.233   3.513  0.1739 -0.1904  0.3160
 1024TIP3    H1 3078   0.194   2.286   3.556  0.3181  0.0510 -0.1943
 1024TIP3    H2 3079   0.173   2.188   3.442  0.1372 -1.3215  0.9841
 1025TIP3   OH2 3080   0.284   3.298   3.863 -0.3214  0.0667  0.0746
 1025TIP3    H1 3081   0.236   3.320   3.783  1.7297  0.9114 -1.0212
 1025TIP3    H2 3082   0.249   3.357   3.929 -0.6065  0.8817 -0.7713
 1026TIP3   OH2 3083   2.672   5.097   4.931 -0.2207  0.1307 -0.5231
 1026TIP3    H1 3084   2.618   5.133   5.001 -0.0018  1.6250 -1.0739
 1026TIP3    H2 3085   2.756   5.077   4.973 -0.3422  0.2873 -0.2054
 1027TIP3   OH2 3086   0.990   5.465   2.709  0.1518 -0.0504  0.2028
 1027TIP3    H1 3087   1.049   5.530   2.671 -0.3544 -0.4423 -1.3257
 1027TIP3    H2 3088   1.001   5.388   2.653  0.1473 -1.0291  1.4990
 1028TIP3   OH2 3089   2.348   5.371   1.818 -0.1528 -0.2776  0.3875
 1028TIP3    H1 3090   2.364   5.461   1.846 -1.8718  0.0121  0.5685
 1028TIP3    H2 3091   2.398   5.362   1.737 -1.8488  1.7163 -1.0314
 1029TIP3   OH2 3092   2.989   3.587   1.706 -0.3634 -0.1075  0.9132
 1029TIP3    H1 3093   3.071   3.551   1.739 -0.0596  0.1281  0.4316
 1029TIP3    H2 3094   2.921   3.527   1.738  0.1244 -1.0694  0.1788
 1030TIP3   OH2 3095   6.245   0.726   2.204  0.0833  0.4469 -0.8079
 1030TIP3    H1 3096   6.288   0.649   2.166 -1.0316 -1.3319  1.3015
 1030TIP3    H2 3097   6.171   0.690   2.253  0.8006  2.6044  2.1185
 1031TIP3   OH2 3098   0.175   4.793   3.797 -0.8839 -0.1835  0.0613
 1031TIP3    H1 3099   0.173   4.882   3.832 -1.7775 -0.6383  1.2468
 1031TIP3    H2 3100   0.215   4.740   3.867  0.5211 -0.5743 -1.0074
 1032TIP3   OH2 3101   0.755   5.604   3.570 -0.2309 -0.2038  0.2410
 1032TIP3    H1 3102   0.738   5.512   3.588 -1.6576  0.2008  1.1577
 1032TIP3    H2 3103   0.770   5.643   3.657 -0.3387  0.5419 -0.0659
 1033TIP3   OH2 3104   1.217   5.544   0.946  0.3091 -0.1256 -0.6012
 1033TIP3    H1 3105   1.138   5.535   0.999  1.3284  1.0837  1.1989
 1033TIP3    H2 3106   1.215   5.468   0.887 -1.4685 -0.8561  0.3392
 1034TIP3   OH2 3107   2.950   5.030   2.550  0.3303  0.2202 -0.0991
 1034TIP3    H1 3108   2.930   5.095   2.617  0.9609  0.3878 -0.0657
 1034TIP3    H2 3109   2.880   4.966   2.557  0.1700  0.4502  0.4439
 1035TIP3   OH2 3110   5.654   5.439   3.708  0.6869  0.0247 -0.1379
 1035TIP3    H1 3111   5.674   5.527   3.741 -0.4546  1.1210 -2.1080
 1035TIP3    H2 3112   5.559   5.441   3.691  1.0427 -0.6513 -2.6036
 1036TIP3   OH2 3113   0.637   2.713   0.846 -0.4152 -0.5402 -0.1924
 1036TIP3    H1 3114   0.706   2.778   0.848 -0.6272 -0.3216  0.2898
 1036TIP3    H2 3115   0.559   2.759   0.877 -0.7608 -0.8027 -0.6495
 1037TIP3   OH2 3116   5.057   2.131   3.534 -0.8053  0.1219 -0.7990
 1037TIP3    H1 3117   5.126   2.084   3.582 -0.8167  0.7456 -0.1441
 1037TIP3    H2 3118   5.096   2.152   3.449 -0.5655 -0.4764 -0.8360
 1038TIP3   OH2 3119   3.968   3.222   0.592 -0.0468  0.0280 -0.1633
 1038TIP3    H1 3120   4.037   3.286   0.574 -0.9169  0.9906 -0.2004
 1038TIP3    H2 3121   4.013   3.149   0.635  0.9666  0.6777 -0.0827
 1039TIP3   OH2 3122   2.843   5.513   1.444  0.1491 -0.3258  0.3302
 1039TIP3    H1 3123   2.871   5.593   1.489 -0.6399 -0.3542  0.8847
 1039TIP3    H2 3124   2.751   5.504   1.467 -0.5381  0.1295 -1.9940
 1040TIP3   OH2 3125   2.330   1.400   5.179 -0.7471  0.0365 -0.0554
 1040TIP3    H1 3126   2.317   1.374   5.088 -0.9259  3.7866 -1.2635
 1040TIP3    H2 3127   2.263   1.467   5.195 -1.1968 -0.9930  3.1406
 1041TIP3   OH2 3128   1.181   4.781   2.656  0.5706  0.1908  0.2487
 1041TIP3    H1 3129   1.166   4.805   2.564  0.5120  0.8030  0.4111
 1041TIP3    H2 3130   1.263   4.825   2.678  0.9870 -0.5850  0.2704
 1042TIP3   OH2 3131   5.075   3.034   3.955  0.1754  0.1178  0.3793
 1042TIP3    H1 3132   5.038   3.088   4.024  1.6906  1.6700  0.0537
 1042TIP3    H2 3133   5.108   2.956   4.000 -0.7657  0.0949  1.0600
 1043TIP3   OH2 3134   2.932   0.065   2.303  0.2618  0.1563 -0.2789
 1043TIP3    H1 3135   2.885   0.117   2.368 -0.1688  1.3600 -1.5180
 1043TIP3    H2 3136   3.006   0.119   2.277  0.5468 -0.4017 -0.6529
 1044TIP3   OH2 3137   1.905   0.952   2.188  1.0084  0.2962 -0.4069
 1044TIP3    H1 3138   1.965   1.009   2.236  1.6916 -1.7135  1.2800
 1044TIP3    H2 3139   1.871   0.891   2.254 -0.7707 -0.3829 -1.8498
 1045TIP3   OH2 3140   5.384   4.332   0.709 -0.0777  0.5132  0.5081
 1045TIP3    H1 3141   5.291   4.348   0.724  0.0075 -0.0263  1.7675
 1045TIP3    H2 3142   5.422   4.327   0.797  0.7809 -1.2721  0.0883
 1046TIP3   OH2 3143   3.074   5.360   2.771 -0.1308  0.1649 -0.1709
 1046TIP3    H1 3144   3.108   5.323   2.852 -0.5004  1.1547  0.4612
 1046TIP3    H2 3145   3.044   5.448   2.796 -0.3588  0.4405 -1.3541
 1047TIP3   OH2 3146   2.989   0.321   5.004  0.7903  0.4019 -0.5456
 1047TIP3    H1 3147   2.977   0.297   5.096  1.3531 -0.3279 -0.6493
 1047TIP3    H2 3148   2.906   0.300   4.962  0.7704  0.0659 -0.3372
 1048TIP3   OH2 3149   6.183   5.271   3.572 -0.1765 -0.2915 -0.4384
 1048TIP3    H1 3150   6.221   5.293   3.487 -1.8894 -2.0530 -1.7360
 1048TIP3    H2 3151   6.115   5.337   3.586 -0.6787 -0.6732 -1.0258
 1049TIP3   OH2 3152   2.897   2.030   4.354  0.1559  0.0328  0.8942
 1049TIP3    H1 3153   2.884   2.106   4.297  2.6803 -0.3539 -0.3380
 1049TIP3    H2 3154   2.918   2.068   4.440 -2.4980  0.6231  1.3636
 1050TIP3   OH2 3155   2.203   0.088   2.630  0.6474 -0.1531 -0.1574
 1050TIP3    H1 3156   2.163   0.146   2.695  0.8779  0.0032 -0.1529
 1050TIP3    H2 3157   2.192   0.000   2.667 -0.4676 -0.2071 -0.5665
 1051TIP3   OH2 3158   0.474   4.383   3.804  0.4782  0.4838  0.1634
 1051TIP3    H1 3159   0.451   4.314   3.742  0.8622  1.0274 -0.6045
 1051TIP3    H2 3160   0.396   4.393   3.860  0.8219 -1.3185  1.0148
 1052TIP3   OH2 3161   6.027   2.946   1.170 -0.4509 -0.2792 -0.2808
 1052TIP3    H1 3162   6.100   2.889   1.195 -0.0607 -0.6295 -2.0695
 1052TIP3    H2 3163   6.058   3.035   1.187 -0.9775 -0.4918  2.3083
 1053TIP3   OH2 3164   2.242   4.566   0.292  0.1578  0.0576 -0.3612
 1053TIP3    H1 3165   2.322   4.527   0.258  0.7635  1.4388 -0.5571
 1053TIP3    H2 3166   2.178   4.494   0.292  1.0556 -0.7582 -1.3188
 1054TIP3   OH2 3167   3.279   3.014   3.666  1.2365  0.2061  0.4118
 1054TIP3    H1 3168   3.267   3.077   3.737  1.3500  1.3540 -0.5578
 1054TIP3    H2 3169   3.264   3.064   3.586 -0.5342 -1.4144 -0.3731
 1055TIP3   OH2 3170   3.233   1.260   0.946 -0.1696  0.3525 -0.0880
 1055TIP3    H1 3171   3.263   1.262   1.037 -0.4506 -2.5354  0.1526
 1055TIP3    H2 3172   3.314   1.259   0.894  0.1230  5.3594 -0.2605
 1056TIP3   OH2 3173   0.021   5.256   3.794 -0.0981  0.2388 -0.0623
 1056TIP3    H1 3174  -0.048   5.239   3.730  1.5271 -1.6533 -1.4502
 1056TIP3    H2 3175   0.064   5.336   3.764 -0.7085  0.5501 -0.0979
 1057TIP3   OH2 3176   1.082   2.715   2.835  0.3377  0.1437  0.0480
 1057TIP3    H1 3177   1.138   2.653   2.789  0.5915 -0.3342  0.9851
 1057TIP3    H2 3178   0.993   2.688   2.813  0.4482  0.7419 -1.2300
 1058TIP3   OH2 3179   3.278   3.055   2.298  0.3362 -0.3339  0.7989
 1058TIP3    H1 3180   3.281   2.965   2.329  0.8796 -0.1876  1.1907
 1058TIP3    H2 3181   3.370   3.084   2.300  0.3431 -0.2059 -0.6147
 1059TIP3   OH2 3182   0.604   1.117   5.062 -0.1926 -0.4938  0.2063
 1059TIP3    H1 3183   0.590   1.033   5.018 -1.2126  0.1821 -0.8323
 1059TIP3    H2 3184   0.525   1.130   5.114  0.9881 -1.2614  2.2731
 1060TIP3   OH2 3185   1.472   1.499   2.755  0.2844 -0.1304 -0.3763
 1060TIP3    H1 3186   1.378   1.482   2.748  0.3734 -0.0645 -2.6532
 1060TIP3    H2 3187   1.478   1.595   2.761  0.2074 -0.1088 -0.6162
 1061TIP3   OH2 3188   0.769   4.411   2.418 -0.0467 -0.6701  0.0279
 1061TIP3    H1 3189   0.792   4.347   2.350  0.4189 -1.4872  0.9304
 1061TIP3    H2 3190   0.778   4.363   2.500 -0.1292  0.4404  0.7069
 1062TIP3   OH2 3191   1.964   1.030   3.179 -0.3112 -0.2587 -0.2355
 1062TIP3    H1 3192   2.031   1.088   3.216 -0.7956 -0.0514  0.3183
 1062TIP3    H2 3193   2.014   0.955   3.145  0.1966 -0.1464  0.2408
 1063TIP3   OH2 3194   4.829   3.317   1.825 -0.3172  0.4821 -0.1328
 1063TIP3    H1 3195   4.856   3.358   1.907 -0.1197  1.5843 -0.7310
 1063TIP3    H2 3196   4.742   3.283   1.843 -0.1035  0.3288  0.6596
 1064TIP3   OH2 3197   4.811   4.250   2.203 -0.5477 -0.3040  0.5591
 1064TIP3    H1 3198   4.835   4.309   2.274 -0.4863 -1.3398  1.4234
 1064TIP3    H2 3199   4.780   4.308   2.133 -0.3541  0.7483  1.3231
 1065TIP3   OH2 3200   2.859   3.638   0.020  0.2146 -0.1724  0.0276
 1065TIP3    H1 3201   2.765   3.637   0.034  0.2635 -0.4250  0.3552
 1065TIP3    H2 3202   2.896   3.666   0.104  0.3719  1.2606 -0.4867
 1066TIP3   OH2 3203   1.998   4.216   1.011  0.2380 -0.0093 -0.0006
 1066TIP3    H1 3204   2.012   4.311   1.018 -1.9881  0.2708  2.7094
 1066TIP3    H2 3205   2.061   4.178   1.072  1.0997 -0.3036 -1.0546
 1067TIP3   OH2 3206   4.422   4.282   1.300 -0.2522  0.3618 -0.0908
 1067TIP3    H1 3207   4.346   4.338   1.284 -1.7607 -1.8650 -1.2528
 1067TIP3    H2 3208   4.437   4.238   1.217  0.6409 -1.1868  0.8457
 1068TIP3   OH2 3209   4.225   2.498   0.312 -0.4262 -0.4613 -0.3347
 1068TIP3    H1 3210   4.239   2.426   0.250 -1.9886 -1.0656 -0.0258
 1068TIP3    H2 3211   4.263   2.466   0.395  0.3737 -0.2272 -0.5956
 1069TIP3   OH2 3212   3.425   5.423   4.943 -0.1310  1.0120 -0.1711
 1069TIP3    H1 3213   3.483   5.485   4.987  0.1264  0.3718  0.4089
 1069TIP3    H2 3214   3.337   5.458   4.958 -0.0982  0.4842  1.4068
 1070TIP3   OH2 3215   2.894   5.603   3.118 -0.2343  0.8693  0.4460
 1070TIP3    H1 3216   2.949   5.525   3.131 -1.8426 -0.7596 -1.8664
 1070TIP3    H2 3217   2.944   5.658   3.058 -0.3860  0.1401 -0.3724
 1071TIP3   OH2 3218   3.874   1.083   2.610  0.4333 -0.5488 -0.7118
 1071TIP3    H1 3219   3.837   1.163   2.574  0.9553 -0.4986 -1.1699
 1071TIP3    H2 3220   3.838   1.013   2.555  1.6420 -0.4269 -1.7191
 1072TIP3   OH2 3221   3.828   5.514   3.666 -0.4368 -0.2791 -0.1499
 1072TIP3    H1 3222   3.762   5.454   3.699  0.4969 -0.8180  0.8134
 1072TIP3    H2 3223   3.906   5.460   3.654  0.0249  0.4709 -0.5838
 1073TIP3   OH2 3224   4.506   1.389   0.021 -0.3485 -0.1419  0.2938
 1073TIP3    H1 3225   4.452   1.334   0.077 -0.1708  0.5325  1.1584
 1073TIP3    H2 3226   4.465   1.384  -0.065 -0.3241 -1.6190  0.3467
 1074TIP3   OH2 3227   6.198   1.143   1.826 -0.0341  0.5574 -0.2518
 1074TIP3    H1 3228   6.271   1.142   1.888  0.8154 -0.3986 -1.2221
 1074TIP3    H2 3229   6.151   1.061   1.842 -0.3553  0.7362 -0.2585
 1075TIP3   OH2 3230   2.032   2.703   1.790  0.0260  0.3299  0.6930
 1075TIP3    H1 3231   2.008   2.699   1.697 -1.1218 -1.2960  1.0059
 1075TIP3    H2 3232   2.050   2.795   1.807  3.6006  0.3222 -1.8917
 1076TIP3   OH2 3233   6.035   5.085   2.504 -0.4485 -0.4909  0.2354
 1076TIP3    H1 3234   5.968   5.058   2.440 -1.0068  1.1808  0.0600
 1076TIP3    H2 3235   6.099   5.134   2.452  0.1892 -0.8787  0.6401
 1077TIP3   OH2 3236   3.475   0.489   3.739  0.2596  0.2687  0.4091
 1077TIP3    H1 3237   3.483   0.543   3.817 -1.6478 -1.3758  1.8529
 1077TIP3    H2 3238   3.553   0.434   3.740  1.2265  1.6015  0.0198
 1078TIP3   OH2 3239   3.286   2.729   3.431  0.2362  0.4712  0.7377
 1078TIP3    H1 3240   3.321   2.687   3.509 -0.3839 -0.9266  0.2861
 1078TIP3    H2 3241   3.354   2.716   3.364  0.3370  0.8110  0.7678
 1079TIP3   OH2 3242   1.199   5.275   1.544 -0.0732 -0.3978 -0.3264
 1079TIP3    H1 3243   1.109   5.260   1.516 -0.0052  1.6717 -1.8465
 1079TIP3    H2 3244   1.252   5.225   1.482 -0.1218  0.0825 -0.7660
 1080TIP3   OH2 3245   0.430   0.272   1.000  0.4843  0.2389  0.1582
 1080TIP3    H1 3246   0.470   0.295   1.084  2.3878  1.6767 -1.0749
 1080TIP3    H2 3247   0.419   0.355   0.955 -1.8312 -0.3622 -0.5180
 1081TIP3   OH2 3248   1.165   3.252   1.569  0.2693  0.5548 -0.1984
 1081TIP3    H1 3249   1.162   3.319   1.637  0.6790  1.9381 -1.4772
 1081TIP3    H2 3250   1.249   3.209   1.581  0.1850  0.5459  0.3802
 1082TIP3   OH2 3251   0.943   0.136   2.049  0.5423 -0.1651  0.0882
 1082TIP3    H1 3252   0.909   0.198   2.113  1.0791  1.4784 -1.1379
 1082TIP3    H2 3253   0.997   0.076   2.100  0.0340  0.3889  1.3220
 1083TIP3   OH2 3254   1.690   2.744   2.268 -0.4681  0.4998 -0.6009
 1083TIP3    H1 3255   1.706   2.758   2.362 -1.1771 -2.2371  0.0306
 1083TIP3    H2 3256   1.768   2.779   2.225  1.1080 -0.4873  1.2685
 1084TIP3   OH2 3257   2.627   2.273   0.188 -0.4172  0.0146  0.1692
 1084TIP3    H1 3258   2.571   2.348   0.169 -0.5537 -0.3651 -1.0347
 1084TIP3    H2 3259   2.714   2.300   0.156 -0.0453  0.3559  1.4346
 1085TIP3   OH2 3260   6.058   3.965   3.584 -0.2993 -0.3452  0.0995
 1085TIP3    H1 3261   6.122   3.954   3.514 -0.5408 -3.2845  0.2358
 1085TIP3    H2 3262   5.974   3.969   3.539 -0.3705 -1.2041  0.1414
 1086TIP3   OH2 3263   5.157   1.607   0.281 -0.0977  0.0032 -0.1387
 1086TIP3    H1 3264   5.205   1.666   0.339 -1.3868  0.4963  0.4600
 1086TIP3    H2 3265   5.201   1.616   0.196  0.2097  1.2496  0.1333
 1087TIP3   OH2 3266   4.654   0.154   4.239 -0.2422  0.1668  0.0787
 1087TIP3    H1 3267   4.597   0.184   4.169 -2.1602 -0.6404  1.2111
 1087TIP3    H2 3268   4.703   0.081   4.200 -0.5554  0.3622 -0.6963
 1088TIP3   OH2 3269   0.589   3.951   0.327  0.3322 -0.6259  0.5730
 1088TIP3    H1 3270   0.662   3.971   0.268  0.4465 -0.3466  0.7984
 1088TIP3    H2 3271   0.619   3.875   0.377  0.1158 -1.0390  0.0736
 1089TIP3   OH2 3272   4.264   5.804   3.193 -0.0564  0.0268 -0.8100
 1089TIP3    H1 3273   4.359   5.787   3.189  0.0354  0.6904 -2.7549
 1089TIP3    H2 3274   4.224   5.719   3.177  0.2812  0.1714 -2.5990
 1090TIP3   OH2 3275   3.084   4.660   2.264 -0.2717 -0.0055  0.2080
 1090TIP3    H1 3276   3.087   4.742   2.312 -1.2465 -0.9177  1.9145
 1090TIP3    H2 3277   3.106   4.593   2.329  2.1445 -1.0185 -1.4993
 1091TIP3   OH2 3278   2.559   0.518   3.998  0.2762 -0.0663 -0.1105
 1091TIP3    H1 3279   2.644   0.560   4.008 -0.8045  1.8177  2.2350
 1091TIP3    H2 3280   2.505   0.584   3.953  0.3363 -1.8075 -3.0185
 1092TIP3   OH2 3281   2.482   5.866   2.594 -0.5220 -0.1169 -0.4067
 1092TIP3    H1 3282   2.415   5.819   2.544 -0.3748  2.2214 -2.9907
 1092TIP3    H2 3283   2.454   5.958   2.591  0.9963  0.4712  1.4895
 1093TIP3   OH2 3284   2.835   0.983   0.227  0.0628  0.0100  0.2255
 1093TIP3    H1 3285   2.779   1.019   0.159  0.2073  1.9787  1.0747
 1093TIP3    H2 3286   2.912   0.951   0.180 -1.6412 -2.6989 -0.9439
 1094TIP3   OH2 3287   3.681   0.670   2.207  0.2390 -0.0287 -0.7050
 1094TIP3    H1 3288   3.649   0.592   2.162  3.9973 -0.5849 -2.7863
 1094TIP3    H2 3289   3.618   0.684   2.279 -2.8575 -2.4789 -2.6654
 1095TIP3   OH2 3290   0.409   4.890   2.276 -0.2474 -0.4225  0.1125
 1095TIP3    H1 3291   0.323   4.848   2.268  0.0721 -0.9923 -0.3268
 1095TIP3    H2 3292   0.434   4.911   2.186 -0.0018 -0.0870  0.2538
 1096TIP3   OH2 3293   5.102   4.525   0.043  0.0654 -0.0118  0.5523
 1096TIP3    H1 3294   5.124   4.591   0.109 -0.2303 -0.7854  1.4418
 1096TIP3    H2 3295   5.027   4.479   0.080 -0.9411  0.3795 -0.9093
 1097TIP3   OH2 3296   2.778   5.457   2.868 -0.2134  0.4075  0.4973
 1097TIP3    H1 3297   2.785   5.459   2.963  0.8589 -0.1617  0.4441
 1097TIP3    H2 3298   2.755   5.547   2.843  0.9615  0.9174  1.1924
 1098TIP3   OH2 3299   5.278   4.778   3.411  0.4653 -0.0258  0.1145
 1098TIP3    H1 3300   5.217   4.850   3.428  0.0684  0.0259 -1.4134
 1098TIP3    H2 3301   5.258   4.713   3.479  0.1246  0.8532  0.8807
 1099TIP3   OH2 3302   5.981   2.569   0.056 -0.3866 -0.4321 -0.1478
 1099TIP3    H1 3303   5.921   2.567   0.130  0.0485  0.1292  0.2365
 1099TIP3    H2 3304   5.938   2.626  -0.009  0.2375  0.9296  0.5989
 1100TIP3   OH2 3305   3.644   1.328   4.023  0.0012 -0.1886 -0.0815
 1100TIP3    H1 3306   3.649   1.420   4.050 -0.8148  0.1456 -0.9931
 1100TIP3    H2 3307   3.729   1.310   3.982  1.4147 -0.8130  2.8662
 1101TIP3   OH2 3308   5.471   3.936   5.051  0.5376 -0.2885 -0.0817
 1101TIP3    H1 3309   5.380   3.962   5.037  0.3031 -1.0202  0.0424
 1101TIP3    H2 3310   5.516   3.963   4.971 -0.0713 -1.1761 -0.7472
 1102TIP3   OH2 3311   0.284   3.847   3.018  0.3759 -0.1976  0.4166
 1102TIP3    H1 3312   0.357   3.874   2.963  0.2282 -3.4859 -1.5975
 1102TIP3    H2 3313   0.206   3.871   2.968  0.1138  0.5229  1.1466
 1103TIP3   OH2 3314   2.836   4.974   1.388  0.0250  0.0799  0.5577
 1103TIP3    H1 3315   2.751   4.930   1.390  0.8132 -1.5912 -0.4022
 1103TIP3    H2 3316   2.830   5.035   1.314 -1.2904  2.1806  2.2781
 1104TIP3   OH2 3317   4.312   1.138   2.549  0.3806 -0.0852 -0.0103
 1104TIP3    H1 3318   4.381   1.200   2.523  1.7382 -0.7496  1.7839
 1104TIP3    H2 3319   4.242   1.193   2.584  1.1581  0.5004  0.6597
 1105TIP3   OH2 3320   3.744   1.034   4.977  0.7642  0.4089 -0.2052
 1105TIP3    H1 3321   3.806   0.986   4.922 -1.0275 -0.9257 -1.1894
 1105TIP3    H2 3322   3.796   1.066   5.051  2.4005 -1.5238 -0.4497
 1106TIP3   OH2 3323   2.654   0.077   1.126 -0.2437 -0.6800  0.0209
 1106TIP3    H1 3324   2.666   0.146   1.062 -0.1648 -0.5674  0.1553
 1106TIP3    H2 3325   2.628  -0.000   1.075  0.1017 -0.6668 -0.1755
 1107TIP3   OH2 3326   0.069   2.570   1.302  0.2595 -0.1273  0.0630
 1107TIP3    H1 3327   0.077   2.479   1.272 -0.2145 -0.3422  0.5656
 1107TIP3    H2 3328   0.138   2.580   1.368  0.7986  0.1094 -0.5306
 1108TIP3   OH2 3329   3.115   5.040   0.407 -0.0543 -0.6299 -0.2639
 1108TIP3    H1 3330   3.115   4.975   0.477  0.0042 -1.7018 -1.2379
 1108TIP3    H2 3331   3.023   5.045   0.379 -0.0553 -0.3074 -0.2095
 1109TIP3   OH2 3332   3.151   1.744   3.150  0.4262 -0.2797 -0.4227
 1109TIP3    H1 3333   3.141   1.788   3.066 -1.4398 -0.5067 -0.3805
 1109TIP3    H2 3334   3.236   1.702   3.146  0.3708 -0.2949 -2.2034
 1110TIP3   OH2 3335   4.623   5.009   2.638  0.6493 -0.5677  0.4380
 1110TIP3    H1 3336   4.664   4.943   2.694  0.5749 -0.0053  1.1611
 1110TIP3    H2 3337   4.552   5.045   2.691 -0.2517 -0.9294 -0.4878
 1111TIP3   OH2 3338   4.548   2.074   3.449  0.0726  0.3734  0.0641
 1111TIP3    H1 3339   4.499   2.129   3.389 -0.4772  1.0602  1.1060
 1111TIP3    H2 3340   4.640   2.092   3.428 -0.1065  0.4720 -0.6713
 1112TIP3   OH2 3341   3.196   0.915   3.346 -0.2410  0.0454  0.2477
 1112TIP3    H1 3342   3.152   0.831   3.353  0.3949 -0.1601  4.3509
 1112TIP3    H2 3343   3.232   0.930   3.433  1.5783  3.5731 -0.9246
 1113TIP3   OH2 3344   4.064   2.743   1.602  0.1737 -0.4593  0.2800
 1113TIP3    H1 3345   4.010   2.778   1.531  0.7553  2.1862  1.0399
 1113TIP3    H2 3346   4.150   2.782   1.588  0.9871 -1.8799  1.0614
 1114TIP3   OH2 3347   5.949   0.682   3.926  0.2089 -0.2357 -0.0026
 1114TIP3    H1 3348   6.006   0.641   3.992 -0.3545 -0.8013  0.1416
 1114TIP3    H2 3349   5.860   0.663   3.956 -0.0638  0.3765 -0.3922
 1115TIP3   OH2 3350   1.148   3.117   1.317  0.0271 -0.0968  0.0731
 1115TIP3    H1 3351   1.071   3.126   1.374  0.5444 -0.5048  0.8483
 1115TIP3    H2 3352   1.162   3.205   1.282  1.3040  0.8427  2.6935
 1116TIP3   OH2 3353   0.714   5.504   4.734 -0.9478 -0.4287  0.2022
 1116TIP3    H1 3354   0.739   5.530   4.645 -0.5593 -0.5790  0.2661
 1116TIP3    H2 3355   0.711   5.587   4.782 -3.0700 -0.0979 -0.3948
 1117TIP3   OH2 3356   0.242   3.107   2.421 -0.6058 -0.2244 -0.2885
 1117TIP3    H1 3357   0.250   3.028   2.476 -1.5256 -0.5219 -0.5579
 1117TIP3    H2 3358   0.154   3.139   2.440 -0.4025  0.4807 -0.5371
 1118TIP3   OH2 3359   4.796   5.442   3.234 -0.8700 -0.2184  0.5786
 1118TIP3    H1 3360   4.786   5.434   3.139 -0.5963  2.3450  0.2699
 1118TIP3    H2 3361   4.746   5.520   3.258 -0.9841 -0.8304  2.5776
 1119TIP3   OH2 3362   2.734   1.920   0.504 -0.4717  0.7110 -0.4416
 1119TIP3    H1 3363   2.819   1.898   0.543 -0.8237  2.1227  1.2323
 1119TIP3    H2 3364   2.744   2.010   0.473 -0.6627  0.0990 -2.4554
 1120TIP3   OH2 3365   5.094   3.742   3.525 -0.4164  0.2121 -0.2291
 1120TIP3    H1 3366   5.062   3.829   3.550  0.4919  0.7209 -0.7961
 1120TIP3    H2 3367   5.083   3.738   3.430  0.0079 -0.0956 -0.2697
 1121TIP3   OH2 3368   5.827   0.659   2.415  0.0276 -0.2522  0.2532
 1121TIP3    H1 3369   5.782   0.709   2.347 -2.2147 -1.5618  0.6680
 1121TIP3    H2 3370   5.871   0.724   2.469 -0.2000  0.9902 -1.0077
 1122TIP3   OH2 3371   5.271   4.854   0.334 -0.1813  0.7427 -0.4231
 1122TIP3    H1 3372   5.291   4.775   0.384  0.2163  1.1476  0.0643
 1122TIP3    H2 3373   5.350   4.873   0.284 -0.3647  0.6919 -0.7391
 1123TIP3   OH2 3374   5.127   1.437   4.721 -0.4445 -0.3017 -0.4722
 1123TIP3    H1 3375   5.052   1.432   4.661 -0.3671 -2.2657 -0.4556
 1123TIP3    H2 3376   5.088   1.438   4.808 -0.4709 -0.3551 -0.4835
 1124TIP3   OH2 3377   5.731   5.755   2.885 -0.0009 -0.5699 -0.7441
 1124TIP3    H1 3378   5.659   5.804   2.925  0.3691 -1.0173  0.5127
 1124TIP3    H2 3379   5.785   5.823   2.843  0.3934  0.1170  0.8025
 1125TIP3   OH2 3380   3.858   4.129   1.974  0.6212  0.5445  0.1410
 1125TIP3    H1 3381   3.934   4.100   1.924 -0.0095 -0.7130 -0.1141
 1125TIP3    H2 3382   3.859   4.075   2.053 -0.4538 -0.0716 -0.2433
 1126TIP3   OH2 3383   0.044   4.620   4.884  1.3978  0.1376 -0.1459
 1126TIP3    H1 3384   0.057   4.631   4.790  0.2015  1.0282 -0.2216
 1126TIP3    H2 3385   0.039   4.525   4.896 -0.0364  0.0301 -1.2403
 1127TIP3   OH2 3386   2.862   1.104   1.388  0.7011 -0.2685  0.7970
 1127TIP3    H1 3387   2.811   1.028   1.362 -0.2850 -0.2373  2.5205
 1127TIP3    H2 3388   2.937   1.104   1.328 -0.7605 -0.8952 -1.1208
 1128TIP3   OH2 3389   2.979   1.066   2.182 -0.1441  0.3337  0.1736
 1128TIP3    H1 3390   3.034   0.988   2.185 -1.5068 -0.6617  2.4748
 1128TIP3    H2 3391   3.018   1.126   2.246  0.5458  1.3479 -1.1459
 1129TIP3   OH2 3392   1.309   2.247   4.006 -0.2987 -0.5781  0.1452
 1129TIP3    H1 3393   1.370   2.253   4.079  0.1564  0.9971 -0.3250
 1129TIP3    H2 3394   1.352   2.190   3.942  0.2459 -0.2699  0.2336
 1130TIP3   OH2 3395   3.275   4.228   0.922 -0.2375 -0.5463  0.0393
 1130TIP3    H1 3396   3.218   4.231   0.999 -1.2749  0.8088 -0.7351
 1130TIP3    H2 3397   3.285   4.320   0.896  1.2295 -0.8674 -0.6491
 1131TIP3   OH2 3398   5.215   5.788   1.296  0.4932 -0.2799  0.0330
 1131TIP3    H1 3399   5.238   5.713   1.350  1.4537 -0.4520 -0.5781
 1131TIP3    H2 3400   5.215   5.753   1.206  2.5834  0.7603 -0.4377
 1132TIP3   OH2 3401   2.420   1.300   2.019 -0.2063  0.0891 -0.3427
 1132TIP3    H1 3402   2.422   1.229   2.082 -0.7364 -0.0638 -0.4962
 1132TIP3    H2 3403   2.431   1.379   2.072  3.5835 -0.1901 -0.4075
 1133TIP3   OH2 3404   0.199   1.940   5.118 -0.0334 -0.8755  0.0686
 1133TIP3    H1 3405   0.242   2.022   5.143 -0.2583 -1.3335  2.1664
 1133TIP3    H2 3406   0.134   1.925   5.187 -0.2414 -2.6305 -0.4549
 1134TIP3   OH2 3407   2.449   3.734   4.330 -0.1016 -0.1484 -0.1162
 1134TIP3    H1 3408   2.438   3.644   4.301  0.4379  0.2961 -1.8499
 1134TIP3    H2 3409   2.501   3.728   4.410 -0.8684 -1.4092  0.3099
 1135TIP3   OH2 3410   4.989   1.086   0.692  0.4421 -0.1928  0.2430
 1135TIP3    H1 3411   5.068   1.051   0.734  0.5419 -0.8150 -0.4287
 1135TIP3    H2 3412   4.977   1.173   0.730  1.5464 -0.0280  0.2393
 1136TIP3   OH2 3413   3.595   2.694   3.354 -0.2253  0.3517  0.0515
 1136TIP3    H1 3414   3.648   2.774   3.351  0.6423 -0.1859  0.6814
 1136TIP3    H2 3415   3.642   2.636   3.414 -0.5945 -0.8176 -0.7588
 1137TIP3   OH2 3416   1.433   5.522   4.041  0.2594 -0.1021  0.5288
 1137TIP3    H1 3417   1.388   5.497   4.122  0.8047 -0.3169  0.7763
 1137TIP3    H2 3418   1.438   5.440   3.991 -0.5918  0.1505  0.0119
 1138TIP3   OH2 3419   4.515   1.075   4.485  0.0687  0.3169 -0.1502
 1138TIP3    H1 3420   4.588   1.094   4.543  0.0434 -0.4148  0.1350
 1138TIP3    H2 3421   4.440   1.063   4.544 -0.1995  0.6686 -0.4124
 1139TIP3   OH2 3422   1.748   4.119   3.343 -0.1028 -0.2638  0.3294
 1139TIP3    H1 3423   1.679   4.096   3.406  0.4856 -1.3810  0.5903
 1139TIP3    H2 3424   1.769   4.037   3.299  0.8138  0.1322  0.0032
 1140TIP3   OH2 3425   0.797   2.068   2.168  0.2710 -0.3520 -0.2550
 1140TIP3    H1 3426   0.829   2.062   2.078  0.1735  0.7787 -0.3874
 1140TIP3    H2 3427   0.726   2.131   2.163  1.6489  1.4125  0.9442
 1141TIP3   OH2 3428   2.734   0.485   2.795 -0.0193 -0.3158 -0.4268
 1141TIP3    H1 3429   2.647   0.458   2.763 -2.3622  2.9807  2.4771
 1141TIP3    H2 3430   2.752   0.427   2.869 -1.0259  0.5528  0.5323
 1142TIP3   OH2 3431   1.820   5.774   3.425 -0.3644 -0.1980  0.5179
 1142TIP3    H1 3432   1.899   5.827   3.424  0.6480 -1.4310 -3.5299
 1142TIP3    H2 3433   1.847   5.691   3.463  0.4873 -0.7449 -1.1919
 1143TIP3   OH2 3434   3.237   5.350   4.191 -0.0407  0.0431 -0.1184
 1143TIP3    H1 3435   3.314   5.362   4.248 -0.7883  2.0509  0.5337
 1143TIP3    H2 3436   3.169   5.404   4.231 -1.3164 -0.4081 -1.6025
 1144TIP3   OH2 3437   5.612   1.749   2.673 -0.4148  0.5832 -0.0718
 1144TIP3    H1 3438   5.692   1.755   2.620  0.3390 -1.0439  0.8276
 1144TIP3    H2 3439   5.546   1.719   2.611 -0.5187  2.4941 -0.9596
 1145TIP3   OH2 3440   4.225   2.741   3.742 -0.5043 -0.0213  0.2279
 1145TIP3    H1 3441   4.252   2.810   3.803 -2.2945  2.6077 -1.7205
 1145TIP3    H2 3442   4.298   2.734   3.680 -0.4009  0.2888  0.3134
 1146TIP3   OH2 3443   2.834   3.526   0.598 -0.1275 -0.3875  0.0299
 1146TIP3    H1 3444   2.789   3.595   0.548  0.7260  0.0142 -0.1917
 1146TIP3    H2 3445   2.768   3.498   0.662 -1.0935 -0.6123 -1.0228
 1147TIP3   OH2 3446   2.952   2.833   2.495  0.0558 -0.0725  0.5406
 1147TIP3    H1 3447   2.941   2.926   2.472 -0.9970 -0.2858  0.1391
 1147TIP3    H2 3448   2.918   2.786   2.419 -2.7235 -0.8078  2.1390
 1148TIP3   OH2 3449   1.062   1.534   5.143  0.3780  0.2459 -0.1635
 1148TIP3    H1 3450   1.150   1.569   5.153  0.6985 -0.0151 -1.8288
 1148TIP3    H2 3451   1.065   1.484   5.062 -1.2430  0.0262 -0.1163
 1149TIP3   OH2 3452   5.866   3.525   0.910 -0.4469  0.0343 -0.3646
 1149TIP3    H1 3453   5.904   3.437   0.913 -2.3230 -0.9337 -2.2921
 1149TIP3    H2 3454   5.818   3.534   0.993 -1.6707 -1.5128 -0.8533
 1150TIP3   OH2 3455   0.974   4.191   0.754 -0.8381  0.5407 -0.0436
 1150TIP3    H1 3456   0.956   4.169   0.845 -0.1534  0.0432 -0.0214
 1150TIP3    H2 3457   0.895   4.167   0.707 -0.5291 -0.9481  0.1507
 1151TIP3   OH2 3458   4.082   4.681   4.613  0.1462 -0.2188 -0.1037
 1151TIP3    H1 3459   4.111   4.629   4.539  1.2927 -1.6608  1.2968
 1151TIP3    H2 3460   4.047   4.618   4.676  0.8445  0.7542  1.3257
 1152TIP3   OH2 3461   6.044   3.970   0.685 -0.3683 -0.1671 -0.1108
 1152TIP3    H1 3462   6.073   3.891   0.730  2.3131  1.7423  1.8826
 1152TIP3    H2 3463   6.103   3.978   0.610 -0.5598 -0.0335 -0.2469
 1153TIP3   OH2 3464   1.604   0.222   0.104  0.6540 -0.0029  0.0515
 1153TIP3    H1 3465   1.629   0.273   0.181  0.9692 -1.1581  0.7390
 1153TIP3    H2 3466   1.544   0.156   0.138  0.2918 -0.1346 -0.8131
 1154TIP3   OH2 3467   6.013   2.178   0.100  0.7090  0.1617 -0.4700
 1154TIP3    H1 3468   6.024   2.264   0.060  1.9053 -0.5730 -1.8258
 1154TIP3    H2 3469   6.063   2.119   0.044  0.6661 -1.2832  0.9370
 1155TIP3   OH2 3470   4.108   4.439   1.018 -0.3827  0.1167 -0.2238
 1155TIP3    H1 3471   4.170   4.446   0.946 -0.7458  3.5732 -0.3620
 1155TIP3    H2 3472   4.145   4.494   1.087 -1.4197 -0.8622  1.1794
 1156TIP3   OH2 3473   1.918   2.192   0.914  0.2344 -0.1998  0.0988
 1156TIP3    H1 3474   1.936   2.116   0.969  0.2566 -0.1985  0.0936
 1156TIP3    H2 3475   1.834   2.173   0.872  0.7459 -0.7036 -0.7309
 1157TIP3   OH2 3476   0.297   3.892   0.289  0.2521 -0.2334  0.0982
 1157TIP3    H1 3477   0.391   3.898   0.308 -0.0998  1.2506  1.6482
 1157TIP3    H2 3478   0.289   3.816   0.231  2.4628 -0.0793 -0.5127
 1158TIP3   OH2 3479   6.232   2.657   0.191  0.1252 -0.0552  0.3536
 1158TIP3    H1 3480   6.153   2.654   0.135  0.2331 -0.7341  0.2232
 1158TIP3    H2 3481   6.252   2.565   0.208  1.2251  0.0934 -0.0830
 1159TIP3   OH2 3482   3.847   0.380   2.616  0.1740  0.0047 -0.1188
 1159TIP3    H1 3483   3.793   0.424   2.682 -0.7047 -1.8472  0.4613
 1159TIP3    H2 3484   3.933   0.421   2.625 -0.5845  1.6059  0.3435
 1160TIP3   OH2 3485   1.615   3.499   4.260  0.6229 -0.4910  0.0285
 1160TIP3    H1 3486   1.665   3.552   4.197 -1.8160  2.2053  0.1349
 1160TIP3    H2 3487   1.661   3.511   4.343  0.2102  1.4947  0.0269
 1161TIP3   OH2 3488   0.646   5.138   2.338  0.3504  0.2910 -0.0109
 1161TIP3    H1 3489   0.695   5.089   2.404 -0.3679 -0.9747 -0.3789
 1161TIP3    H2 3490   0.667   5.094   2.255 -0.7370  0.2462 -0.2790
 1162TIP3   OH2 3491   5.185   2.395   0.027 -0.2623 -0.8047 -0.3867
 1162TIP3    H1 3492   5.190   2.324   0.091  0.7694  0.1131  0.6135
 1162TIP3    H2 3493   5.202   2.474   0.079  2.1155 -0.1404 -1.9940
 1163TIP3   OH2 3494   1.528   1.915   0.870 -0.2789  0.3974  0.5412
 1163TIP3    H1 3495   1.577   1.892   0.949  0.3285  0.6952  0.2599
 1163TIP3    H2 3496   1.457   1.851   0.866 -0.0932  0.1484  1.1208
 1164TIP3   OH2 3497   1.308   0.786   0.393 -0.1539  0.2013 -0.0190
 1164TIP3    H1 3498   1.384   0.729   0.403 -0.2666  0.1044  0.2880
 1164TIP3    H2 3499   1.262   0.779   0.477 -0.5143  0.2391 -0.2156
 1165TIP3   OH2 3500   5.830   2.785   4.967  0.4293 -0.0218 -0.7704
 1165TIP3    H1 3501   5.810   2.701   5.008  1.0004 -0.0922 -0.6243
 1165TIP3    H2 3502   5.922   2.778   4.942  0.2264  0.2055 -1.6122
 1166TIP3   OH2 3503   3.564   4.801   1.249 -0.0487 -0.2229 -0.3118
 1166TIP3    H1 3504   3.571   4.769   1.159 -0.6753  0.7287 -0.7037
 1166TIP3    H2 3505   3.543   4.722   1.301  0.8433 -0.8708 -0.9027
 1167TIP3   OH2 3506   2.445   3.742   2.297 -0.2403 -0.4214  0.2414
 1167TIP3    H1 3507   2.487   3.812   2.246 -0.1927 -0.8265 -0.2734
 1167TIP3    H2 3508   2.352   3.754   2.282 -0.2182 -0.6371 -0.0639
 1168TIP3   OH2 3509   3.367   5.087   0.282  0.4575  0.4783  0.4091
 1168TIP3    H1 3510   3.451   5.044   0.300 -0.1188 -1.7014 -1.5056
 1168TIP3    H2 3511   3.302   5.033   0.327 -0.2008 -0.0476 -1.1105
 1169TIP3   OH2 3512   4.805   2.130   3.373  0.9307  0.2876 -0.5269
 1169TIP3    H1 3513   4.799   2.181   3.292  0.8261  1.5606  0.2739
 1169TIP3    H2 3514   4.881   2.165   3.419  2.3939 -1.9468 -1.0558
 1170TIP3   OH2 3515   3.959   3.613   2.192 -0.7485  0.2423  0.4019
 1170TIP3    H1 3516   4.052   3.596   2.210 -0.3221  1.7650 -0.1516
 1170TIP3    H2 3517   3.929   3.665   2.267 -0.7964  0.8238 -0.0091
 1171TIP3   OH2 3518   3.535   1.697   2.659 -0.0334  1.3127 -0.8138
 1171TIP3    H1 3519   3.516   1.627   2.597  1.9332  1.7628 -2.0159
 1171TIP3    H2 3520   3.525   1.778   2.608 -0.6237  1.8438  0.1037
 1172TIP3   OH2 3521   2.819   4.829   3.334  0.1378  0.0221  0.2782
 1172TIP3    H1 3522   2.731   4.793   3.341  0.2931 -0.2641  0.9268
 1172TIP3    H2 3523   2.840   4.858   3.423  0.6916  0.0812  0.1340
 1173TIP3   OH2 3524   6.230   1.245   4.562 -0.4915  0.5715 -0.4478
 1173TIP3    H1 3525   6.291   1.228   4.634 -2.2303 -1.8415  0.5559
 1173TIP3    H2 3526   6.205   1.337   4.573  0.6243  0.7432  0.9354
 1174TIP3   OH2 3527   0.186   4.814   0.849  0.2181 -0.0129 -0.2219
 1174TIP3    H1 3528   0.199   4.884   0.785 -0.9788  0.1106 -0.3431
 1174TIP3    H2 3529   0.190   4.734   0.798 -2.4613  0.1358 -0.8173
 1175TIP3   OH2 3530   4.702   5.062   1.934 -0.0523 -0.4413  0.1719
 1175TIP3    H1 3531   4.770   5.084   1.997  1.5534 -1.2823 -1.1932
 1175TIP3    H2 3532   4.729   5.105   1.853 -1.8953  0.3458 -0.0731
 1176TIP3   OH2 3533   1.768   2.409   0.159 -0.0392  0.2358 -0.7622
 1176TIP3    H1 3534   1.723   2.343   0.106 -0.6601 -0.3275  0.4199
 1176TIP3    H2 3535   1.757   2.379   0.249  1.7087  0.7306 -0.3532
 1177TIP3   OH2 3536   0.816   2.392   4.151 -0.7956 -0.0859 -0.4153
 1177TIP3    H1 3537   0.833   2.313   4.101 -1.0416 -0.9143  0.7773
 1177TIP3    H2 3538   0.857   2.462   4.100  0.8252 -1.1934 -0.6772
 1178TIP3   OH2 3539   2.005   3.120   0.505  0.3004  1.0772 -0.2133
 1178TIP3    H1 3540   2.093   3.083   0.502  0.1014  0.5803  0.0181
 1178TIP3    H2 3541   1.956   3.061   0.561  0.2533  2.2971  1.0858
 1179TIP3   OH2 3542   5.254   2.848   4.820 -0.0468 -0.4054 -0.6010
 1179TIP3    H1 3543   5.212   2.802   4.893  0.3631  0.0290 -0.0852
 1179TIP3    H2 3544   5.314   2.783   4.782 -0.0700 -0.5531 -0.3897
 1180TIP3   OH2 3545   0.223   0.537   3.816  0.2139  0.4025 -0.4550
 1180TIP3    H1 3546   0.244   0.628   3.833 -0.1649  0.7083 -1.5427
 1180TIP3    H2 3547   0.295   0.488   3.855 -0.7616  0.9794  2.3210
 1181TIP3   OH2 3548   3.660   0.031   4.206  0.2104 -0.5979 -0.0346
 1181TIP3    H1 3549   3.667   0.088   4.283  1.6643 -0.1239 -0.4686
 1181TIP3    H2 3550   3.725   0.066   4.145  2.3942 -3.6562  0.3043
 1182TIP3   OH2 3551   0.583   3.850   1.780 -0.3365  0.3952 -0.4954
 1182TIP3    H1 3552   0.606   3.795   1.706 -0.6929  0.1600 -0.4355
 1182TIP3    H2 3553   0.634   3.816   1.854 -0.5866  0.1120 -0.4483
 1183TIP3   OH2 3554   6.153   3.232   1.037  0.6307 -0.4115 -0.2372
 1183TIP3    H1 3555   6.065   3.240   0.998  0.3230 -1.5807  0.1501
 1183TIP3    H2 3556   6.144   3.270   1.124  0.7720  0.3313 -0.5382
 1184TIP3   OH2 3557   3.167   5.514   5.009  0.0869 -0.2898  0.0526
 1184TIP3    H1 3558   3.188   5.540   5.099 -1.7353  0.5941  0.2697
 1184TIP3    H2 3559   3.097   5.450   5.018 -1.4364  1.1732 -0.7216
 1185TIP3   OH2 3560   0.564   3.859   4.665  0.2724 -0.2211 -0.0040
 1185TIP3    H1 3561   0.547   3.950   4.690 -0.0649 -0.1757 -0.3750
 1185TIP3    H2 3562   0.599   3.818   4.743 -0.3147  0.0306  0.3975
 1186TIP3   OH2 3563   1.318   2.531   1.700 -0.0707 -0.3349 -0.1855
 1186TIP3    H1 3564   1.227   2.520   1.674 -0.1227  1.2305 -0.7715
 1186TIP3    H2 3565   1.368   2.484   1.633 -0.4228 -1.4406  0.2936
 1187TIP3   OH2 3566   3.873   4.669   2.938 -0.2593  0.0210 -0.5743
 1187TIP3    H1 3567   3.961   4.672   2.902 -1.2192  1.5244 -3.0506
 1187TIP3    H2 3568   3.881   4.710   3.025  1.4751 -0.0684 -0.6628
 1188TIP3   OH2 3569   5.056   0.249   3.099 -0.1478 -0.2353 -0.4655
 1188TIP3    H1 3570   5.063   0.291   3.185  1.5163 -0.5373 -0.4296
 1188TIP3    H2 3571   5.058   0.155   3.118 -2.5721 -0.3991 -0.6544
 1189TIP3   OH2 3572   4.507   0.364   1.042  0.1884  0.4385  0.0501
 1189TIP3    H1 3573   4.600   0.344   1.036 -0.0243 -0.0795 -2.2434
 1189TIP3    H2 3574   4.499   0.455   1.013  0.0259  0.6894  0.8451
 1190TIP3   OH2 3575   1.217   3.864   1.968  0.1079 -0.2121  0.1896
 1190TIP3    H1 3576   1.260   3.842   2.051 -0.9115 -0.3252  0.7048
 1190TIP3    H2 3577   1.264   3.941   1.936  1.4670 -1.0367  0.1119
 1191TIP3   OH2 3578   5.969   3.946   2.663 -0.2663  0.0851  0.4139
 1191TIP3    H1 3579   5.929   3.929   2.578  0.3847  1.2480 -0.1527
 1191TIP3    H2 3580   5.897   3.971   2.720 -0.3302  3.1052 -0.8375
 1192TIP3   OH2 3581   3.535   1.510   3.273 -0.1354 -0.5396  0.3305
 1192TIP3    H1 3582   3.447   1.481   3.249 -1.1843  2.0900  0.6812
 1192TIP3    H2 3583   3.521   1.591   3.322  2.5510  1.5105 -1.9711
 1193TIP3   OH2 3584   0.516   5.457   0.902 -0.4718  0.4908 -0.4731
 1193TIP3    H1 3585   0.574   5.461   0.978 -1.8230  1.6541  0.5781
 1193TIP3    H2 3586   0.574   5.456   0.827  0.9934 -3.0010  0.5464
 1194TIP3   OH2 3587   2.707   5.771   1.996  0.2825  0.0649 -0.4112
 1194TIP3    H1 3588   2.704   5.677   1.977 -1.2437  0.0080 -0.0145
 1194TIP3    H2 3589   2.686   5.777   2.089 -0.3266  0.8261 -0.5881
 1195TIP3   OH2 3590   3.847   3.799   0.542  0.0892 -0.2887 -0.1837
 1195TIP3    H1 3591   3.885   3.770   0.625  0.7586 -0.6787 -0.6177
 1195TIP3    H2 3592   3.862   3.893   0.540  1.1881 -0.4579 -0.4171
 1196TIP3   OH2 3593   3.542   5.647   2.303  0.5484  0.2593 -0.3940
 1196TIP3    H1 3594   3.486   5.592   2.358 -1.0658  0.0235 -2.1677
 1196TIP3    H2 3595   3.482   5.711   2.264  1.5177  0.1188 -2.2399
 1197TIP3   OH2 3596   4.052   4.475   1.860 -0.0908 -0.7094 -0.0479
 1197TIP3    H1 3597   4.048   4.543   1.928  1.1441 -0.4185 -0.2311
 1197TIP3    H2 3598   4.125   4.502   1.804 -0.4257 -1.5000 -0.8874
 1198TIP3   OH2 3599   3.070   0.904   0.117 -0.3295 -0.0872  0.1793
 1198TIP3    H1 3600   3.087   0.839   0.049  0.6708 -1.1266  1.3535
 1198TIP3    H2 3601   3.143   0.893   0.179 -1.4658  0.4393  1.6752
 1199TIP3   OH2 3602   6.068   4.553   2.938  0.0476  0.7633 -0.1151
 1199TIP3    H1 3603   6.045   4.475   2.886 -0.7893  1.3335 -0.6125
 1199TIP3    H2 3604   6.080   4.519   3.027  0.7774 -0.1131 -0.5270
 1200TIP3   OH2 3605   5.879   2.216   4.172  0.2144  0.3112  0.0393
 1200TIP3    H1 3606   5.967   2.251   4.185 -0.0374  0.8315  0.3677
 1200TIP3    H2 3607   5.888   2.153   4.100  0.4238  2.0710 -1.5364
 1201TIP3   OH2 3608   5.698   1.481   4.813 -0.0442 -0.6150 -0.1284
 1201TIP3    H1 3609   5.757   1.453   4.883  0.4375 -1.9192 -0.9979
 1201TIP3    H2 3610   5.646   1.552   4.851  1.1250 -0.3831  1.1034
 1202TIP3   OH2 3611   4.004   0.090   3.966  0.4492 -0.0489  0.4906
 1202TIP3    H1 3612   4.056   0.029   3.914  0.2300  0.4740 -0.3764
 1202TIP3    H2 3613   4.036   0.080   4.055  0.2562 -1.5867  0.4105
 1203TIP3   OH2 3614   0.279   3.052   3.285  0.4366  0.0668  0.3681
 1203TIP3    H1 3615   0.277   3.119   3.353  0.6177 -1.0115  1.4769
 1203TIP3    H2 3616   0.258   2.971   3.331  0.2344 -0.6450 -0.9332
 1204TIP3   OH2 3617   4.497   5.551   3.239  0.1137  0.0222  0.2026
 1204TIP3    H1 3618   4.512   5.640   3.206  1.0006  0.5041  1.8025
 1204TIP3    H2 3619   4.462   5.503   3.164 -1.7550  2.0700 -0.3352
 1205TIP3   OH2 3620   5.056   5.843   4.957  0.2509 -0.0008 -0.0182
 1205TIP3    H1 3621   5.082   5.838   4.865  0.2021 -0.7909  0.0022
 1205TIP3    H2 3622   5.084   5.930   4.986  2.2442 -0.5468 -0.1934
 1206TIP3   OH2 3623   3.036   1.073   2.803  0.3776  0.0426 -0.5646
 1206TIP3    H1 3624   2.969   1.051   2.866  1.7208 -1.4106  0.4338
 1206TIP3    H2 3625   2.991   1.126   2.737 -1.6955 -0.8346  0.0758
 1207TIP3   OH2 3626   4.134   2.364   4.312  0.6405  0.3994 -0.1936
 1207TIP3    H1 3627   4.071   2.327   4.374  1.7975  0.4263  1.0325
 1207TIP3    H2 3628   4.100   2.452   4.295 -0.0315  0.1693 -0.1003
 1208TIP3   OH2 3629   3.426   3.550   3.444 -0.0442  0.2559  0.5224
 1208TIP3    H1 3630   3.512   3.518   3.471 -0.4590  0.2788  1.9327
 1208TIP3    H2 3631   3.394   3.484   3.383  0.0235 -0.9217  1.7351
 1209TIP3   OH2 3632   0.042   3.812   0.473 -0.1008 -0.3885  0.6115
 1209TIP3    H1 3633   0.051   3.720   0.450 -0.0887  0.0589 -1.3355
 1209TIP3    H2 3634   0.122   3.853   0.442 -0.6693  0.4906  0.2700
 1210TIP3   OH2 3635   2.624   1.327   2.615  0.2672  0.4037 -0.0150
 1210TIP3    H1 3636   2.678   1.265   2.566 -0.9573 -0.3869 -0.4313
 1210TIP3    H2 3637   2.542   1.333   2.564 -0.4637  0.6976  1.1548
 1211TIP3   OH2 3638   5.217   1.133   2.537 -0.0489  0.1005  0.0256
 1211TIP3    H1 3639   5.265   1.076   2.477  2.7024  3.0624 -0.8827
 1211TIP3    H2 3640   5.232   1.095   2.623  0.2301 -1.4545 -0.6711
 1212TIP3   OH2 3641   3.228   1.939   2.413 -0.1285  0.2538  0.1132
 1212TIP3    H1 3642   3.298   1.995   2.446  1.8633 -0.7723 -2.0608
 1212TIP3    H2 3643   3.271   1.854   2.396 -1.6942 -0.2332 -1.8633
 1213TIP3   OH2 3644   4.299   3.825   1.769  0.2121  0.2564 -0.1494
 1213TIP3    H1 3645   4.240   3.893   1.737 -1.1242 -0.9063 -0.2265
 1213TIP3    H2 3646   4.269   3.805   1.857  0.6725 -0.1504 -0.0767
 1214TIP3   OH2 3647   4.207   0.063   5.134 -0.5867 -0.0665 -0.6470
 1214TIP3    H1 3648   4.238  -0.018   5.174  1.8002 -0.4230 -2.9889
 1214TIP3    H2 3649   4.265   0.130   5.169 -1.3801  0.3741 -0.1343
 1215TIP3   OH2 3650   1.029   2.762   4.758  0.1314  0.0466 -0.1642
 1215TIP3    H1 3651   0.935   2.763   4.774  0.3073 -0.3507  0.9466
 1215TIP3    H2 3652   1.036   2.746   4.663 -0.9153  1.8409 -0.5929
 1216TIP3   OH2 3653   5.148   4.398   4.481 -0.0569 -0.2557 -0.7508
 1216TIP3    H1 3654   5.116   4.399   4.571 -1.0348 -0.5547 -1.0810
 1216TIP3    H2 3655   5.105   4.472   4.438 -1.7295 -1.6872 -1.6551
 1217TIP3   OH2 3656   3.087   0.489   4.294 -0.2585 -0.6611 -0.1983
 1217TIP3    H1 3657   3.143   0.548   4.244  0.9049 -1.5431  0.0104
 1217TIP3    H2 3658   3.003   0.490   4.248  0.7438 -1.3932 -2.1298
 1218TIP3   OH2 3659   3.649   2.488   4.553 -0.5310  0.0740 -0.4137
 1218TIP3    H1 3660   3.647   2.440   4.471 -0.2053  0.8412 -0.8764
 1218TIP3    H2 3661   3.596   2.566   4.537 -0.0575  0.4774 -0.0513
 1219TIP3   OH2 3662   4.220   5.163   1.800 -0.0811 -0.0655 -0.5756
 1219TIP3    H1 3663   4.150   5.098   1.790 -0.7987  0.5655  0.2265
 1219TIP3    H2 3664   4.175   5.242   1.831  0.9637  0.4065 -0.2374
 1220TIP3   OH2 3665   4.223   4.191   1.578  0.6000  0.1642 -0.5459
 1220TIP3    H1 3666   4.194   4.275   1.544 -1.5240 -0.0316  0.6081
 1220TIP3    H2 3667   4.312   4.180   1.543  1.2459  3.1878 -0.1570
 1221TIP3   OH2 3668   1.612   2.427   3.257  0.0679  0.0310 -0.4109
 1221TIP3    H1 3669   1.541   2.489   3.271 -0.4108 -0.2816 -1.3592
 1221TIP3    H2 3670   1.615   2.375   3.337 -2.7390 -1.8834 -1.3968
 1222TIP3   OH2 3671   4.925   2.150   0.277  0.1333 -0.6534 -0.1153
 1222TIP3    H1 3672   4.837   2.150   0.315  0.7533  0.7763  1.4380
 1222TIP3    H2 3673   4.975   2.091   0.334  0.5843 -0.0809  0.0929
 1223TIP3   OH2 3674   3.813   5.310   1.658  0.2515 -0.4010 -0.0892
 1223TIP3    H1 3675   3.846   5.383   1.608 -0.5411 -1.8011 -2.8371
 1223TIP3    H2 3676   3.751   5.349   1.720  1.7138  1.4452  0.3018
 1224TIP3   OH2 3677   0.664   1.799   4.956  0.6800 -0.0399 -0.0633
 1224TIP3    H1 3678   0.661   1.887   4.994  1.5094 -0.0182 -0.0389
 1224TIP3    H2 3679   0.574   1.766   4.965  0.0152  1.3267 -1.3487
 1225TIP3   OH2 3680   1.316   2.337   5.110  0.2805 -0.1503 -0.3755
 1225TIP3    H1 3681   1.247   2.284   5.150 -0.3853  1.4597  0.7434
 1225TIP3    H2 3682   1.303   2.328   5.016  0.6755 -2.5263 -0.2597
 1226TIP3   OH2 3683   6.180   1.560   2.071  0.4186  0.3568 -0.0213
 1226TIP3    H1 3684   6.150   1.494   2.009 -0.6499  0.3682  0.4644
 1226TIP3    H2 3685   6.248   1.608   2.024  0.2256 -0.1839 -0.8741
 1227TIP3   OH2 3686   1.139   0.374   1.429 -0.4189  0.1282 -0.1835
 1227TIP3    H1 3687   1.087   0.411   1.358  0.3496 -0.1918 -0.9262
 1227TIP3    H2 3688   1.113   0.424   1.507 -2.5001 -0.6411 -0.3384
 1228TIP3   OH2 3689   0.201   1.676   2.992  0.4467  0.1500  0.4173
 1228TIP3    H1 3690   0.206   1.738   2.919  0.1380 -0.3974 -0.0700
 1228TIP3    H2 3691   0.281   1.624   2.984  0.9349  0.7661  1.0963
 1229TIP3   OH2 3692   2.101   3.046   4.343 -0.1748 -0.3251 -0.1423
 1229TIP3    H1 3693   2.171   2.989   4.372 -0.2171  0.0562  0.7344
 1229TIP3    H2 3694   2.097   3.034   4.248  1.0383 -0.3859 -0.1906
 1230TIP3   OH2 3695   5.512   5.200   4.022  0.5218 -0.3301 -0.3834
 1230TIP3    H1 3696   5.601   5.197   3.987  1.4173  0.9951  1.5958
 1230TIP3    H2 3697   5.473   5.277   3.982  1.8018  1.6324  1.9099
 1231TIP3   OH2 3698   4.276   4.459   3.818 -0.2612  0.2198  0.0526
 1231TIP3    H1 3699   4.188   4.467   3.782  0.0454 -0.2048 -0.8335
 1231TIP3    H2 3700   4.318   4.543   3.799  0.5272 -0.6345 -2.4238
 1232TIP3   OH2 3701   5.189   4.595   3.786 -0.2513  0.3783  0.2330
 1232TIP3    H1 3702   5.129   4.585   3.859 -0.7231 -0.7333 -0.2861
 1232TIP3    H2 3703   5.163   4.678   3.745 -2.6574 -0.8587 -1.0103
 1233TIP3   OH2 3704   6.035   2.024   4.643 -0.0824  0.2188 -0.0361
 1233TIP3    H1 3705   6.052   2.068   4.561 -1.6067 -0.3249 -0.6834
 1233TIP3    H2 3706   6.100   2.059   4.704  0.2133  1.6166 -1.1159
 1234TIP3   OH2 3707   6.133   2.388   3.447 -0.1578 -0.1390 -0.1033
 1234TIP3    H1 3708   6.196   2.334   3.494 -0.2277  1.3164  1.7520
 1234TIP3    H2 3709   6.185   2.439   3.386  0.0889 -1.1038 -0.7158
 1235TIP3   OH2 3710   6.224   5.473   5.060 -0.0643  0.8733  0.1107
 1235TIP3    H1 3711   6.297   5.482   4.998 -0.3781 -0.5942 -0.5272
 1235TIP3    H2 3712   6.226   5.553   5.112  1.1612  1.4618 -0.7949
 1236TIP3   OH2 3713   5.117   3.926   0.937  0.2143 -0.1018 -0.6346
 1236TIP3    H1 3714   5.184   3.967   0.882  0.7391 -0.1540 -0.0457
 1236TIP3    H2 3715   5.144   3.946   1.026 -0.4564 -0.2929 -0.3849
 1237TIP3   OH2 3716   2.599   4.050   4.789 -0.2939  0.0107  0.0377
 1237TIP3    H1 3717   2.679   3.999   4.800  0.1367  0.3455 -1.3797
 1237TIP3    H2 3718   2.573   4.035   4.698 -0.6567  1.5965 -0.1427
 1238TIP3   OH2 3719   0.819   0.029   3.729 -0.1184 -0.2134 -0.0462
 1238TIP3    H1 3720   0.869   0.019   3.810 -0.5529 -1.9359  0.0628
 1238TIP3    H2 3721   0.728   0.037   3.758 -0.0303  2.0574 -0.2774
 1239TIP3   OH2 3722   5.541   3.183   1.117 -0.4590  0.5679  0.3840
 1239TIP3    H1 3723   5.564   3.231   1.196  0.6795  1.2600 -0.3566
 1239TIP3    H2 3724   5.500   3.248   1.060  0.7498  0.6018 -0.4734
 1240TIP3   OH2 3725   0.609   0.578   3.579 -0.1245 -0.0837  0.2211
 1240TIP3    H1 3726   0.612   0.483   3.591  1.8348 -0.0700  0.1971
 1240TIP3    H2 3727   0.558   0.610   3.654 -1.4076 -1.1827 -0.1461
 1241TIP3   OH2 3728   3.042   3.945   0.373 -0.1992  0.0290 -0.1664
 1241TIP3    H1 3729   2.964   3.977   0.326 -0.7987 -0.0161  0.7703
 1241TIP3    H2 3730   3.111   3.944   0.306 -1.0136 -0.0039 -1.0391
 1242TIP3   OH2 3731   3.479   5.154   2.030  0.2093 -0.2745 -0.0733
 1242TIP3    H1 3732   3.486   5.107   1.947 -2.3431  0.3906 -0.7650
 1242TIP3    H2 3733   3.395   5.125   2.066  0.8463  0.1458  1.8502
 1243TIP3   OH2 3734   0.289   0.793   3.898  0.1651 -0.0257 -0.0383
 1243TIP3    H1 3735   0.325   0.881   3.904  1.2407 -0.3651 -1.1474
 1243TIP3    H2 3736   0.253   0.776   3.986 -1.0139  1.8800 -0.0861
 1244TIP3   OH2 3737   1.922   3.907   2.325 -0.5723 -0.3353  0.1906
 1244TIP3    H1 3738   2.008   3.875   2.298 -0.0707 -0.0743  1.4244
 1244TIP3    H2 3739   1.863   3.834   2.309  0.1860 -1.1369  0.9966
 1245TIP3   OH2 3740   5.279   1.017   0.282  0.2007 -0.7408 -0.2847
 1245TIP3    H1 3741   5.348   1.008   0.347 -1.1096  2.5980  1.8175
 1245TIP3    H2 3742   5.220   0.943   0.299  0.5962 -0.7004  1.4258
 1246TIP3   OH2 3743   0.310   1.179   2.598  0.3700  0.4881  0.1206
 1246TIP3    H1 3744   0.286   1.174   2.505 -0.6790  0.1771  0.3972
 1246TIP3    H2 3745   0.251   1.118   2.642  2.4267 -1.1761  0.7241
 1247TIP3   OH2 3746   3.529   5.972   2.377 -0.0896 -0.3035  0.6215
 1247TIP3    H1 3747   3.575   5.976   2.461  2.4787  1.8453 -0.7208
 1247TIP3    H2 3748   3.586   5.918   2.321  1.8460  3.4734 -1.4663
 1248TIP3   OH2 3749   4.465   5.939   4.935  0.2900  0.4417 -0.2544
 1248TIP3    H1 3750   4.471   5.884   4.857 -3.6096 -1.5736  0.6215
 1248TIP3    H2 3751   4.444   6.026   4.902 -0.2806 -0.1470 -1.4983
 1249TIP3   OH2 3752   5.188   3.286   4.539  0.1463  0.0441 -0.0408
 1249TIP3    H1 3753   5.130   3.328   4.602  1.2364 -0.1361  1.1111
 1249TIP3    H2 3754   5.129   3.254   4.470 -0.8499  2.2693 -0.3100
 1250TIP3   OH2 3755   0.071   5.028   2.229  0.3048  0.4469  0.2777
 1250TIP3    H1 3756   0.022   4.945   2.238  0.2392  0.5715  1.2200
 1250TIP3    H2 3757   0.120   5.018   2.148 -1.3182  0.3231 -0.7274
 1251TIP3   OH2 3758   3.270   1.598   2.377  0.2211 -0.1717  0.1784
 1251TIP3    H1 3759   3.351   1.649   2.382 -0.4926  1.0217 -0.0542
 1251TIP3    H2 3760   3.283   1.539   2.304  0.2730  1.1526 -0.9234
 1252TIP3   OH2 3761   3.707   0.245   2.421 -0.2332 -0.7117 -0.3468
 1252TIP3    H1 3762   3.774   0.271   2.485 -1.2525 -0.7798  0.7873
 1252TIP3    H2 3763   3.743   0.271   2.337  1.3053 -0.9219  0.2125
 1253TIP3   OH2 3764   2.018   3.188   2.828 -0.1743  1.0474  0.1951
 1253TIP3    H1 3765   2.067   3.107   2.828  0.7386  1.5887  0.5206
 1253TIP3    H2 3766   1.928   3.162   2.808  0.1193 -0.0243  0.2373
 1254TIP3   OH2 3767   5.900   3.071   2.950  0.5961  0.3397  0.2840
 1254TIP3    H1 3768   5.827   3.010   2.945  0.5159  0.3837  0.9007
 1254TIP3    H2 3769   5.866   3.152   2.911  0.5055  0.1864  0.0409
 1255TIP3   OH2 3770   0.985   3.572   4.086  1.2422 -0.0632 -0.5507
 1255TIP3    H1 3771   1.046   3.526   4.144 -0.4635 -0.9745  0.5787
 1255TIP3    H2 3772   0.930   3.624   4.145 -1.1368 -1.7199 -1.1709
 1256TIP3   OH2 3773   3.988   4.252   0.857  0.0249  0.0979  0.3489
 1256TIP3    H1 3774   4.020   4.272   0.945 -0.3557 -0.8512  0.7175
 1256TIP3    H2 3775   3.908   4.303   0.848  0.0388  0.1605  0.5727
 1257TIP3   OH2 3776   3.180   1.511   4.666  0.7033  0.0673  0.2340
 1257TIP3    H1 3777   3.102   1.538   4.617  0.9205 -0.4638 -0.4075
 1257TIP3    H2 3778   3.147   1.447   4.729  0.7435 -0.7894 -0.5980
 1258TIP3   OH2 3779   2.647   1.834   4.630  0.4222 -0.0837  0.5056
 1258TIP3    H1 3780   2.722   1.888   4.655 -0.0743  0.0295  1.8287
 1258TIP3    H2 3781   2.617   1.796   4.712 -1.6952  0.8191  0.2130
 1259TIP3   OH2 3782   2.939   2.433   1.934  0.6963  0.2121  0.0521
 1259TIP3    H1 3783   2.921   2.444   2.028  1.6408  0.5338  0.2073
 1259TIP3    H2 3784   3.012   2.492   1.917  0.1656  0.5664 -1.0151
 1260TIP3   OH2 3785   0.596   1.144   0.304  0.2759 -0.1929  0.0313
 1260TIP3    H1 3786   0.553   1.061   0.284 -2.7668  1.2651 -0.0235
 1260TIP3    H2 3787   0.606   1.144   0.399 -0.8065 -0.1502  0.1505
 1261TIP3   OH2 3788   5.445   2.400   1.566  0.5585 -0.3096 -0.1146
 1261TIP3    H1 3789   5.495   2.471   1.526 -0.7922 -0.0051 -1.3783
 1261TIP3    H2 3790   5.370   2.388   1.507  0.0096 -1.8276  0.8356
 1262TIP3   OH2 3791   5.688   3.108   0.896 -0.2964  0.6502  0.7360
 1262TIP3    H1 3792   5.633   3.117   0.974 -1.1429 -0.2168  0.2693
 1262TIP3    H2 3793   5.669   3.020   0.864  1.0261  0.5058  0.2831
 1263TIP3   OH2 3794   1.217   4.059   3.360  0.6070  0.3708  0.3015
 1263TIP3    H1 3795   1.246   4.024   3.276 -1.6534 -1.3171  0.1391
 1263TIP3    H2 3796   1.179   3.984   3.405 -2.5130  2.1193  0.8543
 1264TIP3   OH2 3797   1.970   1.424   4.995 -0.2860  0.2546  0.0961
 1264TIP3    H1 3798   1.945   1.440   5.086 -1.4941 -0.6371 -0.0473
 1264TIP3    H2 3799   1.921   1.345   4.971 -1.4649  1.5089 -1.8694
 1265TIP3   OH2 3800   1.047   3.298   5.176 -0.0594  0.3385  0.0243
 1265TIP3    H1 3801   1.026   3.292   5.083  1.1336  0.9288 -0.3035
 1265TIP3    H2 3802   1.142   3.287   5.180 -0.2711 -1.3703  1.3517
 1266TIP3   OH2 3803   0.388   3.438   3.287  0.3347 -0.4458  0.2650
 1266TIP3    H1 3804   0.305   3.405   3.318 -0.3620  0.5067 -0.5086
 1266TIP3    H2 3805   0.433   3.362   3.251 -0.7809 -0.7397 -0.5362
 1267TIP3   OH2 3806   2.731   4.863   0.853 -0.0294 -0.2929  0.4743
 1267TIP3    H1 3807   2.775   4.947   0.861  1.3890 -1.1751  2.8877
 1267TIP3    H2 3808   2.658   4.880   0.793 -0.0863  2.7431  1.2458
 1268TIP3   OH2 3809   3.241   5.114   1.407  0.3735  0.5962 -0.0696
 1268TIP3    H1 3810   3.153   5.149   1.418 -0.1011 -0.1452 -1.2918
 1268TIP3    H2 3811   3.258   5.120   1.313  0.9733 -0.7295 -0.0792
 1269TIP3   OH2 3812   4.369   3.920   4.456 -0.0686  0.0124 -0.0421
 1269TIP3    H1 3813   4.296   3.958   4.407  1.1093  0.9323 -1.1182
 1269TIP3    H2 3814   4.433   3.895   4.390  0.8937 -0.1606  0.9272
 1270TIP3   OH2 3815   5.997   5.428   4.842 -0.2815  0.0603 -0.2885
 1270TIP3    H1 3816   6.088   5.445   4.868 -0.8534 -0.1468  2.0615
 1270TIP3    H2 3817   5.993   5.454   4.750  2.4840 -1.1520 -0.8583
 1271TIP3   OH2 3818   2.476   3.965   3.145  0.1034 -0.2769  0.1495
 1271TIP3    H1 3819   2.403   3.910   3.114  0.6747 -1.0793  0.2061
 1271TIP3    H2 3820   2.538   3.903   3.183  0.4650  0.4795  0.8134
 1272TIP3   OH2 3821   4.785   0.231   4.939  0.1440  0.0012  0.3120
 1272TIP3    H1 3822   4.715   0.238   5.003  0.0907  0.7842  0.1836
 1272TIP3    H2 3823   4.767   0.149   4.893 -0.8642  0.3169  0.0941
 1273TIP3   OH2 3824   4.900   1.160   4.317  0.1606  0.1777 -0.4299
 1273TIP3    H1 3825   4.901   1.066   4.299 -0.1453  0.1205 -0.1733
 1273TIP3    H2 3826   4.916   1.201   4.232  1.0709 -0.1162 -0.4054
 1274TIP3   OH2 3827   5.611   5.412   0.750  0.1718 -0.2141  0.0492
 1274TIP3    H1 3828   5.689   5.370   0.714 -0.0748 -0.1097 -0.6407
 1274TIP3    H2 3829   5.547   5.408   0.678  0.3803  2.0025 -0.3472
 1275TIP3   OH2 3830   4.094   3.036   5.048 -0.0533 -0.2116  0.2354
 1275TIP3    H1 3831   4.070   2.944   5.061 -1.2203  0.0697  0.1779
 1275TIP3    H2 3832   4.186   3.041   5.074  0.4944 -1.7170 -1.2175
 1276TIP3   OH2 3833   4.128   4.780   3.254 -0.6311 -0.0048  0.1580
 1276TIP3    H1 3834   4.181   4.750   3.180 -0.4232  2.5351 -0.8629
 1276TIP3    H2 3835   4.050   4.818   3.213 -1.4857 -0.3632  1.3982
 1277TIP3   OH2 3836   1.134   2.233   3.088 -0.5674 -0.0250 -0.4772
 1277TIP3    H1 3837   1.188   2.301   3.047 -1.3988  0.8012 -0.2592
 1277TIP3    H2 3838   1.087   2.193   3.015  2.8466 -3.2381 -1.1975
 1278TIP3   OH2 3839   6.187   3.692   0.244  0.6041 -0.0506 -0.4558
 1278TIP3    H1 3840   6.207   3.756   0.175 -2.0743  0.3230 -0.9937
 1278TIP3    H2 3841   6.215   3.736   0.325  0.9858  0.8022 -1.0298
 1279TIP3   OH2 3842   5.947   3.587   1.390 -0.1911  0.4115  0.5658
 1279TIP3    H1 3843   5.941   3.568   1.483  0.6858  0.4877  0.6449
 1279TIP3    H2 3844   6.041   3.596   1.373 -0.3209  0.0909 -0.3849
 1280TIP3   OH2 3845   0.545   2.614   3.830  0.3789 -0.5850  0.6143
 1280TIP3    H1 3846   0.554   2.561   3.909  0.2767 -0.7876  0.4925
 1280TIP3    H2 3847   0.452   2.639   3.828  1.0171  2.4674  2.4808
 1281TIP3   OH2 3848   2.918   4.509   0.421  0.4447  0.2669  0.0215
 1281TIP3    H1 3849   2.944   4.507   0.329 -2.4074  0.9896 -0.8958
 1281TIP3    H2 3850   2.893   4.419   0.441 -0.8431  0.4862 -0.5466
 1282TIP3   OH2 3851   0.336   0.589   5.105 -0.0442  0.2401 -0.3432
 1282TIP3    H1 3852   0.400   0.519   5.123  1.3258  1.7002  0.7562
 1282TIP3    H2 3853   0.252   0.544   5.103  0.8850 -1.6030 -0.7339
 1283TIP3   OH2 3854   3.361   5.391   3.919 -0.1770  0.6360  0.2437
 1283TIP3    H1 3855   3.341   5.381   4.012 -0.6606  0.9225  0.1750
 1283TIP3    H2 3856   3.276   5.387   3.876  0.1037 -0.2495 -0.2616
 1284TIP3   OH2 3857   3.240   1.747   0.376  0.1680 -0.1200 -0.2550
 1284TIP3    H1 3858   3.175   1.750   0.306 -0.1571 -0.0378  0.0484
 1284TIP3    H2 3859   3.241   1.655   0.404 -0.4387  0.0405  0.3155
 1285TIP3   OH2 3860   6.139   2.395   1.532 -0.1031 -0.3213 -0.4747
 1285TIP3    H1 3861   6.226   2.366   1.558  0.2146  2.7717  2.7193
 1285TIP3    H2 3862   6.145   2.405   1.437  3.3476  0.4744 -0.3269
 1286TIP3   OH2 3863   5.114   4.244   1.531  0.0674  0.7302 -0.1587
 1286TIP3    H1 3864   5.151   4.321   1.486  1.9460  0.2266  0.4142
 1286TIP3    H2 3865   5.063   4.280   1.603  0.7337  1.4649 -0.0370
 1287TIP3   OH2 3866   4.418   2.822   0.624 -0.2951 -0.1754 -0.3720
 1287TIP3    H1 3867   4.397   2.900   0.573  0.4180  0.7640  0.7439
 1287TIP3    H2 3868   4.417   2.851   0.715 -1.0877 -1.7194  0.1500
 1288TIP3   OH2 3869   5.251   5.689   3.319 -0.0376 -0.7832  0.4208
 1288TIP3    H1 3870   5.224   5.747   3.391  0.3418  0.8291 -0.6711
 1288TIP3    H2 3871   5.345   5.706   3.308  0.2500 -2.2067  0.5827
 1289TIP3   OH2 3872   5.543   2.561   3.759 -0.4439  0.1226 -0.4113
 1289TIP3    H1 3873   5.605   2.524   3.697  1.6690 -0.4105  1.8446
 1289TIP3    H2 3874   5.573   2.651   3.772  2.6169 -1.1555  3.5719
 1290TIP3   OH2 3875   3.019   1.506   3.907 -0.7034  0.1213  0.3368
 1290TIP3    H1 3876   3.068   1.502   3.825 -0.6764  1.7336  0.2370
 1290TIP3    H2 3877   3.031   1.420   3.947 -1.4678 -1.0366 -1.7663
 1291TIP3   OH2 3878   2.614   3.659   4.568  0.2075 -0.1945  0.4089
 1291TIP3    H1 3879   2.685   3.695   4.621  3.1888 -4.7704  0.1304
 1291TIP3    H2 3880   2.544   3.638   4.630  1.6057 -0.9450  1.7967
 1292TIP3   OH2 3881   5.859   5.744   0.206  0.6825  0.2981  0.1201
 1292TIP3    H1 3882   5.790   5.810   0.209  1.9860  1.7943 -1.0969
 1292TIP3    H2 3883   5.835   5.686   0.134  0.6926  0.8225 -0.3089
 1293TIP3   OH2 3884   5.813   2.386   1.330  0.3652  0.0331  0.5576
 1293TIP3    H1 3885   5.788   2.359   1.418 -2.0868  1.0015  0.2335
 1293TIP3    H2 3886   5.736   2.369   1.277  2.0476 -1.3300 -1.6499
 1294TIP3   OH2 3887   3.981   0.472   3.511 -0.0478 -0.4041 -0.0287
 1294TIP3    H1 3888   3.930   0.395   3.534 -0.7790  0.1421  0.2346
 1294TIP3    H2 3889   3.934   0.512   3.437  0.4273 -0.3142 -0.2891
 1295TIP3   OH2 3890   1.749   0.147   1.995  0.3529 -0.0987 -0.4320
 1295TIP3    H1 3891   1.794   0.103   1.923  0.3757  0.9310 -1.0579
 1295TIP3    H2 3892   1.748   0.082   2.065 -0.4127 -1.4244 -1.6296
 1296TIP3   OH2 3893   4.283   4.432   0.799 -0.5864  0.2835  0.3138
 1296TIP3    H1 3894   4.371   4.438   0.763 -0.9568  5.0388 -0.5213
 1296TIP3    H2 3895   4.238   4.369   0.743  1.5969 -0.2438 -0.9473
 1297TIP3   OH2 3896   4.754   1.344   0.510  0.0476 -0.1807 -0.3229
 1297TIP3    H1 3897   4.811   1.389   0.448 -0.3498  0.7780 -0.0152
 1297TIP3    H2 3898   4.790   1.366   0.596 -1.1354  0.9792 -0.0910
 1298TIP3   OH2 3899   2.989   2.064   2.415 -0.0425 -0.0642  0.4299
 1298TIP3    H1 3900   3.076   2.029   2.397 -0.0456  0.6387 -1.0928
 1298TIP3    H2 3901   2.994   2.156   2.389 -1.5608 -0.3121 -0.8818
 1299TIP3   OH2 3902   1.404   3.050   3.921  0.1095 -0.2308 -0.6218
 1299TIP3    H1 3903   1.376   3.142   3.924  0.1731 -0.2269  0.1753
 1299TIP3    H2 3904   1.341   3.007   3.864 -1.4998 -0.2006  1.0432
 1300TIP3   OH2 3905   5.132   0.363   5.041  0.1304 -0.0109 -0.1032
 1300TIP3    H1 3906   5.183   0.288   5.010  0.2666 -0.1478  0.4469
 1300TIP3    H2 3907   5.093   0.399   4.962 -1.7521 -1.9772 -0.1933
 1301TIP3   OH2 3908   2.492   0.930   2.574 -0.2223  0.7520 -0.0128
 1301TIP3    H1 3909   2.535   0.846   2.557 -1.4648 -0.1013  0.8852
 1301TIP3    H2 3910   2.434   0.943   2.499 -0.3318  0.5974  0.0445
 1302TIP3   OH2 3911   1.584   5.503   3.051 -0.1628 -0.1144 -0.4660
 1302TIP3    H1 3912   1.491   5.523   3.061  0.0294  1.0296 -0.9295
 1302TIP3    H2 3913   1.595   5.486   2.957  0.5269  2.1372 -0.8442
 1303TIP3   OH2 3914   1.127   4.372   0.079 -0.2036  0.2564  0.4207
 1303TIP3    H1 3915   1.105   4.382   0.172 -0.5994  0.7649  0.2762
 1303TIP3    H2 3916   1.155   4.281   0.071 -0.2149  0.1917  1.0287
 1304TIP3   OH2 3917   4.885   5.624   1.415  0.1792  0.1682  0.4061
 1304TIP3    H1 3918   4.865   5.652   1.326  1.4012 -1.2477 -0.3546
 1304TIP3    H2 3919   4.888   5.705   1.466  1.3229  1.2034 -1.2346
 1305TIP3   OH2 3920   4.572   1.903   2.651 -0.7486  0.3799 -0.0761
 1305TIP3    H1 3921   4.548   1.989   2.615  0.1696  0.1429 -1.3204
 1305TIP3    H2 3922   4.546   1.907   2.743 -0.8507  1.9399 -0.1520
 1306TIP3   OH2 3923   4.348   3.053   0.518  0.0166  0.0819 -0.0475
 1306TIP3    H1 3924   4.308   3.062   0.431 -0.3608 -0.7181  0.0342
 1306TIP3    H2 3925   4.325   3.133   0.564 -2.0673 -0.6095  0.2218
 1307TIP3   OH2 3926   4.746   5.995   3.816 -0.0098  0.3949  0.2812
 1307TIP3    H1 3927   4.693   5.920   3.843 -2.7257  2.7489  2.0532
 1307TIP3    H2 3928   4.721   6.011   3.725  0.8852 -0.9899 -0.2445
 1308TIP3   OH2 3929   3.485   5.046   0.887  0.2066  0.2342 -0.3173
 1308TIP3    H1 3930   3.565   5.098   0.883  0.3706 -0.0435 -0.7237
 1308TIP3    H2 3931   3.490   4.989   0.811 -1.5440  1.8808 -1.7603
 1309TIP3   OH2 3932   4.424   4.817   2.819 -0.1401 -0.1316  0.1209
 1309TIP3    H1 3933   4.403   4.749   2.882  1.2397 -0.6548  0.0537
 1309TIP3    H2 3934   4.510   4.792   2.784 -0.5063  0.5674 -1.3767
 1310TIP3   OH2 3935   4.198   2.700   3.249  0.1079  0.2843  1.1485
 1310TIP3    H1 3936   4.169   2.675   3.337  0.6656  0.3655  1.3597
 1310TIP3    H2 3937   4.142   2.774   3.226 -0.9083 -0.5405  0.9017
 1311TIP3   OH2 3938   0.352   1.344   3.409  0.1755 -0.2104  0.8334
 1311TIP3    H1 3939   0.353   1.412   3.477  2.6391  0.0713  0.6348
 1311TIP3    H2 3940   0.274   1.363   3.357  0.7939  2.5989  0.7324
 1312TIP3   OH2 3941   6.143   1.304   3.655 -0.5558  0.9138  0.9242
 1312TIP3    H1 3942   6.144   1.214   3.687 -0.0719  0.5615 -0.0733
 1312TIP3    H2 3943   6.206   1.306   3.584 -0.9221  1.9240  0.6040
 1313TIP3   OH2 3944   0.740   5.622   0.341 -0.0102 -0.0381  0.0011
 1313TIP3    H1 3945   0.744   5.550   0.403  1.7664 -0.0333 -0.0594
 1313TIP3    H2 3946   0.734   5.701   0.395  0.5885 -0.0906  0.1489
 1314TIP3   OH2 3947   0.187   5.589   2.781  0.0345 -0.3101 -0.1417
 1314TIP3    H1 3948   0.149   5.544   2.856 -2.4279 -0.8885 -1.6029
 1314TIP3    H2 3949   0.209   5.518   2.720  0.7046  0.2303 -0.5399
 1315TIP3   OH2 3950   0.313   0.658   0.611  0.9577 -0.4132 -0.7389
 1315TIP3    H1 3951   0.233   0.709   0.601  0.5456 -1.0795 -0.8822
 1315TIP3    H2 3952   0.376   0.720   0.647 -0.1567 -0.3463  1.2553
 1316TIP3   OH2 3953   3.895   5.594   1.825  0.2260 -0.2676 -0.4410
 1316TIP3    H1 3954   3.932   5.593   1.913 -1.3865 -0.5242  0.2786
 1316TIP3    H2 3955   3.970   5.606   1.767  1.6191 -2.2308  0.8276
 1317TIP3   OH2 3956   2.100   4.107   3.827  0.3090 -0.1401  0.3076
 1317TIP3    H1 3957   2.189   4.099   3.862  0.3484  1.2547  0.5610
 1317TIP3    H2 3958   2.113   4.122   3.734  0.4196  1.5632  0.5733
 1318TIP3   OH2 3959   0.691   2.829   2.936 -0.5603 -0.2690  0.2617
 1318TIP3    H1 3960   0.761   2.861   2.993 -0.5508 -1.3884  0.9168
 1318TIP3    H2 3961   0.648   2.761   2.987 -2.4905  0.7444  0.0827
 1319TIP3   OH2 3962   4.781   3.349   0.609 -0.2661  0.2172  0.7877
 1319TIP3    H1 3963   4.846   3.329   0.676  0.0267  0.4808  0.5871
 1319TIP3    H2 3964   4.744   3.432   0.636  1.0327  1.1697 -0.2404
 1320TIP3   OH2 3965   1.483   3.395   3.754 -0.5802  0.2925 -0.1386
 1320TIP3    H1 3966   1.497   3.437   3.669  0.2946  0.4952  0.0956
 1320TIP3    H2 3967   1.571   3.368   3.782 -0.7970  0.6362  0.9066
 1321TIP3   OH2 3968   5.430   4.416   4.449  0.0625 -0.4906 -0.0415
 1321TIP3    H1 3969   5.336   4.419   4.432  0.4135 -1.0516 -2.3613
 1321TIP3    H2 3970   5.471   4.434   4.365  2.1043  2.1007  1.3310
 1322TIP3   OH2 3971   0.545   1.971   3.442  0.0657  0.0420 -0.6417
 1322TIP3    H1 3972   0.504   1.885   3.432  0.2897 -0.3004  1.0561
 1322TIP3    H2 3973   0.538   2.011   3.356 -1.2300 -1.1545 -1.1357
 1323TIP3   OH2 3974   5.805   0.293   3.091 -0.2125  0.2484 -0.2036
 1323TIP3    H1 3975   5.719   0.335   3.092  0.1347  1.0110  1.8423
 1323TIP3    H2 3976   5.801   0.228   3.161 -0.0388 -1.7788 -1.9794
 1324TIP3   OH2 3977   1.174   4.190   0.543  0.1527 -0.4385  0.2249
 1324TIP3    H1 3978   1.216   4.258   0.595  0.7165 -1.3780  1.0256
 1324TIP3    H2 3979   1.092   4.171   0.589  0.8677 -1.5985  1.0813
 1325TIP3   OH2 3980   6.127   3.340   2.188 -0.1253 -0.5197 -0.1715
 1325TIP3    H1 3981   6.212   3.381   2.207 -1.1176  0.6736  2.0732
 1325TIP3    H2 3982   6.148   3.248   2.173  1.6071 -0.1572 -0.1849
 1326TIP3   OH2 3983   5.830   2.243   2.920  0.0618 -0.6212  0.2174
 1326TIP3    H1 3984   5.894   2.193   2.971  0.1181  1.1422  1.9614
 1326TIP3    H2 3985   5.746   2.206   2.944  0.1769 -0.6100  0.6369
 1327TIP3   OH2 3986   4.464   2.619   2.149 -0.1682 -0.2313  0.0396
 1327TIP3    H1 3987   4.506   2.643   2.232 -1.5854 -0.4230  0.8497
 1327TIP3    H2 3988   4.465   2.524   2.148  1.7828 -0.2466 -1.2327
 1328TIP3   OH2 3989   4.857   5.218   3.729  0.3424 -0.3201 -0.0063
 1328TIP3    H1 3990   4.823   5.257   3.649 -1.0878  1.2779  1.3147
 1328TIP3    H2 3991   4.781   5.179   3.772  0.7210  0.4115  1.4090
 1329TIP3   OH2 3992   3.909   0.866   1.544 -0.8081 -0.0010 -0.2973
 1329TIP3    H1 3993   3.928   0.956   1.569 -0.1902 -0.2651  0.2183
 1329TIP3    H2 3994   3.815   0.856   1.558 -0.9861  0.7182 -0.8903
 1330TIP3   OH2 3995   1.713   0.615   4.616  0.6501  0.1922  1.1818
 1330TIP3    H1 3996   1.753   0.699   4.597 -1.7538  1.2287  0.3484
 1330TIP3    H2 3997   1.745   0.557   4.546 -1.0390  1.6076 -0.8788
 1331TIP3   OH2 3998   4.435   2.001   4.541  0.1856 -0.5691  0.0570
 1331TIP3    H1 3999   4.442   2.064   4.613 -2.3439  0.3940 -0.4453
 1331TIP3    H2 4000   4.487   2.040   4.471  0.0265  0.1107  0.3089
 1332TIP3   OH2 4001   1.274   0.160   3.732  0.3682 -0.1209 -0.6704
 1332TIP3    H1 4002   1.339   0.201   3.788  0.5802 -0.1081 -0.9256
 1332TIP3    H2 4003   1.190   0.187   3.769  0.5014 -0.6328  0.0174
 1333TIP3   OH2 4004   2.720   5.644   0.599  0.7507  0.2112  0.0126
 1333TIP3    H1 4005   2.761   5.559   0.583  0.8594  0.2701 -0.0257
 1333TIP3    H2 4006   2.764   5.703   0.538 -1.3743 -0.2818 -2.1178
 1334TIP3   OH2 4007   4.150   0.297   2.630 -0.4153 -0.3326 -0.2437
 1334TIP3    H1 4008   4.069   0.254   2.602 -0.2877 -0.9436  0.2951
 1334TIP3    H2 4009   4.191   0.234   2.689  0.7399 -0.2650 -0.9414
 1335TIP3   OH2 4010   3.830   5.883   5.094 -0.0707 -0.3262 -0.0589
 1335TIP3    H1 4011   3.873   5.821   5.153 -0.9747  0.1252  1.1055
 1335TIP3    H2 4012   3.902   5.935   5.058  0.4314  0.1646  1.5555
 1336TIP3   OH2 4013   6.278   2.850   1.496 -0.3954  0.7063 -0.5794
 1336TIP3    H1 4014   6.289   2.939   1.530 -1.4980 -0.0829  2.1483
 1336TIP3    H2 4015   6.184   2.835   1.501 -0.1976 -0.6830 -0.8050
 1337TIP3   OH2 4016   5.186   0.745   0.914 -0.3556  0.4493 -0.0481
 1337TIP3    H1 4017   5.279   0.767   0.924  0.0152  0.0124 -2.0530
 1337TIP3    H2 4018   5.181   0.652   0.935 -0.4950  0.6480  0.8222
 1338TIP3   OH2 4019   4.639   1.526   4.583 -0.4219  0.3755  0.8487
 1338TIP3    H1 4020   4.714   1.516   4.525 -0.1347  1.0126  1.1079
 1338TIP3    H2 4021   4.574   1.573   4.530 -0.7861 -0.4850  0.5051
 1339TIP3   OH2 4022   3.725   1.407   1.076  0.0255  0.6391 -0.1112
 1339TIP3    H1 4023   3.724   1.318   1.041  1.2773  0.4492  0.2950
 1339TIP3    H2 4024   3.656   1.452   1.028  0.0407 -0.2799 -1.0321
 1340TIP3   OH2 4025   0.573   1.442   1.242  0.5297  0.4154 -0.2738
 1340TIP3    H1 4026   0.623   1.523   1.232 -0.0230  0.8530  0.4342
 1340TIP3    H2 4027   0.578   1.422   1.335 -0.2501  0.2327 -0.2634
 1341TIP3   OH2 4028   3.105   0.615   1.634 -0.1695  0.4498 -0.1723
 1341TIP3    H1 4029   3.082   0.538   1.582 -0.7586  1.5428 -1.6008
 1341TIP3    H2 4030   3.033   0.676   1.619  0.7084  1.6078  0.2223
 1342TIP3   OH2 4031   2.116   0.695   2.272  0.1413 -0.1956  0.1531
 1342TIP3    H1 4032   2.039   0.710   2.327 -1.4042 -3.2176 -0.9124
 1342TIP3    H2 4033   2.144   0.606   2.294  2.5287  0.3217 -0.4987
 1343TIP3   OH2 4034   3.426   2.210   4.335 -0.0444 -0.7879 -0.4211
 1343TIP3    H1 4035   3.366   2.144   4.369  0.1596  0.3835  2.4273
 1343TIP3    H2 4036   3.378   2.251   4.263 -1.6703 -1.5243  0.1998
 1344TIP3   OH2 4037   4.974   1.872   3.340  0.1289  0.0710  0.0845
 1344TIP3    H1 4038   4.905   1.852   3.403  1.2316  0.1849  1.3761
 1344TIP3    H2 4039   5.008   1.957   3.367  2.4712 -1.0877  1.0987
 1345TIP3   OH2 4040   1.084   1.289   1.209  0.4310  0.1197 -0.0627
 1345TIP3    H1 4041   1.108   1.381   1.218  1.7572  0.0743 -2.4270
 1345TIP3    H2 4042   1.000   1.282   1.255  0.2882  2.5001  0.1700
 1346TIP3   OH2 4043   4.105   0.017   2.482  0.2198  0.5021  0.0986
 1346TIP3    H1 4044   4.119  -0.047   2.412 -1.2524 -0.1498  0.3776
 1346TIP3    H2 4045   4.140   0.099   2.447  3.6592 -0.6830  0.3206
 1347TIP3   OH2 4046   1.996   5.465   4.914  0.3829 -0.0582 -0.2327
 1347TIP3    H1 4047   2.085   5.493   4.932 -0.1647  0.6513  1.7104
 1347TIP3    H2 4048   1.945   5.546   4.914 -0.3408 -0.5064 -0.7084
 1348TIP3   OH2 4049   6.253   3.624   5.037  0.5966 -0.2085  0.0299
 1348TIP3    H1 4050   6.331   3.661   5.080 -0.4435  0.6145  1.2647
 1348TIP3    H2 4051   6.202   3.586   5.108  0.8119 -2.5994 -1.0067
 1349TIP3   OH2 4052   2.456   1.018   0.837  0.5070 -0.0375 -0.1866
 1349TIP3    H1 4053   2.504   0.975   0.767  1.3140 -1.2046  1.0253
 1349TIP3    H2 4054   2.416   0.947   0.886 -0.9684  0.8162 -0.0897
 1350TIP3   OH2 4055   5.137   1.444   0.903 -0.3268  0.2866  0.3105
 1350TIP3    H1 4056   5.052   1.404   0.916 -1.3815  2.2697 -0.1449
 1350TIP3    H2 4057   5.194   1.402   0.968 -1.9910 -0.0082  1.6324
 1351TIP3   OH2 4058   5.483   0.852   2.015 -0.1327  0.1857  0.3762
 1351TIP3    H1 4059   5.446   0.938   2.033 -1.3976 -0.3246  0.3170
 1351TIP3    H2 4060   5.577   0.867   2.011 -0.4144  1.8267 -1.1036
 1352TIP3   OH2 4061   0.358   2.704   1.992  0.3338  0.1633  0.4979
 1352TIP3    H1 4062   0.310   2.626   1.963  1.0532 -0.1699  0.1754
 1352TIP3    H2 4063   0.450   2.684   1.973  0.7165  0.4126  1.9353
 1353TIP3   OH2 4064   2.224   0.496   3.731  0.3628 -0.2613  0.9211
 1353TIP3    H1 4065   2.159   0.473   3.664  1.0525 -0.2040  0.2174
 1353TIP3    H2 4066   2.202   0.585   3.757  1.1783  0.4123 -0.5698
 1354TIP3   OH2 4067   3.827   0.352   2.163 -0.2911 -0.0515 -0.0870
 1354TIP3    H1 4068   3.891   0.281   2.162 -0.6566 -0.3812 -0.3017
 1354TIP3    H2 4069   3.880   0.432   2.165  0.2853 -0.1799 -3.3228
 1355TIP3   OH2 4070   5.754   5.150   3.333 -0.2006 -0.7862 -0.1842
 1355TIP3    H1 4071   5.687   5.157   3.401  1.5632  0.2385  1.5377
 1355TIP3    H2 4072   5.812   5.081   3.364  1.1386  0.3189 -0.1630
 1356TIP3   OH2 4073   0.755   3.417   4.475  0.0662  0.7291  0.2594
 1356TIP3    H1 4074   0.741   3.475   4.401  1.3019 -0.4325 -0.9306
 1356TIP3    H2 4075   0.673   3.369   4.484 -0.5659  1.8394  0.5396
 1357TIP3   OH2 4076   4.509   5.277   4.487 -0.3030  0.1197  0.4997
 1357TIP3    H1 4077   4.573   5.215   4.452  0.5297  0.4665  1.3658
 1357TIP3    H2 4078   4.475   5.322   4.410 -0.8670 -1.3386 -0.1396
 1358TIP3   OH2 4079   1.238   2.686   4.910 -0.3723 -0.2093  0.5642
 1358TIP3    H1 4080   1.150   2.715   4.885 -0.0945  0.5193  0.4096
 1358TIP3    H2 4081   1.232   2.590   4.913 -0.1373 -0.5575 -3.6476
 1359TIP3   OH2 4082   2.950   4.143   3.472 -0.3493  0.2502 -1.1951
 1359TIP3    H1 4083   2.884   4.097   3.523 -1.3953  0.0594 -2.6627
 1359TIP3    H2 4084   2.917   4.140   3.382  1.3392  0.7273 -1.8657
 1360TIP3   OH2 4085   5.713   2.054   3.729  0.0783  0.3359  0.2583
 1360TIP3    H1 4086   5.740   2.027   3.642  1.3549  0.1504  0.6882
 1360TIP3    H2 4087   5.620   2.074   3.721  0.1206  0.0453 -1.0698
 1361TIP3   OH2 4088   4.145   4.929   0.223 -0.3795 -0.2270  0.1344
 1361TIP3    H1 4089   4.202   4.935   0.300 -1.3009 -3.2361  1.1595
 1361TIP3    H2 4090   4.203   4.950   0.149  1.3431 -0.4272  1.3788
 1362TIP3   OH2 4091   5.104   1.365   0.023  0.1932 -0.0535  0.2598
 1362TIP3    H1 4092   5.196   1.357   0.046  0.4681  1.5119 -0.1486
 1362TIP3    H2 4093   5.064   1.412   0.097  0.6474  3.0500 -1.2623
 1363TIP3   OH2 4094   4.221   5.188   3.055  0.5434 -0.6071 -0.6712
 1363TIP3    H1 4095   4.168   5.262   3.023 -1.0984 -0.5887  1.8094
 1363TIP3    H2 4096   4.186   5.112   3.008 -3.3418 -0.9325  2.2413
 1364TIP3   OH2 4097   4.384   4.963   3.189  0.4728  0.1728  0.4600
 1364TIP3    H1 4098   4.447   4.903   3.228  2.3610  1.0808 -1.0098
 1364TIP3    H2 4099   4.340   4.910   3.122  1.2041  0.0476  0.0596
 1365TIP3   OH2 4100   3.287   1.747   1.033 -0.1059  0.5252 -0.6857
 1365TIP3    H1 4101   3.315   1.665   1.074  2.2433  0.6661 -1.8777
 1365TIP3    H2 4102   3.222   1.783   1.094  0.0517 -1.3827  0.6958
 1366TIP3   OH2 4103   5.527   4.760   4.038  0.3103 -0.3234 -0.1866
 1366TIP3    H1 4104   5.622   4.769   4.039  0.2221  0.8994  0.9555
 1366TIP3    H2 4105   5.496   4.841   3.997 -0.3007  1.3449  3.1478
 1367TIP3   OH2 4106   1.499   2.628   3.536 -0.2143 -0.6086  0.3029
 1367TIP3    H1 4107   1.452   2.615   3.454  1.3621 -0.7030 -0.6375
 1367TIP3    H2 4108   1.474   2.716   3.565 -1.6334 -0.9940  0.3393
 1368TIP3   OH2 4109   4.024   3.448   5.020 -0.3682  0.4527  0.1207
 1368TIP3    H1 4110   3.987   3.372   5.065  2.3482  0.0033  1.8058
 1368TIP3    H2 4111   4.022   3.518   5.085 -0.7288  1.2176 -0.6759
 1369TIP3   OH2 4112   6.151   1.380   1.432  0.3121 -0.6051  0.2221
 1369TIP3    H1 4113   6.119   1.291   1.450  4.9010 -1.9583  3.6370
 1369TIP3    H2 4114   6.223   1.367   1.370  1.0088  0.7421  0.7181
 1370TIP3   OH2 4115   4.808   1.296   3.635 -0.4181 -0.0986 -0.0584
 1370TIP3    H1 4116   4.886   1.298   3.691 -0.7827  0.6874  0.4299
 1370TIP3    H2 4117   4.739   1.259   3.690 -1.2279  2.2792  0.6462
 1371TIP3   OH2 4118   3.160   0.355   0.234  0.1303 -0.0067  0.0035
 1371TIP3    H1 4119   3.236   0.413   0.227  0.1632  0.0196  0.5435
 1371TIP3    H2 4120   3.085   0.415   0.229  0.0670 -0.1878 -2.3523
 1372TIP3   OH2 4121   5.354   2.214   2.190 -0.2039  0.1342 -0.4225
 1372TIP3    H1 4122   5.435   2.244   2.149 -0.1716  0.5262 -0.0835
 1372TIP3    H2 4123   5.287   2.275   2.158 -0.0896  0.7541  0.4844
 1373TIP3   OH2 4124   4.216   0.800   3.739 -0.2336  0.1609  0.2040
 1373TIP3    H1 4125   4.238   0.707   3.744 -2.6420 -0.4394  0.6124
 1373TIP3    H2 4126   4.157   0.806   3.664  2.3232  1.9614 -1.8556
 1374TIP3   OH2 4127   3.900   0.370   0.723  0.1912  0.5555 -0.4778
 1374TIP3    H1 4128   3.981   0.340   0.763  1.0424  1.5465 -1.4137
 1374TIP3    H2 4129   3.897   0.464   0.740 -0.2883  0.6931 -1.2375
 1375TIP3   OH2 4130   4.385   4.525   4.110  0.6004  0.2639  0.3549
 1375TIP3    H1 4131   4.375   4.596   4.047 -0.8455  0.7760  1.1012
 1375TIP3    H2 4132   4.330   4.454   4.075 -2.0342  1.3103  2.0014
 1376TIP3   OH2 4133   0.961   2.267   0.198  0.2606 -0.0398  0.1286
 1376TIP3    H1 4134   0.953   2.284   0.105 -1.2197  2.9481  0.6885
 1376TIP3    H2 4135   0.892   2.202   0.216  0.5811 -0.6655 -0.8273
 1377TIP3   OH2 4136   4.605   2.935   1.795 -0.1676  0.2455 -0.0473
 1377TIP3    H1 4137   4.628   2.870   1.729  0.6737 -0.2703  0.7257
 1377TIP3    H2 4138   4.635   3.018   1.759 -0.5598  0.1009 -0.7126
 1378TIP3   OH2 4139   3.469   2.262   0.745  0.4289  0.1084 -0.0447
 1378TIP3    H1 4140   3.511   2.176   0.739  0.7941  0.0961  2.0291
 1378TIP3    H2 4141   3.454   2.287   0.654  3.0955 -0.7902 -0.8296
 1379TIP3   OH2 4142   4.061   4.427   1.457  0.4715  0.5113 -0.5169
 1379TIP3    H1 4143   4.057   4.522   1.451 -1.0585  0.5406  0.4317
 1379TIP3    H2 4144   4.007   4.405   1.534 -0.2119 -1.1839 -1.4142
 1380TIP3   OH2 4145   4.454   2.362   1.402 -0.3133  0.0007  0.0358
 1380TIP3    H1 4146   4.496   2.447   1.413  2.4499 -1.4309  1.3870
 1380TIP3    H2 4147   4.520   2.307   1.360 -1.4469 -1.9222  0.6504
 1381TIP3   OH2 4148   0.900   2.955   3.088 -0.1056 -0.0275 -0.0466
 1381TIP3    H1 4149   0.994   2.968   3.101 -0.1102  0.4084 -0.4200
 1381TIP3    H2 4150   0.873   2.900   3.162  0.5301 -0.5740 -0.2165
 1382TIP3   OH2 4151   4.229   5.672   0.287  0.2272 -0.7605  0.5561
 1382TIP3    H1 4152   4.244   5.580   0.265  3.0691 -0.0746 -0.7309
 1382TIP3    H2 4153   4.228   5.674   0.382  1.5151 -1.9373  0.6177
 1383TIP3   OH2 4154   1.675   2.284   4.577 -0.0091 -0.0555  0.2122
 1383TIP3    H1 4155   1.670   2.286   4.482 -2.7888  0.2828  0.2797
 1383TIP3    H2 4156   1.657   2.193   4.600 -2.1027  0.3738  0.4339
 1384TIP3   OH2 4157   0.528   3.173   3.780  0.2179  0.3550 -0.1457
 1384TIP3    H1 4158   0.452   3.223   3.809  0.1228  2.5106 -3.6133
 1384TIP3    H2 4159   0.496   3.083   3.772 -0.5638  0.2435  2.8550
 1385TIP3   OH2 4160   0.262   4.363   3.983 -0.2552  0.0126  0.1377
 1385TIP3    H1 4161   0.171   4.345   4.006 -0.2242  0.7384  0.8383
 1385TIP3    H2 4162   0.312   4.299   4.033 -0.4071 -0.7935 -0.7188
 1386TIP3   OH2 4163   2.776   3.062   5.194 -0.1494  0.0904  0.5181
 1386TIP3    H1 4164   2.801   3.153   5.210  2.8593 -0.4696 -0.2474
 1386TIP3    H2 4165   2.806   3.043   5.105  0.3477 -1.9260  1.0482
 1387TIP3   OH2 4166   3.769   5.537   1.187  0.0308 -1.3732 -0.2322
 1387TIP3    H1 4167   3.805   5.553   1.100  0.7680  0.1400  0.2991
 1387TIP3    H2 4168   3.820   5.595   1.244 -1.1522 -1.5423  1.0373
 1388TIP3   OH2 4169   3.319   4.579   2.770 -0.5623  0.6326 -0.0410
 1388TIP3    H1 4170   3.260   4.558   2.697 -0.9913  0.7101  0.2830
 1388TIP3    H2 4171   3.378   4.503   2.775  0.6896  1.4147 -1.6566
 1389TIP3   OH2 4172   5.919   3.370   2.852  0.3306  0.1876 -0.5986
 1389TIP3    H1 4173   5.966   3.417   2.784 -1.4501  1.1324 -1.2610
 1389TIP3    H2 4174   5.853   3.319   2.803 -0.2240 -0.0145  0.3410
 1390TIP3   OH2 4175   3.392   1.866   1.888 -0.6766 -0.5442 -0.0767
 1390TIP3    H1 4176   3.344   1.941   1.924  0.2377 -0.7296  1.6659
 1390TIP3    H2 4177   3.325   1.799   1.875 -1.2909  0.0921 -0.2669
 1391TIP3   OH2 4178   4.955   3.159   4.178  0.4033  0.6200  0.1398
 1391TIP3    H1 4179   4.956   3.079   4.230 -1.1117 -0.4532 -1.3732
 1391TIP3    H2 4180   4.866   3.192   4.185  0.4869  1.0959 -0.8323
 1392TIP3   OH2 4181   0.417   3.833   0.981  0.5032 -0.3704  0.9607
 1392TIP3    H1 4182   0.402   3.910   1.036  1.2875  0.4765  0.0267
 1392TIP3    H2 4183   0.400   3.863   0.892  0.4412 -1.3934  0.6127
 1393TIP3   OH2 4184   3.603   2.451   1.984  0.2356  0.1177 -0.3303
 1393TIP3    H1 4185   3.620   2.428   2.075 -2.1391  2.4212  0.8717
 1393TIP3    H2 4186   3.688   2.475   1.948  1.0959  0.1366  1.6056
 1394TIP3   OH2 4187   0.157   1.248   0.092 -0.3911 -0.5123  0.1507
 1394TIP3    H1 4188   0.083   1.250   0.031 -1.8930 -1.9286  1.8122
 1394TIP3    H2 4189   0.183   1.339   0.101 -0.7043 -0.1734 -1.8732
 1395TIP3   OH2 4190   1.749   5.581   1.457  0.5621  0.7109  0.3968
 1395TIP3    H1 4191   1.661   5.559   1.428  1.2960 -0.2489 -1.2067
 1395TIP3    H2 4192   1.737   5.610   1.548 -1.4446  1.0456  0.0754
 1396TIP3   OH2 4193   4.172   1.361   3.510  0.2824 -0.4785 -0.9843
 1396TIP3    H1 4194   4.097   1.417   3.491 -0.7851 -1.7388 -0.6091
 1396TIP3    H2 4195   4.154   1.325   3.596  0.6648 -1.8303 -1.4473
 1397TIP3   OH2 4196   4.359   5.442   0.163  0.7127 -0.1317 -0.0164
 1397TIP3    H1 4197   4.444   5.416   0.128 -0.1076  0.4066 -2.6255
 1397TIP3    H2 4198   4.334   5.519   0.112 -0.5205  0.8576  1.9702
 1398TIP3   OH2 4199   5.037   4.470   1.966 -0.1872 -0.3846 -0.3973
 1398TIP3    H1 4200   5.096   4.397   1.947 -0.2496 -0.3329 -0.7954
 1398TIP3    H2 4201   5.076   4.513   2.042 -0.7963 -1.5517  0.6158
 1399TIP3   OH2 4202   5.664   5.352   3.177 -0.3738  0.2591  0.4566
 1399TIP3    H1 4203   5.623   5.304   3.105  0.1980  2.4924 -1.4649
 1399TIP3    H2 4204   5.691   5.283   3.238 -0.9980 -1.7394 -1.3732
 1400TIP3   OH2 4205   4.731   5.677   3.526  0.2379  0.1940  0.0290
 1400TIP3    H1 4206   4.654   5.620   3.531  0.2588  0.2396  1.2511
 1400TIP3    H2 4207   4.694   5.764   3.512  0.1536  0.0341 -0.8082
 1401TIP3   OH2 4208   4.187   3.379   0.504  0.4464  0.2295 -0.3295
 1401TIP3    H1 4209   4.181   3.352   0.412  0.5309  1.0095 -0.5663
 1401TIP3    H2 4210   4.120   3.446   0.514 -0.9598 -1.2637  0.7043
 1402TIP3   OH2 4211   5.109   4.669   5.091  0.0375 -0.6841 -0.3368
 1402TIP3    H1 4212   5.121   4.759   5.060 -2.7156 -0.8259 -2.1339
 1402TIP3    H2 4213   5.155   4.615   5.026  1.9307 -0.6689  0.8918
 1403TIP3   OH2 4214   1.088   3.300   0.766  0.2599  0.6016 -0.5462
 1403TIP3    H1 4215   1.004   3.320   0.725  0.0059  2.0300  0.5776
 1403TIP3    H2 4216   1.068   3.230   0.827 -0.1638  1.0340 -0.1775
 1404TIP3   OH2 4217   0.987   4.751   0.495  0.4301 -0.0280 -0.3712
 1404TIP3    H1 4218   0.936   4.827   0.522  1.1463  0.5454 -0.6038
 1404TIP3    H2 4219   1.027   4.720   0.576  1.3282  0.7491 -0.5046
 1405TIP3   OH2 4220   4.171   1.941   4.968 -0.0106 -0.1865 -0.4716
 1405TIP3    H1 4221   4.141   2.001   4.899  0.2084 -1.0634 -1.3442
 1405TIP3    H2 4222   4.093   1.891   4.992 -0.0864  0.1159 -0.0663
 1406TIP3   OH2 4223   3.965   1.524   2.040  0.1930 -0.2670 -0.7168
 1406TIP3    H1 4224   4.043   1.470   2.027 -1.3019 -2.1571 -2.4961
 1406TIP3    H2 4225   3.986   1.607   1.999  0.6181 -1.4514 -3.0274
 1407TIP3   OH2 4226   3.993   1.351   0.455 -0.4257  0.4056  0.1595
 1407TIP3    H1 4227   3.905   1.347   0.417 -0.3457  1.3475 -0.1416
 1407TIP3    H2 4228   4.018   1.259   0.466 -1.4831  0.1297  0.3478
 1408TIP3   OH2 4229   0.440   4.252   2.602 -0.6961 -0.1716 -0.0735
 1408TIP3    H1 4230   0.435   4.282   2.693 -0.6211 -0.2721 -0.0360
 1408TIP3    H2 4231   0.351   4.226   2.581 -1.1265  1.5843 -0.6297
 1409TIP3   OH2 4232   3.051   3.023   4.176  0.3786 -0.3926  0.1625
 1409TIP3    H1 4233   3.030   2.934   4.148 -0.1555 -0.5604  1.0765
 1409TIP3    H2 4234   3.049   3.074   4.095 -1.4111 -0.8165 -0.1120
 1410TIP3   OH2 4235   1.569   3.909   0.799 -0.2058  0.2218  0.1101
 1410TIP3    H1 4236   1.499   3.846   0.812  0.1376 -0.1151  0.3559
 1410TIP3    H2 4237   1.595   3.897   0.708 -0.5504  0.4367 -0.0179
 1411TIP3   OH2 4238   2.421   2.478   1.631  0.0208  0.1066 -0.6091
 1411TIP3    H1 4239   2.349   2.441   1.581  0.7333 -0.1732 -1.4463
 1411TIP3    H2 4240   2.474   2.403   1.658  0.0939  0.3215 -0.1332
 1412TIP3   OH2 4241   5.257   2.042   2.376 -0.0135  0.6742 -0.1281
 1412TIP3    H1 4242   5.305   2.086   2.307  1.3442 -2.2782 -1.2422
 1412TIP3    H2 4243   5.313   2.050   2.454 -0.2418  1.6550 -0.0520
 1413TIP3   OH2 4244   3.086   0.819   2.242 -0.0775 -0.3826  0.1848
 1413TIP3    H1 4245   3.127   0.736   2.217  4.5540  1.4321  0.8329
 1413TIP3    H2 4246   3.039   0.799   2.323 -1.3494 -2.8020 -1.0323
 1414TIP3   OH2 4247   5.318   2.172   4.351 -0.5382 -0.2570 -0.3251
 1414TIP3    H1 4248   5.280   2.183   4.264  0.4905 -1.5603 -0.9867
 1414TIP3    H2 4249   5.413   2.178   4.336 -0.3225 -1.1268  0.5839
 1415TIP3   OH2 4250   2.544   0.034   4.508  0.0048 -0.0733 -0.0710
 1415TIP3    H1 4251   2.459   0.052   4.548 -0.8412 -1.7324 -1.0432
 1415TIP3    H2 4252   2.532   0.056   4.415  0.8161  0.1746 -0.1282
 1416TIP3   OH2 4253   6.252   0.857   3.191  0.0318 -0.1314 -0.0280
 1416TIP3    H1 4254   6.228   0.765   3.201  1.8113 -0.6248 -0.0680
 1416TIP3    H2 4255   6.169   0.901   3.173 -0.9601 -1.6021  0.7560
 1417TIP3   OH2 4256   5.043   5.123   1.222 -0.5333  0.4159 -0.5821
 1417TIP3    H1 4257   5.048   5.107   1.127  2.2499  1.8059 -0.7716
 1417TIP3    H2 4258   5.132   5.150   1.246 -0.9367 -0.6987  2.6177
 1418TIP3   OH2 4259   4.970   3.839   0.396 -0.2317 -0.1137  0.1309
 1418TIP3    H1 4260   4.985   3.843   0.302  1.2591 -0.7867  0.3136
 1418TIP3    H2 4261   5.055   3.863   0.435 -0.0727 -2.2633  1.2795
 1419TIP3   OH2 4262   1.196   2.185   0.733  0.0509  0.6037 -0.1400
 1419TIP3    H1 4263   1.115   2.162   0.778 -0.4431  1.7513 -0.4316
 1419TIP3    H2 4264   1.172   2.188   0.640  0.2895  1.4912 -0.1770
 1420TIP3   OH2 4265   2.227   5.965   3.878  0.4755 -0.0063  0.3764
 1420TIP3    H1 4266   2.192   5.894   3.825 -2.0931  1.1239  0.4301
 1420TIP3    H2 4267   2.200   5.944   3.968  1.2226  0.1657  0.6473
 1421TIP3   OH2 4268   3.216   2.469   4.558  0.3392 -0.6806  0.1129
 1421TIP3    H1 4269   3.245   2.462   4.649 -1.7020 -3.1472  0.6752
 1421TIP3    H2 4270   3.142   2.529   4.561  0.8898  0.0248 -0.1225
 1422TIP3   OH2 4271   2.709   3.549   2.021 -0.2665 -0.4927  0.6354
 1422TIP3    H1 4272   2.669   3.636   2.017 -1.6291 -1.1118  0.0974
 1422TIP3    H2 4273   2.779   3.558   2.085 -0.5573  0.9228  0.8025
 1423TIP3   OH2 4274   0.831   3.394   0.671 -0.0203 -0.2248 -0.3251
 1423TIP3    H1 4275   0.832   3.471   0.614  1.9689  0.7936  0.9692
 1423TIP3    H2 4276   0.784   3.422   0.749 -1.3260 -1.1055 -0.7611
 1424TIP3   OH2 4277   4.349   2.550   0.772  0.2430 -0.3609  0.2204
 1424TIP3    H1 4278   4.258   2.565   0.744 -0.3273 -1.4822  1.3731
 1424TIP3    H2 4279   4.401   2.567   0.693 -0.8791  1.0275 -0.2788
 1425TIP3   OH2 4280   5.948   3.991   1.923  0.2167 -0.3146 -0.4552
 1425TIP3    H1 4281   5.887   3.989   1.996  0.6401  1.1907 -0.0253
 1425TIP3    H2 4282   6.027   4.033   1.957  0.7256 -0.3167 -1.5585
 1426TIP3   OH2 4283   0.371   5.485   0.181  0.0959  0.0062 -0.5041
 1426TIP3    H1 4284   0.309   5.527   0.241 -0.2999  1.3659 -1.8010
 1426TIP3    H2 4285   0.316   5.450   0.111  0.5781 -1.2488 -0.2712
 1427TIP3   OH2 4286   5.935   0.084   1.739 -0.6418 -0.7597 -0.4409
 1427TIP3    H1 4287   5.966   0.070   1.828  1.1160  0.6526 -0.7671
 1427TIP3    H2 4288   5.890   0.003   1.716 -1.2805 -1.0965  1.7635
 1428TIP3   OH2 4289   5.547   0.645   5.077 -0.7618  0.2054  0.3385
 1428TIP3    H1 4290   5.500   0.563   5.061 -0.8148 -0.0703  1.7514
 1428TIP3    H2 4291   5.579   0.636   5.167  1.6862  0.5426 -0.4344
 1429TIP3   OH2 4292   2.276   3.171   3.587 -0.7178  0.1284  0.6286
 1429TIP3    H1 4293   2.370   3.172   3.569 -0.6494 -0.5076  0.9284
 1429TIP3    H2 4294   2.270   3.178   3.682 -0.8938 -1.5825  0.7817
 1430TIP3   OH2 4295   0.315   2.475   3.063  0.0432 -0.0434 -0.4133
 1430TIP3    H1 4296   0.291   2.534   3.134  0.0198  0.8518 -1.1490
 1430TIP3    H2 4297   0.236   2.424   3.046  0.0266 -0.2063  0.1399
 1431TIP3   OH2 4298   0.172   1.127   5.052  0.1575 -0.3576  0.3614
 1431TIP3    H1 4299   0.192   1.148   5.143 -0.5457  0.9289  0.2314
 1431TIP3    H2 4300   0.165   1.211   5.008  0.6429 -0.9604 -0.9361
 1432TIP3   OH2 4301   0.404   2.498   4.910 -0.0895 -0.3088 -0.3670
 1432TIP3    H1 4302   0.460   2.473   4.836  0.8645  1.3552 -0.2446
 1432TIP3    H2 4303   0.317   2.510   4.871  0.2955  0.0471 -1.1364
 1433TIP3   OH2 4304   5.380   5.533   1.258 -0.7732  0.3114 -0.0079
 1433TIP3    H1 4305   5.462   5.509   1.215 -1.6448  0.4666 -1.8563
 1433TIP3    H2 4306   5.329   5.452   1.261 -0.3245  0.0668  1.7387
 1434TIP3   OH2 4307   5.947   5.205   1.859  0.3454  0.0289  0.2046
 1434TIP3    H1 4308   5.970   5.272   1.794 -0.4328 -2.1565 -2.4791
 1434TIP3    H2 4309   6.003   5.131   1.838 -0.7491 -1.1569  1.3195
 1435TIP3   OH2 4310   1.022   2.702   3.510  0.2062  0.0412 -0.2895
 1435TIP3    H1 4311   0.963   2.640   3.466  0.2116  0.2732 -0.6242
 1435TIP3    H2 4312   1.097   2.648   3.537 -0.4246 -0.3805  0.6911
 1436TIP3   OH2 4313   2.581   0.562   1.183 -0.0350  0.1527 -0.9303
 1436TIP3    H1 4314   2.627   0.627   1.129  0.6772 -0.8399 -1.5517
 1436TIP3    H2 4315   2.499   0.605   1.208  0.0199  0.9542 -2.0751
 1437TIP3   OH2 4316   0.420   5.634   1.435  0.1424 -0.1278 -0.2870
 1437TIP3    H1 4317   0.424   5.540   1.454  1.7747  0.4986  3.0358
 1437TIP3    H2 4318   0.413   5.676   1.520  2.1232  2.8926 -1.4385
 1438TIP3   OH2 4319   3.806   1.925   2.066  0.0268  0.8254 -0.8323
 1438TIP3    H1 4320   3.758   1.908   1.986  0.7007  0.1487 -1.1003
 1438TIP3    H2 4321   3.890   1.960   2.037  0.4663  0.1087 -0.4401
 1439TIP3   OH2 4322   4.690   1.441   4.842  0.3392  0.1895  0.1546
 1439TIP3    H1 4323   4.684   1.456   4.748 -0.7888 -0.7796  0.0431
 1439TIP3    H2 4324   4.767   1.385   4.852  0.6176  0.5071 -0.1471
 1440TIP3   OH2 4325   0.362   2.310   1.817 -0.4493 -0.3606  0.1780
 1440TIP3    H1 4326   0.387   2.395   1.782  2.3655 -0.7801  0.9126
 1440TIP3    H2 4327   0.340   2.328   1.909 -2.4583 -0.0845 -0.3184
 1441TIP3   OH2 4328   4.236   1.783   3.704 -0.2913 -0.3208 -0.2621
 1441TIP3    H1 4329   4.328   1.794   3.682  1.0455 -0.2667  4.2874
 1441TIP3    H2 4330   4.212   1.698   3.667  1.4012 -0.1198 -1.9506
 1442TIP3   OH2 4331   1.687   4.372   3.257  0.5463 -0.0161  0.0531
 1442TIP3    H1 4332   1.683   4.291   3.309 -1.1101  0.8728  1.4270
 1442TIP3    H2 4333   1.688   4.442   3.322 -2.0457  1.1652 -1.0281
 1443TIP3   OH2 4334   4.966   3.033   3.093  0.1403  0.1949 -0.2341
 1443TIP3    H1 4335   4.968   3.073   3.180  0.1462 -0.5644  0.1206
 1443TIP3    H2 4336   4.978   2.939   3.109  3.1711  0.3015 -1.2398
 1444TIP3   OH2 4337   5.646   2.827   2.807  0.4809  0.3228 -0.2210
 1444TIP3    H1 4338   5.611   2.753   2.757 -0.0590 -1.2448  2.2663
 1444TIP3    H2 4339   5.569   2.861   2.854  0.9775  1.6561 -0.3485
 1445TIP3   OH2 4340   1.702   5.608   2.038 -0.4881 -0.5927 -0.0836
 1445TIP3    H1 4341   1.793   5.620   2.065  0.0871  0.0131 -2.1408
 1445TIP3    H2 4342   1.688   5.513   2.044  1.5585 -1.2324 -3.3341
 1446TIP3   OH2 4343   5.191   3.005   5.080  0.0585 -0.2264 -0.1550
 1446TIP3    H1 4344   5.143   2.935   5.124  0.4036 -0.6017 -0.3732
 1446TIP3    H2 4345   5.275   3.009   5.124 -1.1827  2.4878  2.3188
 1447TIP3   OH2 4346   4.687   1.783   2.426 -0.1517 -0.9583  0.4598
 1447TIP3    H1 4347   4.656   1.806   2.514  1.0113 -0.8092  0.8546
 1447TIP3    H2 4348   4.782   1.787   2.433  0.0648 -3.6098 -0.0897
 1448TIP3   OH2 4349   3.058   4.185   2.300 -0.6349 -0.0333  0.1427
 1448TIP3    H1 4350   3.130   4.138   2.342 -0.2564 -0.8158 -1.3428
 1448TIP3    H2 4351   3.084   4.277   2.305 -0.1533 -0.1927  0.7553
 1449TIP3   OH2 4352   5.961   5.420   3.590  0.3333 -0.0777 -0.3635
 1449TIP3    H1 4353   5.869   5.429   3.615  0.4645 -2.0208  1.0994
 1449TIP3    H2 4354   5.968   5.463   3.505 -1.7484  0.7845 -0.1386
 1450TIP3   OH2 4355   2.737   4.272   0.256 -0.4033  0.5263 -0.3766
 1450TIP3    H1 4356   2.746   4.250   0.348 -1.8516 -0.0266 -0.3343
 1450TIP3    H2 4357   2.668   4.339   0.254  0.0350  0.9704 -1.0012
 1451TIP3   OH2 4358   3.270   2.796   3.030  0.7596 -0.4745  0.2053
 1451TIP3    H1 4359   3.253   2.803   2.936  1.5123 -0.2251  0.0761
 1451TIP3    H2 4360   3.184   2.802   3.071  0.4248 -0.5996 -0.4707
 1452TIP3   OH2 4361   3.050   0.619   0.574 -0.3613  0.0342  0.2573
 1452TIP3    H1 4362   3.055   0.624   0.670 -0.2474 -0.3924  0.2736
 1452TIP3    H2 4363   3.139   0.596   0.546 -0.6319 -0.8323  0.1130
 1453TIP3   OH2 4364   0.613   4.912   0.076  0.4066 -0.1735 -0.2530
 1453TIP3    H1 4365   0.557   4.849   0.029 -0.4197  1.1438 -1.0804
 1453TIP3    H2 4366   0.648   4.862   0.150  0.4662 -1.8592 -1.3651
 1454TIP3   OH2 4367   5.552   3.651   0.310  0.7158 -0.4582 -0.4230
 1454TIP3    H1 4368   5.564   3.731   0.259 -0.9668  0.1486  0.0680
 1454TIP3    H2 4369   5.514   3.680   0.393 -0.2158 -1.7622 -0.3524
 1455TIP3   OH2 4370   3.324   5.672   2.139  0.1488 -0.1905  0.3914
 1455TIP3    H1 4371   3.277   5.737   2.192 -2.4219 -2.1387  0.7306
 1455TIP3    H2 4372   3.304   5.589   2.181  1.4324 -1.4307 -1.3326
 1456TIP3   OH2 4373   1.711   3.209   3.048  0.2402 -0.1987  0.0999
 1456TIP3    H1 4374   1.672   3.141   3.103 -0.3038  1.3215  1.6888
 1456TIP3    H2 4375   1.777   3.250   3.103 -0.1338  1.2024 -0.4445
 1457TIP3   OH2 4376   0.564   2.894   1.737 -0.8201 -0.0569  0.2074
 1457TIP3    H1 4377   0.499   2.839   1.692 -0.7471  0.6400 -0.7821
 1457TIP3    H2 4378   0.607   2.943   1.667  2.3697 -2.0680  0.5510
 1458TIP3   OH2 4379   0.654   3.452   2.386  0.2958  0.3447  0.1857
 1458TIP3    H1 4380   0.597   3.510   2.336 -0.5695  0.2382  1.0253
 1458TIP3    H2 4381   0.614   3.448   2.474  1.4547  0.0778  0.7206
 1459TIP3   OH2 4382   5.515   3.710   3.863 -0.0544 -0.2462 -0.0640
 1459TIP3    H1 4383   5.446   3.699   3.797 -0.6267 -1.6411  0.7372
 1459TIP3    H2 4384   5.480   3.669   3.942  1.4495 -0.4230  0.5387
 1460TIP3   OH2 4385   3.065   4.503   0.984  0.3033 -0.5881 -0.4988
 1460TIP3    H1 4386   3.059   4.430   1.046  0.4963  0.9153  1.3626
 1460TIP3    H2 4387   2.982   4.549   0.995  0.6827  0.1590 -0.7652
 1461TIP3   OH2 4388   6.012   4.634   4.699 -0.9793 -0.3789 -0.3449
 1461TIP3    H1 4389   6.052   4.595   4.622 -1.8258  1.8621 -2.0198
 1461TIP3    H2 4390   5.963   4.562   4.740 -2.7354 -1.1330 -3.4443
 1462TIP3   OH2 4391   2.053   5.918   3.509 -0.2586  0.6958 -0.1241
 1462TIP3    H1 4392   2.125   5.928   3.447 -0.0453 -1.3361 -0.2544
 1462TIP3    H2 4393   2.091   5.874   3.584 -1.2151  0.2394  0.1097
 1463TIP3   OH2 4394   0.640   4.793   4.435 -0.6256  0.3677  0.6255
 1463TIP3    H1 4395   0.549   4.818   4.422 -0.4303  0.9006  0.2698
 1463TIP3    H2 4396   0.638   4.737   4.513 -1.3828 -0.3826  0.0959
 1464TIP3   OH2 4397   5.684   2.144   1.877 -0.2794  0.0413 -0.2086
 1464TIP3    H1 4398   5.750   2.198   1.834  0.0351 -0.7908 -0.7945
 1464TIP3    H2 4399   5.674   2.183   1.964  0.4453  0.6130 -0.3720
 1465TIP3   OH2 4400   0.865   5.929   3.072 -0.4770 -0.3280  0.3429
 1465TIP3    H1 4401   0.782   5.889   3.046 -1.1789  0.0570  1.8769
 1465TIP3    H2 4402   0.901   5.869   3.139 -0.0255  0.0292  0.4262
 1466TIP3   OH2 4403   0.528   4.285   4.368  0.0609 -0.3874 -0.5641
 1466TIP3    H1 4404   0.500   4.238   4.289  2.2677 -0.9437 -1.0854
 1466TIP3    H2 4405   0.587   4.353   4.335 -0.1431  0.3297  0.5103
 1467TIP3   OH2 4406   1.833   5.022   2.366  0.1963  1.0084 -0.0275
 1467TIP3    H1 4407   1.826   4.981   2.452 -0.1469  0.9151 -0.1009
 1467TIP3    H2 4408   1.914   4.985   2.329 -0.4247 -0.0781 -0.3375
 1468TIP3   OH2 4409   3.174   0.875   4.245  0.3122 -0.2659 -0.4253
 1468TIP3    H1 4410   3.236   0.807   4.217  2.7627  0.8511  1.8071
 1468TIP3    H2 4411   3.193   0.887   4.338 -1.1019  2.3909 -0.3960
 1469TIP3   OH2 4412   1.451   1.726   2.318 -0.0469 -0.0393  0.2969
 1469TIP3    H1 4413   1.493   1.810   2.302  2.1921 -0.9887  0.7974
 1469TIP3    H2 4414   1.408   1.737   2.403  0.8963  0.4012  0.7395
 1470TIP3   OH2 4415   2.358   1.848   1.829  0.5215  0.5896  0.5935
 1470TIP3    H1 4416   2.344   1.756   1.853 -1.4953  0.4173 -0.9945
 1470TIP3    H2 4417   2.274   1.890   1.846  0.8362  1.7193 -0.5151
 1471TIP3   OH2 4418   4.205   3.783   1.399  0.1801  0.5237  0.5629
 1471TIP3    H1 4419   4.138   3.834   1.443 -1.2495 -0.5454 -0.2922
 1471TIP3    H2 4420   4.160   3.704   1.368  1.5775  0.2530 -0.9706
 1472TIP3   OH2 4421   3.860   3.607   1.196  0.0602 -0.1692 -0.0353
 1472TIP3    H1 4422   3.771   3.639   1.184  0.8778  2.1828 -0.4360
 1472TIP3    H2 4423   3.893   3.657   1.271  1.6066  0.3624 -1.0340
 1473TIP3   OH2 4424   5.162   5.373   2.061 -0.2313  0.5750 -0.1293
 1473TIP3    H1 4425   5.110   5.388   2.141  0.4792 -2.2024  0.9470
 1473TIP3    H2 4426   5.248   5.349   2.093  0.2347 -0.0298 -1.7815
 1474TIP3   OH2 4427   3.232   4.411   2.162 -0.0752  0.3025  0.2051
 1474TIP3    H1 4428   3.150   4.428   2.115 -0.8447 -1.6866  0.7313
 1474TIP3    H2 4429   3.209   4.424   2.254  1.0677  2.7976  0.2215
 1475TIP3   OH2 4430   4.457   0.120   0.881 -0.0757  1.0927 -0.6706
 1475TIP3    H1 4431   4.451   0.192   0.944  0.1097 -0.2069  0.9194
 1475TIP3    H2 4432   4.522   0.061   0.920  0.9078  0.7791 -2.6803
 1476TIP3   OH2 4433   5.133   3.083   2.036 -0.2060  0.1696 -0.3335
 1476TIP3    H1 4434   5.177   3.076   2.121  1.7418 -2.3745 -1.3919
 1476TIP3    H2 4435   5.179   3.154   1.992 -1.5806  1.8693  0.8401
 1477TIP3   OH2 4436   0.532   3.166   0.814 -0.2544 -0.5422 -0.1372
 1477TIP3    H1 4437   0.451   3.198   0.775  0.8643  2.6030 -0.1560
 1477TIP3    H2 4438   0.593   3.159   0.740  1.0016  2.5469  0.4509
 1478TIP3   OH2 4439   2.727   3.760   2.796  0.3626  0.2406 -0.4148
 1478TIP3    H1 4440   2.744   3.680   2.845 -0.7731  0.4520  0.3673
 1478TIP3    H2 4441   2.653   3.738   2.739  1.0028  0.3046 -1.2878
 1479TIP3   OH2 4442   3.187   2.949   4.680  0.3660  0.0785  0.1673
 1479TIP3    H1 4443   3.195   2.927   4.588  0.1381 -1.1529  0.4357
 1479TIP3    H2 4444   3.188   3.045   4.681 -0.0597  0.1172 -1.1425
 1480TIP3   OH2 4445   0.334   0.293   3.693  0.3060 -0.2751 -0.2344
 1480TIP3    H1 4446   0.283   0.213   3.681 -0.9905  0.0893  2.1071
 1480TIP3    H2 4447   0.270   0.364   3.681  0.8470  0.3019  0.2267
 1481TIP3   OH2 4448   5.565   5.904   2.176  0.2923 -0.0277 -0.5919
 1481TIP3    H1 4449   5.477   5.893   2.209  1.2474  0.1881  2.2511
 1481TIP3    H2 4450   5.568   5.995   2.145 -0.2306  0.2722  0.2089
 1482TIP3   OH2 4451   1.536   3.595   4.913  0.1801  0.2179  0.5836
 1482TIP3    H1 4452   1.620   3.606   4.869 -0.6111 -1.3621 -1.4716
 1482TIP3    H2 4453   1.479   3.555   4.848 -2.0329  0.7205  2.0936
 1483TIP3   OH2 4454   3.827   4.940   1.335 -0.4874  0.1985 -0.1616
 1483TIP3    H1 4455   3.903   4.950   1.277 -0.4179 -0.7885 -0.2481
 1483TIP3    H2 4456   3.865   4.913   1.419 -0.8167 -1.5273 -0.5415
 1484TIP3   OH2 4457   0.368   1.485   0.098 -0.2074 -0.3561  0.1470
 1484TIP3    H1 4458   0.400   1.442   0.019 -1.6314 -0.4161 -0.4360
 1484TIP3    H2 4459   0.368   1.578   0.077  0.6965 -0.2411  0.5880
 1485TIP3   OH2 4460   3.245   5.913   3.483 -0.0897 -0.1064 -0.5747
 1485TIP3    H1 4461   3.194   5.877   3.411 -0.0090 -0.4805 -0.4480
 1485TIP3    H2 4462   3.222   6.006   3.485  0.7124  0.1316 -1.7557
 1486TIP3   OH2 4463   4.618   5.202   0.406 -0.2680  0.2286  0.0593
 1486TIP3    H1 4464   4.704   5.241   0.424 -0.5385  1.2190 -0.7157
 1486TIP3    H2 4465   4.591   5.164   0.490  1.1777 -0.6278  0.1637
 1487TIP3   OH2 4466   3.010   1.073   4.584 -0.0495  0.2812  0.6944
 1487TIP3    H1 4467   3.022   1.150   4.529  1.0723 -0.4906 -0.2008
 1487TIP3    H2 4468   3.067   1.089   4.660 -0.4238  0.6796  0.8915
 1488TIP3   OH2 4469   0.705   3.221   1.970  0.0306  0.3774  0.2134
 1488TIP3    H1 4470   0.723   3.164   2.045  2.2027  0.4024 -0.2249
 1488TIP3    H2 4471   0.610   3.216   1.959 -0.1091 -1.2668  1.6636
 1489TIP3   OH2 4472   4.630   0.664   3.340  0.1267  0.2129  0.0063
 1489TIP3    H1 4473   4.559   0.697   3.285 -0.6308  0.2861  1.0063
 1489TIP3    H2 4474   4.598   0.674   3.430  1.4480  0.3502  0.4827
 1490TIP3   OH2 4475   5.976   3.058   0.661 -0.5186 -0.4960  0.0348
 1490TIP3    H1 4476   6.005   3.020   0.578 -1.1471 -0.2623 -0.2968
 1490TIP3    H2 4477   5.996   2.992   0.727  0.8358 -0.3138 -0.1717
 1491TIP3   OH2 4478   6.275   2.392   0.278  0.2254 -0.0427  0.1007
 1491TIP3    H1 4479   6.290   2.376   0.371  0.4475 -0.4703 -0.0041
 1491TIP3    H2 4480   6.203   2.333   0.255  0.0280  0.2171  0.0494
 1492TIP3   OH2 4481   4.594   5.353   2.067 -0.0703  0.1520  0.3238
 1492TIP3    H1 4482   4.538   5.379   1.994  1.5784 -0.9841 -1.4504
 1492TIP3    H2 4483   4.539   5.364   2.145 -1.8333  1.6013 -1.0362
 1493TIP3   OH2 4484   1.153   5.525   1.379  0.3531  0.7755 -0.2415
 1493TIP3    H1 4485   1.121   5.555   1.294 -0.4509 -0.8963 -0.5580
 1493TIP3    H2 4486   1.188   5.438   1.362 -1.1323 -0.1915  1.3861
 1494TIP3   OH2 4487   3.297   5.968   1.021  0.7367  0.0082  0.2948
 1494TIP3    H1 4488   3.324   5.889   1.069 -0.1086  1.0602  2.6205
 1494TIP3    H2 4489   3.202   5.961   1.015  0.6075  1.0905  0.9798
 1495TIP3   OH2 4490   6.128   0.864   1.779  0.2830 -0.5737  0.4117
 1495TIP3    H1 4491   6.049   0.903   1.742  0.1754 -1.3056 -0.1700
 1495TIP3    H2 4492   6.097   0.786   1.825  0.5235 -0.1557  1.3032
 1496TIP3   OH2 4493   2.687   5.500   2.397  0.1567 -0.0895  0.3405
 1496TIP3    H1 4494   2.738   5.421   2.378  0.7689  0.1705  0.8624
 1496TIP3    H2 4495   2.613   5.469   2.449  0.1924 -0.3698  0.2251
 1497TIP3   OH2 4496   5.651   0.127   1.026  0.2120  0.1245  0.0703
 1497TIP3    H1 4497   5.625   0.186   0.955 -2.2319  0.3241  1.0156
 1497TIP3    H2 4498   5.590   0.053   1.019 -0.5337  0.4537  2.2600
 1498TIP3   OH2 4499   1.450   2.915   0.880  0.5033  0.1662  0.0326
 1498TIP3    H1 4500   1.486   2.978   0.817  1.3369 -0.4355 -0.0950
 1498TIP3    H2 4501   1.525   2.866   0.912 -0.2259 -1.4950 -0.6592
 1499TIP3   OH2 4502   3.218   5.356   0.760  0.6494  0.1898 -0.3227
 1499TIP3    H1 4503   3.145   5.415   0.778  0.6074 -0.3332  1.4546
 1499TIP3    H2 4504   3.208   5.331   0.669  0.5128  2.7103 -1.0628
 1500TIP3   OH2 4505   3.036   4.172   4.329  0.0771  0.7734 -0.2749
 1500TIP3    H1 4506   3.083   4.170   4.412  0.1231 -1.8711 -0.2862
 1500TIP3    H2 4507   2.945   4.154   4.352 -0.4279  2.7562 -0.5723
 1501TIP3   OH2 4508   3.413   5.205   2.385  0.1509  0.1272  0.4458
 1501TIP3    H1 4509   3.369   5.202   2.300 -0.5053  1.6629  0.7015
 1501TIP3    H2 4510   3.409   5.115   2.417  0.2414 -0.4402 -1.0581
 1502TIP3   OH2 4511   3.292   4.636   4.862 -0.0745  0.4322 -0.2024
 1502TIP3    H1 4512   3.289   4.729   4.838  1.2192  0.9404  1.4078
 1502TIP3    H2 4513   3.209   4.601   4.831 -0.8582  2.2674 -0.3201
 1503TIP3   OH2 4514   4.679   3.189   0.102 -0.4886  0.0485 -0.7760
 1503TIP3    H1 4515   4.631   3.249   0.044 -3.1592 -0.3375  0.8612
 1503TIP3    H2 4516   4.710   3.245   0.173  0.3770  0.0754 -1.1650
 1504TIP3   OH2 4517   2.429   1.006   1.404  0.5743 -0.0588  0.2671
 1504TIP3    H1 4518   2.341   1.032   1.377  0.2408 -0.5160  0.8842
 1504TIP3    H2 4519   2.481   1.086   1.397 -0.5371  0.9595  2.6541
 1505TIP3   OH2 4520   3.203   2.262   1.501  0.2787 -0.0355  0.3356
 1505TIP3    H1 4521   3.278   2.311   1.535  1.7406 -2.0267  0.1667
 1505TIP3    H2 4522   3.127   2.315   1.524  1.6158  1.2987  1.9440
 1506TIP3   OH2 4523   2.698   3.378   3.476  0.0766  0.3211  0.7886
 1506TIP3    H1 4524   2.621   3.356   3.528 -0.8925  3.0470  0.6812
 1506TIP3    H2 4525   2.668   3.373   3.385  0.5346 -0.2757  0.6664
 1507TIP3   OH2 4526   5.585   4.048   3.579  0.0630  0.4036  0.2933
 1507TIP3    H1 4527   5.613   3.957   3.587 -1.0957  0.0824  0.8039
 1507TIP3    H2 4528   5.555   4.072   3.667 -1.8447  0.5190 -0.3422
 1508TIP3   OH2 4529   2.544   5.551   4.772  0.1205 -0.5726  0.4131
 1508TIP3    H1 4530   2.509   5.524   4.856  0.5713 -1.7461  0.2414
 1508TIP3    H2 4531   2.469   5.588   4.725 -0.8114 -2.5681  0.2484
 1509TIP3   OH2 4532   2.483   3.296   4.187  0.1885 -0.5554 -0.5403
 1509TIP3    H1 4533   2.434   3.376   4.207 -0.8420 -1.4677  0.6511
 1509TIP3    H2 4534   2.571   3.328   4.164  0.0675  0.8704  0.8056
 1510TIP3   OH2 4535   0.536   3.443   3.525  0.2801 -0.4053  0.8040
 1510TIP3    H1 4536   0.503   3.471   3.439  0.2570  0.1586  0.9947
 1510TIP3    H2 4537   0.598   3.373   3.504 -1.2583 -1.7271  0.4598
 1511TIP3   OH2 4538   1.967   0.440   0.947  0.3594  0.0766 -0.0020
 1511TIP3    H1 4539   2.057   0.470   0.963 -0.0115  0.8789  0.6689
 1511TIP3    H2 4540   1.960   0.434   0.852  1.7227 -1.9213 -0.0188
 1512TIP3   OH2 4541   4.390   4.954   1.528 -0.4235 -0.8193  0.1148
 1512TIP3    H1 4542   4.438   4.960   1.610 -0.9400  0.4996  0.3433
 1512TIP3    H2 4543   4.300   4.937   1.554 -0.5851 -0.4192 -0.1769
 1513TIP3   OH2 4544   4.534   0.921   0.136 -0.0688  0.0537 -0.5197
 1513TIP3    H1 4545   4.566   0.843   0.180 -1.6234 -0.5852 -0.4845
 1513TIP3    H2 4546   4.614   0.971   0.115  1.0110 -1.9153 -1.3063
 1514TIP3   OH2 4547   3.660   2.127   0.594  0.3134 -0.1330  0.3019
 1514TIP3    H1 4548   3.751   2.143   0.567  0.8021 -1.3016  1.1888
 1514TIP3    H2 4549   3.632   2.054   0.538  0.4008 -0.6960  0.9762
 1515TIP3   OH2 4550   0.456   2.099   5.115 -0.3635 -0.3860  0.2558
 1515TIP3    H1 4551   0.386   2.146   5.069 -0.5344 -3.7422 -3.3298
 1515TIP3    H2 4552   0.537   2.128   5.074 -0.2087 -1.0310  0.0963
 1516TIP3   OH2 4553   5.565   0.989   1.747  0.2360 -0.0755 -0.2683
 1516TIP3    H1 4554   5.567   0.938   1.827 -1.0678 -0.5257 -0.4892
 1516TIP3    H2 4555   5.478   0.972   1.710  0.2874  1.2083 -1.0603
 1517TIP3   OH2 4556   0.068   3.488   0.214  0.5379  0.2508 -0.9723
 1517TIP3    H1 4557  -0.015   3.529   0.189  0.4445 -0.2573 -1.5117
 1517TIP3    H2 4558   0.058   3.471   0.308 -0.0177  0.0844 -1.0566
 1518TIP3   OH2 4559  -0.019   3.197   3.345  0.2442 -0.2092 -0.3345
 1518TIP3    H1 4560  -0.043   3.118   3.394  1.1448 -0.2469  0.0701
 1518TIP3    H2 4561   0.070   3.179   3.313  0.1980  0.3746 -0.8035
 1519TIP3   OH2 4562   1.246   3.897   2.587 -0.1068  0.2593 -1.2945
 1519TIP3    H1 4563   1.201   3.973   2.624 -0.1395 -0.1120 -0.5573
 1519TIP3    H2 4564   1.334   3.929   2.567 -0.4554  0.7828 -2.0299
 1520TIP3   OH2 4565   5.780   4.574   2.642  0.8863  0.4256  0.4859
 1520TIP3    H1 4566   5.765   4.484   2.670  0.2252  0.7309  1.1514
 1520TIP3    H2 4567   5.715   4.590   2.574  1.4026  0.2176 -0.0702
 1521TIP3   OH2 4568   2.439   3.867   4.934  0.0142 -0.4166  0.1688
 1521TIP3    H1 4569   2.420   3.779   4.900 -2.2782  1.1382 -3.1986
 1521TIP3    H2 4570   2.513   3.897   4.881  0.9715 -0.3872  1.4988
 1522TIP3   OH2 4571   6.253   4.514   2.508 -0.1696  0.4540  0.7784
 1522TIP3    H1 4572   6.249   4.519   2.413  0.1632 -0.8058  0.6866
 1522TIP3    H2 4573   6.261   4.421   2.527 -1.0243  0.6218  2.0753
 1523TIP3   OH2 4574   4.838   5.838   2.556  0.1507 -0.5679 -0.3077
 1523TIP3    H1 4575   4.833   5.905   2.624  0.6960 -1.0669  0.2442
 1523TIP3    H2 4576   4.753   5.841   2.512  0.8769  1.9566 -1.7331
 1524TIP3   OH2 4577   4.305   4.765   3.988 -0.1048 -0.3071 -0.4017
 1524TIP3    H1 4578   4.271   4.773   3.899 -0.9320 -0.3596 -0.1030
 1524TIP3    H2 4579   4.344   4.851   4.006 -0.4764 -0.0942 -0.5989
 1525TIP3   OH2 4580   3.804   5.391   0.114 -0.2137  0.1862 -0.6032
 1525TIP3    H1 4581   3.779   5.318   0.057  1.1146  1.0500 -2.3890
 1525TIP3    H2 4582   3.894   5.372   0.141 -1.1456 -0.7608  2.2403
 1526TIP3   OH2 4583   2.949   4.083   5.174  0.3127 -0.2394  0.2178
 1526TIP3    H1 4584   2.986   4.152   5.229  0.7509 -0.7923  0.6384
 1526TIP3    H2 4585   3.025   4.039   5.136  0.0841 -1.1067  0.7379
 1527TIP3   OH2 4586   1.583   1.203   2.755  0.1416 -0.0576  0.5547
 1527TIP3    H1 4587   1.583   1.299   2.752 -0.0314 -0.0557  0.6127
 1527TIP3    H2 4588   1.601   1.183   2.847  0.5625 -0.0841  0.4696
 1528TIP3   OH2 4589   2.467   0.582   2.047  0.0232 -0.2096 -0.0560
 1528TIP3    H1 4590   2.388   0.533   2.024  0.7564 -1.3243 -0.2963
 1528TIP3    H2 4591   2.469   0.581   2.143 -0.1018 -0.4200 -0.0561
 1529TIP3   OH2 4592   0.415   1.859   2.725  0.2233 -0.0219 -0.4112
 1529TIP3    H1 4593   0.340   1.838   2.668  0.6381 -1.1366 -0.5683
 1529TIP3    H2 4594   0.422   1.783   2.783 -0.0755  1.0081  1.0350
 1530TIP3   OH2 4595   4.505   2.155   0.685  0.1705 -0.9096  0.6683
 1530TIP3    H1 4596   4.508   2.225   0.751  3.3017  0.9230 -1.1665
 1530TIP3    H2 4597   4.516   2.074   0.735 -1.5109  0.0166  2.6813
 1531TIP3   OH2 4598   1.203   1.514   3.757  0.5976 -0.3494 -0.5495
 1531TIP3    H1 4599   1.204   1.487   3.849  1.5599  1.9269  0.1774
 1531TIP3    H2 4600   1.252   1.596   3.756 -0.4465  0.3136 -2.8968
 1532TIP3   OH2 4601   3.206   3.353   2.510 -0.2232  0.3620 -0.2576
 1532TIP3    H1 4602   3.250   3.307   2.581 -1.5719 -0.2542  0.2285
 1532TIP3    H2 4603   3.135   3.400   2.553  1.2576  3.2054 -0.6949
 1533TIP3   OH2 4604   6.015   5.018   3.573  0.9836  0.2987  1.0097
 1533TIP3    H1 4605   6.088   4.992   3.517 -0.1916 -0.8841 -0.0189
 1533TIP3    H2 4606   5.997   5.109   3.547 -1.5359 -1.0924 -2.9507
 1534TIP3   OH2 4607   3.982   4.457   3.932 -0.1672  0.9191  0.3999
 1534TIP3    H1 4608   3.931   4.411   3.999 -2.0994  2.0832 -0.1849
 1534TIP3    H2 4609   3.930   4.448   3.852  1.0142  1.3877 -0.4514
 1535TIP3   OH2 4610   0.640   1.411   0.958 -0.2126 -0.1845 -0.8243
 1535TIP3    H1 4611   0.693   1.470   1.011  2.0889 -1.7746 -1.2136
 1535TIP3    H2 4612   0.592   1.358   1.022  1.0046 -0.7394 -0.3390
 1536TIP3   OH2 4613   4.339   1.332   0.359 -1.0248 -0.2453 -0.4168
 1536TIP3    H1 4614   4.301   1.339   0.271 -1.1005  0.7150 -0.3259
 1536TIP3    H2 4615   4.361   1.240   0.369  0.7953 -0.0824 -2.2087
 1537TIP3   OH2 4616   3.159   3.603   0.811 -0.0883  0.7773  0.2618
 1537TIP3    H1 4617   3.195   3.690   0.829 -0.4971  0.8543  0.7450
 1537TIP3    H2 4618   3.129   3.606   0.721  2.2960  0.3004 -0.6297
 1538TIP3   OH2 4619   1.477   1.448   2.246  0.0992  0.2570  0.2915
 1538TIP3    H1 4620   1.487   1.533   2.288  0.4032  0.0140  0.7260
 1538TIP3    H2 4621   1.520   1.458   2.161 -0.7612  0.8357 -0.0888
 1539TIP3   OH2 4622   5.169   2.186   3.301  0.0869 -0.0528  0.4227
 1539TIP3    H1 4623   5.223   2.263   3.282  2.5617 -1.2404  2.0817
 1539TIP3    H2 4624   5.166   2.138   3.218 -1.5864  1.7882 -0.6611
 1540TIP3   OH2 4625   1.170   4.761   3.125 -0.6761  0.1452  0.4097
 1540TIP3    H1 4626   1.216   4.784   3.044 -1.0930  0.6482  0.3138
 1540TIP3    H2 4627   1.148   4.845   3.165 -2.1752 -0.0627  0.0826
 1541TIP3   OH2 4628   1.496   4.127   3.186  0.0605 -0.1644  0.0910
 1541TIP3    H1 4629   1.588   4.145   3.165  0.0731 -0.8518 -0.4611
 1541TIP3    H2 4630   1.500   4.071   3.264  0.1345 -0.8995 -0.4411
 1542TIP3   OH2 4631   1.181   2.571   1.255  0.2877 -0.2421  0.5234
 1542TIP3    H1 4632   1.149   2.558   1.166 -1.3539 -0.6297  1.1268
 1542TIP3    H2 4633   1.275   2.587   1.245  0.4570 -1.9048 -1.1400
 1543TIP3   OH2 4634   0.982   0.026   3.943 -0.1873 -0.3007  0.5753
 1543TIP3    H1 4635   0.958   0.027   4.036 -1.7611  0.5942  0.1924
 1543TIP3    H2 4636   1.033   0.107   3.931  0.6060 -0.7561  0.7786
 1544TIP3   OH2 4637   3.721   3.907   3.935  0.5249  0.6912  0.4696
 1544TIP3    H1 4638   3.775   3.960   3.993 -0.7383  1.7237  0.7405
 1544TIP3    H2 4639   3.664   3.969   3.891 -0.9231 -0.4061  0.7077
 1545TIP3   OH2 4640   1.824   2.259   2.343  0.5624 -0.0465 -0.4979
 1545TIP3    H1 4641   1.818   2.336   2.287 -0.6261  0.3476  0.1390
 1545TIP3    H2 4642   1.832   2.186   2.282  1.9016  0.5784 -1.1059
 1546TIP3   OH2 4643   4.488   2.397   5.091  0.3518  0.4188  0.1486
 1546TIP3    H1 4644   4.546   2.321   5.102 -1.9257 -1.1154  3.2472
 1546TIP3    H2 4645   4.411   2.362   5.046 -0.5709  0.9082  1.2895
 1547TIP3   OH2 4646   3.648   1.803   0.779 -0.2112  0.1561  0.1121
 1547TIP3    H1 4647   3.579   1.839   0.724 -0.0596 -0.2130 -0.3297
 1547TIP3    H2 4648   3.712   1.873   0.788  0.2160 -0.0678 -0.9682
 1548TIP3   OH2 4649   1.137   3.581   3.254 -0.1294  0.1408 -0.3197
 1548TIP3    H1 4650   1.102   3.504   3.299  0.7069  0.2991  0.6420
 1548TIP3    H2 4651   1.097   3.579   3.167 -1.5794 -0.3192  0.3418
 1549TIP3   OH2 4652   5.534   1.187   0.939  0.3024  0.3635 -0.3088
 1549TIP3    H1 4653   5.487   1.176   1.022  1.7911  1.2869  0.7145
 1549TIP3    H2 4654   5.537   1.282   0.926 -0.1137  0.2170 -1.5563
 1550TIP3   OH2 4655   5.161   0.713   2.482  0.0613 -0.3501 -0.6557
 1550TIP3    H1 4656   5.200   0.627   2.495  0.0597 -0.5318 -1.7754
 1550TIP3    H2 4657   5.082   0.697   2.431 -1.7740 -0.0311  1.8978
 1551TIP3   OH2 4658   2.276   0.045   4.048 -0.2704  0.1385 -0.2588
 1551TIP3    H1 4659   2.254   0.121   3.994  0.1461 -0.4779 -1.3321
 1551TIP3    H2 4660   2.195   0.025   4.095 -0.5258  0.9370 -0.3506
 1552TIP3   OH2 4661   1.975   0.165   3.923  0.5432  0.0426  0.0726
 1552TIP3    H1 4662   2.013   0.078   3.937 -0.7260 -0.5693 -0.1956
 1552TIP3    H2 4663   1.981   0.179   3.828 -1.5661 -0.8869 -0.2556
 1553TIP3   OH2 4664   4.304   3.645   3.081 -0.1509  0.1613  0.5537
 1553TIP3    H1 4665   4.229   3.622   3.135  1.3702  0.7797  3.0780
 1553TIP3    H2 4666   4.281   3.729   3.041 -1.3172 -0.3254  0.1705
 1554TIP3   OH2 4667   1.825   4.808   1.613 -0.2506 -0.2397 -0.0306
 1554TIP3    H1 4668   1.759   4.757   1.567  0.3279 -0.9038 -0.1359
 1554TIP3    H2 4669   1.895   4.820   1.548  0.2407 -0.5417  0.4326
 1555TIP3   OH2 4670   4.186   0.345   2.022 -0.2836  0.0453  0.7441
 1555TIP3    H1 4671   4.214   0.417   2.079 -0.8647  0.7190  0.1914
 1555TIP3    H2 4672   4.139   0.388   1.951 -0.8896 -0.9139  0.5578
 1556TIP3   OH2 4673   1.161   0.554   3.261  0.1210 -0.0285 -0.0656
 1556TIP3    H1 4674   1.154   0.562   3.356 -1.2242 -1.1514 -0.0475
 1556TIP3    H2 4675   1.145   0.642   3.228  2.7916  0.8772  0.8022
 1557TIP3   OH2 4676   2.234   3.768   3.077 -0.3109 -0.0458 -0.4560
 1557TIP3    H1 4677   2.147   3.797   3.050 -1.0834 -0.8931  1.0437
 1557TIP3    H2 4678   2.222   3.677   3.105  0.2017  0.9266  3.4513
 1558TIP3   OH2 4679  -0.006   0.502   1.774  1.1995  0.4294  0.2878
 1558TIP3    H1 4680  -0.066   0.451   1.719  0.3595  1.2976  0.3748
 1558TIP3    H2 4681   0.077   0.455   1.768  1.3541  0.8703 -2.3352
 1559TIP3   OH2 4682   0.931   1.488   0.987  0.3987  0.0077  0.2882
 1559TIP3    H1 4683   0.918   1.546   0.912  0.7170 -0.2685  0.0159
 1559TIP3    H2 4684   1.021   1.457   0.978  0.6236  0.3809  1.0762
 1560TIP3   OH2 4685   5.423   2.226   0.464 -0.8046  0.2601 -0.4158
 1560TIP3    H1 4686   5.503   2.173   0.473 -0.4703  0.2089 -3.0412
 1560TIP3    H2 4687   5.377   2.213   0.547  1.6193 -0.1628  0.9582
 1561TIP3   OH2 4688   3.248   3.913   3.121 -0.4257  0.2310 -0.0857
 1561TIP3    H1 4689   3.263   3.884   3.212 -1.0819 -2.6806 -0.7807
 1561TIP3    H2 4690   3.332   3.902   3.078 -0.5517 -0.2064 -0.2302
 1562TIP3   OH2 4691   2.446   0.659   0.520  0.5890 -0.3609 -0.8164
 1562TIP3    H1 4692   2.486   0.574   0.504 -0.0484 -0.6885 -0.7015
 1562TIP3    H2 4693   2.489   0.718   0.459  1.2886 -0.6897 -0.6472
 1563TIP3   OH2 4694   1.285   3.428   1.312  0.1447  0.2457 -0.4246
 1563TIP3    H1 4695   1.235   3.479   1.248  0.1435  0.1118 -0.5324
 1563TIP3    H2 4696   1.229   3.426   1.390  0.4484  0.9914 -0.1820
 1564TIP3   OH2 4697   4.743   1.020   4.646 -0.2020  0.0056  0.1233
 1564TIP3    H1 4698   4.797   1.012   4.724 -0.2072 -0.0559  0.1205
 1564TIP3    H2 4699   4.795   1.074   4.586 -0.1293 -0.0813  0.1085
 1565TIP3   OH2 4700   2.315   2.527   3.264  0.4772 -0.4108 -0.2907
 1565TIP3    H1 4701   2.394   2.477   3.283 -0.1322 -1.1021  0.5198
 1565TIP3    H2 4702   2.274   2.540   3.349  0.2023  0.7820 -0.5876
 1566TIP3   OH2 4703   2.078   5.254   0.840  0.0083 -0.0035  0.3017
 1566TIP3    H1 4704   2.144   5.284   0.903  1.3589 -0.8796 -0.6508
 1566TIP3    H2 4705   2.124   5.253   0.756 -0.4604 -2.9447 -0.0259
 1567TIP3   OH2 4706   5.028   3.114   3.435 -0.0996 -0.0385  0.2074
 1567TIP3    H1 4707   5.019   3.021   3.453  2.5822 -0.0561  1.9499
 1567TIP3    H2 4708   4.976   3.157   3.503  0.9931 -0.2650  1.2128
 1568TIP3   OH2 4709   1.949   1.946   0.387 -0.3948 -0.1204  0.2701
 1568TIP3    H1 4710   2.002   1.983   0.457 -2.5954  1.9623  0.9699
 1568TIP3    H2 4711   1.863   1.931   0.427 -1.3963  0.0495 -1.6689
 1569TIP3   OH2 4712   4.782   2.994   1.443  0.4481  0.0746  0.2783
 1569TIP3    H1 4713   4.824   3.049   1.376  0.0962 -0.0627 -0.0581
 1569TIP3    H2 4714   4.790   3.044   1.524  0.9576  0.2036  0.1531
 1570TIP3   OH2 4715   2.162   3.311   0.206 -0.1460 -0.2028 -0.5636
 1570TIP3    H1 4716   2.237   3.290   0.151 -0.4378 -0.3102 -0.9242
 1570TIP3    H2 4717   2.173   3.404   0.227  1.5485 -0.8220  1.6534
 1571TIP3   OH2 4718   0.181   3.647   1.412 -0.3153 -0.1615  0.0134
 1571TIP3    H1 4719   0.087   3.659   1.396 -0.8385  1.6540  3.3701
 1571TIP3    H2 4720   0.185   3.587   1.487  1.2549 -0.8277 -0.5761
 1572TIP3   OH2 4721   1.771   3.368   0.028 -0.0935 -0.7262  0.3861
 1572TIP3    H1 4722   1.779   3.370  -0.067 -1.5167  0.1697  0.2586
 1572TIP3    H2 4723   1.797   3.279   0.052  0.1260 -1.0173 -0.8472
 1573TIP3   OH2 4724   0.116   3.419   2.701 -0.0521 -0.2523 -0.3077
 1573TIP3    H1 4725   0.186   3.364   2.736  2.8892  2.3655 -1.6119
 1573TIP3    H2 4726   0.044   3.410   2.763  1.0509 -3.7597  0.6541
 1574TIP3   OH2 4727   1.784   2.760   3.669  0.2172 -0.2502 -0.5594
 1574TIP3    H1 4728   1.741   2.821   3.729 -0.1680 -1.1645  0.1355
 1574TIP3    H2 4729   1.747   2.675   3.692  1.0271 -0.8009 -1.2300
 1575TIP3   OH2 4730   4.606   3.966   2.572  0.1717  0.6070 -0.5921
 1575TIP3    H1 4731   4.558   3.916   2.637  0.9114 -0.7348 -1.0263
 1575TIP3    H2 4732   4.539   4.013   2.522 -0.8681 -2.1645 -1.9857
 1576TIP3   OH2 4733   2.011   5.476   4.258 -0.3929  0.6243  0.3228
 1576TIP3    H1 4734   1.972   5.397   4.297  0.6064  0.5247  1.1831
 1576TIP3    H2 4735   1.944   5.543   4.268 -0.8129  0.1680  0.6612
 1577TIP3   OH2 4736   4.730   4.032   3.227 -0.2873 -0.3684 -0.0650
 1577TIP3    H1 4737   4.692   4.089   3.294  1.3309  0.0808  0.4907
 1577TIP3    H2 4738   4.760   4.092   3.159  1.3465 -0.5321  0.4789
 1578TIP3   OH2 4739   4.849   2.287   2.328  0.4885 -0.2731  0.1069
 1578TIP3    H1 4740   4.885   2.342   2.397  0.7372 -0.8675  0.4610
 1578TIP3    H2 4741   4.912   2.215   2.320 -0.8427 -1.6245  1.1028
 1579TIP3   OH2 4742   0.832   1.491   2.573 -0.3517 -0.4773 -0.3041
 1579TIP3    H1 4743   0.780   1.538   2.508  0.1458  0.7201  0.1255
 1579TIP3    H2 4744   0.844   1.404   2.536 -1.0095 -0.1633 -1.2963
 1580TIP3   OH2 4745   2.862   0.860   3.505 -0.2211  0.0862 -0.4074
 1580TIP3    H1 4746   2.875   0.946   3.544  1.4053 -0.2825 -0.0486
 1580TIP3    H2 4747   2.951   0.825   3.494 -0.8315 -1.4184 -0.8240
 1581TIP3   OH2 4748   0.060   2.437   1.777  0.6226 -0.1433  0.8455
 1581TIP3    H1 4749   0.106   2.522   1.774 -0.1206  0.2632  0.5865
 1581TIP3    H2 4750   0.011   2.440   1.858 -0.4611  0.2545  0.1940
 1582TIP3   OH2 4751   1.292   5.330   1.260 -0.6142  0.0706 -0.2315
 1582TIP3    H1 4752   1.288   5.254   1.203 -1.2469 -0.6295  0.7164
 1582TIP3    H2 4753   1.338   5.397   1.208 -0.6081 -0.7412 -1.3013
 1583TIP3   OH2 4754   2.356   2.814   0.612  0.4675 -0.4125  0.8027
 1583TIP3    H1 4755   2.261   2.806   0.613  0.5499 -1.6586  1.1268
 1583TIP3    H2 4756   2.386   2.745   0.672  1.5780 -0.2185  0.4947
 1584TIP3   OH2 4757   4.273   5.866   3.464 -0.0009  0.4103 -0.7433
 1584TIP3    H1 4758   4.307   5.789   3.509 -0.0616 -0.0374 -1.4288
 1584TIP3    H2 4759   4.258   5.836   3.374 -0.5089  1.0837 -0.8975
 1585TIP3   OH2 4760   2.155   1.144   3.534 -0.5400 -0.1590  0.0693
 1585TIP3    H1 4761   2.228   1.189   3.577 -1.4300  0.3501  1.1122
 1585TIP3    H2 4762   2.159   1.174   3.443  1.4233 -1.3097 -0.2670
 1586TIP3   OH2 4763   6.085   1.221   0.177  0.1258 -0.3803  0.1753
 1586TIP3    H1 4764   6.133   1.242   0.257 -0.4513  0.2915  0.3608
 1586TIP3    H2 4765   6.098   1.127   0.165  0.1750 -0.4999  1.0902
 1587TIP3   OH2 4766   2.604   2.477   2.001 -0.1567  0.2056 -0.2526
 1587TIP3    H1 4767   2.665   2.500   2.070 -0.6595 -0.1115  0.3067
 1587TIP3    H2 4768   2.632   2.390   1.971  0.0194  0.3142 -0.4065
 1588TIP3   OH2 4769   3.129   2.619   1.889  0.1454  0.5248 -0.2551
 1588TIP3    H1 4770   3.212   2.654   1.920 -0.4816  1.7605  0.0751
 1588TIP3    H2 4771   3.072   2.695   1.879 -1.0872 -0.3300 -0.0735
 1589TIP3   OH2 4772   0.721   3.241   3.468 -0.5497  0.4038  0.4704
 1589TIP3    H1 4773   0.750   3.165   3.520 -1.5347  0.4803  1.1483
 1589TIP3    H2 4774   0.667   3.203   3.399 -0.9127  0.4796  0.7147
 1590TIP3   OH2 4775   1.016   3.225   0.449  0.5718  0.3412 -0.6042
 1590TIP3    H1 4776   0.932   3.255   0.414 -0.7467 -3.6498 -1.4635
 1590TIP3    H2 4777   1.080   3.247   0.381  0.2834  3.1180 -0.0980
 1591TIP3   OH2 4778   2.159   5.856   0.466  0.2992 -0.3111 -0.2605
 1591TIP3    H1 4779   2.202   5.928   0.512  0.0293  0.7933 -1.6660
 1591TIP3    H2 4780   2.074   5.849   0.508  0.0140  0.7523 -0.6248
 1592TIP3   OH2 4781   5.859   0.395   1.874  0.0508  0.0566  0.2352
 1592TIP3    H1 4782   5.898   0.483   1.872 -1.2248  0.6657  0.8845
 1592TIP3    H2 4783   5.847   0.372   1.782  1.5313  0.0208  0.0308
 1593TIP3   OH2 4784   5.851   5.069   2.283  0.4495  0.0130 -0.1988
 1593TIP3    H1 4785   5.906   5.011   2.231 -0.5447  0.3423 -1.6913
 1593TIP3    H2 4786   5.769   5.022   2.293  0.0523  0.6562 -0.3870
 1594TIP3   OH2 4787   4.183   0.264   3.401  0.2810  0.4621  0.3126
 1594TIP3    H1 4788   4.106   0.279   3.456  1.0389  2.2322  0.9389
 1594TIP3    H2 4789   4.242   0.213   3.456 -0.8761 -2.0199 -0.5999
 1595TIP3   OH2 4790   2.697   3.026   2.765  0.7143  0.4709  0.5012
 1595TIP3    H1 4791   2.621   3.027   2.706  2.5775  2.8881 -2.1594
 1595TIP3    H2 4792   2.730   2.937   2.759  0.1224  0.3207 -1.1905
 1596TIP3   OH2 4793   3.118   3.643   3.072  0.3979 -0.4053  0.2477
 1596TIP3    H1 4794   3.131   3.713   3.136 -0.7995  0.9828 -0.9665
 1596TIP3    H2 4795   3.144   3.681   2.988 -0.3233 -1.3943 -0.4433
 1597TIP3   OH2 4796   3.808   3.334   3.742  0.4265  0.0778 -0.2944
 1597TIP3    H1 4797   3.755   3.368   3.814  0.3658  0.0872 -0.3425
 1597TIP3    H2 4798   3.764   3.252   3.718  0.4611  0.0621 -0.3036
 1598TIP3   OH2 4799   5.962   0.941   0.130  0.1960  0.5050  0.1982
 1598TIP3    H1 4800   5.980   0.999   0.055  1.1998 -0.1974 -0.1292
 1598TIP3    H2 4801   6.021   0.867   0.117  0.4319  0.4027  1.7300
 1599TIP3   OH2 4802   0.329   2.122   3.747  0.1382  0.3282  0.5655
 1599TIP3    H1 4803   0.303   2.037   3.709 -0.0410  0.3503  0.6376
 1599TIP3    H2 4804   0.422   2.130   3.725 -0.0703  0.5602 -0.2897
 1600TIP3   OH2 4805   1.510   4.924   3.803 -0.2157 -0.3535  0.0399
 1600TIP3    H1 4806   1.510   4.997   3.742 -0.4903 -1.7193 -1.6700
 1600TIP3    H2 4807   1.436   4.940   3.861 -0.1010  0.8359 -0.1285
 1601TIP3   OH2 4808   6.249   5.235   3.070 -0.0206 -0.2234 -0.2485
 1601TIP3    H1 4809   6.194   5.157   3.082 -1.3744  0.6679 -0.4279
 1601TIP3    H2 4810   6.230   5.289   3.146 -0.5593  0.7627 -1.0641
 1602TIP3   OH2 4811   5.816   2.916   2.621  0.3901 -0.2680  0.1474
 1602TIP3    H1 4812   5.846   2.838   2.573 -2.3519 -0.7265 -1.0736
 1602TIP3    H2 4813   5.749   2.883   2.681  0.3847  0.9403  0.8397
 1603TIP3   OH2 4814   4.572   3.948   3.785  0.1955  0.1418  0.2075
 1603TIP3    H1 4815   4.653   3.912   3.749  0.8313 -0.0374  1.7301
 1603TIP3    H2 4816   4.600   4.026   3.833 -0.7429  0.8800 -0.4169
 1604TIP3   OH2 4817   5.170   4.137   4.657 -0.8552  0.7863 -0.2716
 1604TIP3    H1 4818   5.204   4.062   4.608  1.2809  1.7004 -0.3241
 1604TIP3    H2 4819   5.077   4.140   4.637 -0.9567 -1.7163 -0.4105
 1605TIP3   OH2 4820   3.479   0.060   2.477  0.1731  0.5298 -0.3319
 1605TIP3    H1 4821   3.421   0.017   2.539 -0.5121 -0.8117 -1.8263
 1605TIP3    H2 4822   3.453   0.026   2.392  0.9542  2.4311 -1.4067
 1606TIP3   OH2 4823   5.022   2.522   1.279  0.5282 -0.1404 -0.7384
 1606TIP3    H1 4824   5.016   2.617   1.290  1.0057 -0.3322  1.9213
 1606TIP3    H2 4825   5.109   2.507   1.242  0.4086  0.4455 -1.2657
 1607TIP3   OH2 4826   0.318   4.635   5.089  0.2614  0.4407 -0.0187
 1607TIP3    H1 4827   0.288   4.623   4.999  2.4344 -1.5151 -0.5929
 1607TIP3    H2 4828   0.270   4.569   5.139  2.3862 -1.8255 -0.7173
 1608TIP3   OH2 4829   4.816   0.636   0.962 -0.9074 -0.3659  0.8628
 1608TIP3    H1 4830   4.869   0.558   0.942 -0.1697  0.1640  0.7003
 1608TIP3    H2 4831   4.765   0.610   1.039 -0.8225 -1.0804  0.6896
 1609TIP3   OH2 4832   1.012   0.562   5.125 -0.1974  0.0342  0.6662
 1609TIP3    H1 4833   1.028   0.523   5.211 -1.8886 -1.7820  0.2328
 1609TIP3    H2 4834   0.919   0.585   5.126  0.4433  3.0676  0.4284
 1610TIP3   OH2 4835   4.340   2.073   2.300  0.5398 -0.2313 -0.2855
 1610TIP3    H1 4836   4.347   2.066   2.395 -1.4897 -0.4046 -0.1159
 1610TIP3    H2 4837   4.394   2.150   2.278 -1.3988  1.7386  1.3969
 1611TIP3   OH2 4838   0.943   1.794   4.814 -0.1524  0.0989  0.0505
 1611TIP3    H1 4839   0.966   1.709   4.852  1.6578  1.1926  1.6234
 1611TIP3    H2 4840   0.856   1.814   4.848 -0.3831 -0.9107  0.0609
 1612TIP3   OH2 4841   2.131   1.076   4.980 -0.6195 -0.0404  0.4463
 1612TIP3    H1 4842   2.067   1.027   5.032 -0.6793 -0.0286  0.3838
 1612TIP3    H2 4843   2.095   1.075   4.891 -1.1203  0.9633  0.6228
 1613TIP3   OH2 4844   1.397   0.908   1.210 -0.0597 -0.1034  0.2363
 1613TIP3    H1 4845   1.323   0.857   1.240  0.5807 -0.8802  0.5304
 1613TIP3    H2 4846   1.432   0.859   1.136 -0.4146  0.7624 -0.5308
 1614TIP3   OH2 4847   0.532   2.398   3.247  0.6007  0.0576 -0.1543
 1614TIP3    H1 4848   0.541   2.305   3.268 -0.9618  0.0684  0.7328
 1614TIP3    H2 4849   0.461   2.401   3.183  1.4220  0.5541 -1.0575
 1615TIP3   OH2 4850   3.421   1.865   4.832 -0.2672  0.5635 -0.0114
 1615TIP3    H1 4851   3.442   1.781   4.790 -0.7728 -0.7982  2.2908
 1615TIP3    H2 4852   3.459   1.931   4.774 -1.9224 -1.0460 -3.2178
 1616TIP3   OH2 4853   2.317   1.184   1.690  0.0502  0.3164  0.1448
 1616TIP3    H1 4854   2.262   1.253   1.652  0.2587  0.1919 -0.4021
 1616TIP3    H2 4855   2.291   1.180   1.782 -0.6932  0.4153 -0.0526
 1617TIP3   OH2 4856   1.177   4.392   1.974 -0.0342  0.1486  0.2612
 1617TIP3    H1 4857   1.228   4.316   1.945  1.1496  1.3531 -1.0284
 1617TIP3    H2 4858   1.111   4.356   2.033  0.1343 -1.9344 -0.7245
 1618TIP3   OH2 4859   3.623   5.263   5.037 -0.7830 -0.0476  0.2350
 1618TIP3    H1 4860   3.532   5.286   5.021 -0.4040  1.6584  0.3413
 1618TIP3    H2 4861   3.673   5.341   5.010  0.6989 -1.1866 -0.4631
 1619TIP3   OH2 4862   5.782   4.855   3.941 -0.7519 -0.5693  0.4223
 1619TIP3    H1 4863   5.789   4.902   3.858 -0.0585 -0.7230  0.3901
 1619TIP3    H2 4864   5.849   4.787   3.937  0.9996  0.9461  2.0871
 1620TIP3   OH2 4865   1.958   1.853   3.716 -0.1898  0.6800  0.1478
 1620TIP3    H1 4866   1.881   1.809   3.679  0.5153  0.0864 -0.6557
 1620TIP3    H2 4867   2.027   1.841   3.650  0.6603  0.9991  0.9523
 1621TIP3   OH2 4868   5.583   2.189   4.224 -0.5573  0.1479  0.0967
 1621TIP3    H1 4869   5.670   2.228   4.230 -1.1595  1.3974  0.9986
 1621TIP3    H2 4870   5.558   2.199   4.132  0.4332 -0.6781 -0.2840
 1622TIP3   OH2 4871   5.349   5.910   0.292  0.3733 -0.5234 -0.1977
 1622TIP3    H1 4872   5.345   5.860   0.374  1.6660 -0.2389  0.0500
 1622TIP3    H2 4873   5.363   6.000   0.319  1.9800 -0.5860 -0.7506
 1623TIP3   OH2 4874   4.234   3.262   3.145 -0.0286 -0.1447 -0.3211
 1623TIP3    H1 4875   4.162   3.297   3.094 -1.4269  0.3758  1.8899
 1623TIP3    H2 4876   4.208   3.173   3.167  0.1510 -0.0828  0.1743
 1624TIP3   OH2 4877   2.557   4.578   4.511 -0.2094  0.3807  0.1764
 1624TIP3    H1 4878   2.556   4.660   4.560 -0.0970  1.5665 -1.6968
 1624TIP3    H2 4879   2.465   4.551   4.507 -0.5695  1.6696 -1.1098
 1625TIP3   OH2 4880   2.055   4.989   1.389  0.0220 -0.3881 -0.2586
 1625TIP3    H1 4881   2.048   5.015   1.481 -0.6659 -1.0321 -0.1192
 1625TIP3    H2 4882   1.968   5.006   1.353  0.3757  0.1463 -0.8725
 1626TIP3   OH2 4883   3.988   0.740   1.789 -0.0052 -0.5152 -0.5737
 1626TIP3    H1 4884   3.999   0.748   1.694 -1.7115 -2.1389 -0.9661
 1626TIP3    H2 4885   3.935   0.816   1.813 -1.6943 -1.3945 -1.3794
 1627TIP3   OH2 4886   3.037   1.487   1.122 -0.2570 -1.0860 -0.2223
 1627TIP3    H1 4887   3.102   1.550   1.091 -0.5917 -1.3254 -1.4893
 1627TIP3    H2 4888   2.985   1.467   1.044 -2.6773  0.0470  0.9941
 1628TIP3   OH2 4889   0.769   3.344   3.872  0.3359  0.4740 -0.0805
 1628TIP3    H1 4890   0.685   3.313   3.839 -0.4120  1.5645  0.6941
 1628TIP3    H2 4891   0.788   3.287   3.947  0.6516 -0.2297 -0.6904
 1629TIP3   OH2 4892   1.697   2.845   1.319 -0.2252  0.1330  0.3237
 1629TIP3    H1 4893   1.628   2.784   1.293  0.5183 -0.2886 -0.7132
 1629TIP3    H2 4894   1.763   2.837   1.251  2.1297 -1.4639  2.5861
 1630TIP3   OH2 4895   0.659   4.348   4.601 -0.7477  0.7647  0.0459
 1630TIP3    H1 4896   0.623   4.317   4.518  0.9095  2.9507 -1.6431
 1630TIP3    H2 4897   0.750   4.316   4.602 -0.6442  1.0476  0.8403
 1631TIP3   OH2 4898   2.527   5.016   0.376 -0.1369  0.0431 -0.6367
 1631TIP3    H1 4899   2.568   5.002   0.290 -1.8814 -1.3626 -1.2883
 1631TIP3    H2 4900   2.450   4.960   0.375 -0.5190  0.4578  1.6511
 1632TIP3   OH2 4901   1.702   3.312   1.825 -0.2599  0.3411  0.5709
 1632TIP3    H1 4902   1.609   3.299   1.843  0.2534 -0.1132  3.4330
 1632TIP3    H2 4903   1.730   3.374   1.892  1.7004 -0.2683  0.3603
 1633TIP3   OH2 4904   1.956   1.320   1.576  0.8850 -0.3920 -0.2569
 1633TIP3    H1 4905   1.965   1.245   1.517 -0.1943 -0.0109 -0.9323
 1633TIP3    H2 4906   1.943   1.395   1.517 -0.2227 -0.0067  0.4601
 1634TIP3   OH2 4907   4.786   0.140   3.606 -0.3318  0.0835  0.0214
 1634TIP3    H1 4908   4.763   0.229   3.631 -0.3120  0.2609 -0.5711
 1634TIP3    H2 4909   4.805   0.096   3.689  1.8380  1.2254  0.2095
 1635TIP3   OH2 4910   2.866   0.211   2.519 -0.3036 -0.0045 -0.0905
 1635TIP3    H1 4911   2.780   0.253   2.514  0.7794  2.4258  0.1867
 1635TIP3    H2 4912   2.873   0.180   2.609 -0.0277  1.9004  0.5867
 1636TIP3   OH2 4913   0.784   3.076   0.316 -0.0307  0.7011 -0.4103
 1636TIP3    H1 4914   0.739   3.151   0.277  0.1200  0.8383 -0.3232
 1636TIP3    H2 4915   0.732   3.001   0.289 -1.8001  1.0347  1.7760
 1637TIP3   OH2 4916   3.878   0.106   4.874  0.6138 -0.1343 -0.1533
 1637TIP3    H1 4917   3.840   0.074   4.956 -1.1660 -3.1468 -1.9676
 1637TIP3    H2 4918   3.955   0.156   4.901  0.1443 -1.0421  3.3346
 1638TIP3   OH2 4919   3.167   3.010   1.546 -0.3381 -0.7058 -0.1062
 1638TIP3    H1 4920   3.123   2.966   1.619 -0.9717 -1.3953 -0.8808
 1638TIP3    H2 4921   3.260   2.998   1.563 -0.4968 -2.1878 -0.1876
 1639TIP3   OH2 4922   6.036   0.117   2.317 -0.0492 -0.5773  0.2842
 1639TIP3    H1 4923   6.111   0.172   2.340 -1.1511  0.9201  0.4113
 1639TIP3    H2 4924   5.988   0.167   2.251 -1.2541 -1.2362  0.6270
 1640TIP3   OH2 4925   0.680   5.611   1.826  0.2638 -0.1878 -0.5451
 1640TIP3    H1 4926   0.773   5.592   1.839  0.4640  0.4088 -1.0547
 1640TIP3    H2 4927   0.679   5.688   1.769 -0.5048  1.8245  2.0208
 1641TIP3   OH2 4928   5.431   4.061   3.787  0.1297  0.0559 -0.5795
 1641TIP3    H1 4929   5.424   4.137   3.846  2.6531 -0.8100  0.9717
 1641TIP3    H2 4930   5.342   4.027   3.782 -0.5342  1.3959  1.0699
 1642TIP3   OH2 4931   2.652   0.876   1.316 -0.1810 -0.1216  0.0051
 1642TIP3    H1 4932   2.570   0.924   1.326 -0.2041  0.4460 -2.2855
 1642TIP3    H2 4933   2.675   0.848   1.404 -1.2941  2.2568  1.1366
 1643TIP3   OH2 4934   4.326   3.328   2.602  0.2946 -0.3034  0.7084
 1643TIP3    H1 4935   4.366   3.255   2.555  0.3628  1.1398 -1.6306
 1643TIP3    H2 4936   4.301   3.291   2.686  1.6692 -2.6276  0.1988
 1644TIP3   OH2 4937   4.537   0.940   3.932 -0.2399  0.0358 -0.6750
 1644TIP3    H1 4938   4.554   0.994   4.009 -0.0717 -1.4091  0.3422
 1644TIP3    H2 4939   4.623   0.924   3.894 -0.0538 -1.1637  0.2021
 1645TIP3   OH2 4940   2.681   3.186   4.813  0.2951 -0.4480  0.6458
 1645TIP3    H1 4941   2.744   3.242   4.858  1.4959 -1.2461  0.0122
 1645TIP3    H2 4942   2.730   3.149   4.739 -0.8656 -1.2440  0.2396
 1646TIP3   OH2 4943   3.982   4.271   3.600 -0.1860 -0.6000  0.0846
 1646TIP3    H1 4944   4.055   4.228   3.554  1.3537  0.7149  1.2027
 1646TIP3    H2 4945   3.928   4.199   3.631 -0.8038 -1.5792 -2.9013
 1647TIP3   OH2 4946   0.291   5.442   0.724 -0.4030 -0.3999  0.4534
 1647TIP3    H1 4947   0.280   5.536   0.737  1.1499 -0.1666  0.2124
 1647TIP3    H2 4948   0.367   5.419   0.778  1.5540 -0.7908 -2.2563
 1648TIP3   OH2 4949   1.659   2.921   4.480  0.3710  0.4656 -0.0499
 1648TIP3    H1 4950   1.573   2.881   4.488  1.2108 -1.2102  1.4471
 1648TIP3    H2 4951   1.694   2.886   4.398 -0.4262  1.3381 -0.7824
 1649TIP3   OH2 4952   5.393   4.588   0.223 -0.1975 -0.5404 -0.3748
 1649TIP3    H1 4953   5.486   4.566   0.228 -0.1761 -0.7405 -1.4405
 1649TIP3    H2 4954   5.387   4.654   0.153 -0.4722  1.7785  1.6782
 1650TIP3   OH2 4955   3.342   2.001   3.922  0.1891 -0.6008 -0.3633
 1650TIP3    H1 4956   3.277   2.029   3.986  1.7826  0.6251  0.8196
 1650TIP3    H2 4957   3.329   1.907   3.913 -0.3148 -0.7374  1.4969
 1651TIP3   OH2 4958   2.012   2.302   1.760  0.3195  0.3540  1.3873
 1651TIP3    H1 4959   1.984   2.328   1.848  0.1139 -0.0090  1.4307
 1651TIP3    H2 4960   1.954   2.352   1.702 -0.6295 -0.5888  1.4787
 1652TIP3   OH2 4961   2.496   4.554   3.754  0.1483  0.0705 -0.7880
 1652TIP3    H1 4962   2.464   4.590   3.671 -1.5855 -0.2832 -0.2967
 1652TIP3    H2 4963   2.418   4.523   3.799  1.1787 -0.7017  0.5398
 1653TIP3   OH2 4964   1.027   1.369   0.682  0.1237  0.0053 -0.3590
 1653TIP3    H1 4965   1.102   1.317   0.652 -0.2699 -1.0921  0.4925
 1653TIP3    H2 4966   1.051   1.396   0.771 -0.3952 -0.1728 -0.1631
 1654TIP3   OH2 4967   1.378   4.318   4.708 -0.1536  0.1435 -0.3917
 1654TIP3    H1 4968   1.290   4.304   4.743 -0.6257  0.0748 -1.5689
 1654TIP3    H2 4969   1.365   4.365   4.627  0.9484  0.6409 -0.3039
 1655TIP3   OH2 4970   0.705   0.600   0.919  0.2244  0.7729  0.1782
 1655TIP3    H1 4971   0.662   0.638   0.843  1.8004  0.9688 -0.6737
 1655TIP3    H2 4972   0.798   0.596   0.894  0.3797 -2.0395  0.8819
 1656TIP3   OH2 4973   5.711   5.008   4.642 -0.6928 -0.1028  0.7682
 1656TIP3    H1 4974   5.682   4.996   4.732 -0.6348  0.1357  0.8198
 1656TIP3    H2 4975   5.802   4.976   4.641 -0.1001  1.4826  1.2081
 1657TIP3   OH2 4976   4.500   2.000   1.881 -0.1884  0.7274 -0.3062
 1657TIP3    H1 4977   4.539   2.082   1.911 -1.9187  2.1924 -1.7940
 1657TIP3    H2 4978   4.427   1.984   1.942  0.5859 -0.1650  0.4279
 1658TIP3   OH2 4979   3.525   5.239   4.711 -0.1330 -0.5821 -0.4963
 1658TIP3    H1 4980   3.504   5.303   4.779 -2.3207 -1.2157 -0.5052
 1658TIP3    H2 4981   3.584   5.177   4.753  1.0378  0.7167 -0.1337
 1659TIP3   OH2 4982   2.928   5.783   1.867  0.5849  0.0580 -0.0216
 1659TIP3    H1 4983   2.834   5.789   1.884  0.2068  0.8178 -2.0275
 1659TIP3    H2 4984   2.953   5.872   1.843  1.4067 -0.4747 -1.2513
 1660TIP3   OH2 4985   5.287   0.562   4.731  0.6613  0.3872  0.2570
 1660TIP3    H1 4986   5.223   0.516   4.784 -0.2188 -0.8016 -1.7428
 1660TIP3    H2 4987   5.371   0.524   4.756  0.1003 -1.2866 -0.2612
 1661TIP3   OH2 4988   4.990   4.560   3.494  0.0402 -0.0361 -0.4097
 1661TIP3    H1 4989   5.078   4.530   3.515  0.2579  0.7752 -0.1313
 1661TIP3    H2 4990   4.989   4.569   3.399  0.8233  1.6332 -0.2841
 1662TIP3   OH2 4991   3.200   3.292   3.554 -0.6016  0.4116  0.1701
 1662TIP3    H1 4992   3.151   3.358   3.602 -0.2604  1.1557 -0.4803
 1662TIP3    H2 4993   3.254   3.342   3.493 -0.3369 -0.4680 -0.3331
 1663TIP3   OH2 4994   2.771   0.724   0.490 -0.2402 -0.0046  0.9861
 1663TIP3    H1 4995   2.764   0.679   0.406 -1.9896  0.8049  0.6375
 1663TIP3    H2 4996   2.862   0.715   0.515  0.2236 -0.6609 -0.7776
 1664TIP3   OH2 4997   3.339   3.811   0.768  0.1254 -0.3754  0.3476
 1664TIP3    H1 4998   3.409   3.793   0.706  0.2673  1.9103 -0.2567
 1664TIP3    H2 4999   3.309   3.899   0.746 -2.7853 -1.1526  0.7571
 1665TIP3   OH2 5000   3.811   1.577   4.583  0.1923 -0.0131 -0.6623
 1665TIP3    H1 5001   3.724   1.594   4.546 -0.0648 -2.0806 -1.1595
 1665TIP3    H2 5002   3.871   1.594   4.510 -0.0283 -0.9272 -1.0716
 1666TIP3   OH2 5003   5.648   5.184   3.599 -0.1704  0.7449  0.3588
 1666TIP3    H1 5004   5.556   5.161   3.606  0.1998 -1.1185 -0.3624
 1666TIP3    H2 5005   5.649   5.279   3.589 -2.0246  0.7313 -0.1706
 1667TIP3   OH2 5006   1.472   5.101   3.608  0.3467 -0.0627  0.3758
 1667TIP3    H1 5007   1.495   5.194   3.613 -0.3809  0.1012  0.8692
 1667TIP3    H2 5008   1.391   5.099   3.555  0.8048 -0.5035 -0.3307
 1668TIP3   OH2 5009   3.091   5.698   3.295 -0.7116 -0.0169 -0.5016
 1668TIP3    H1 5010   3.124   5.683   3.207  1.8872  0.4736  0.3134
 1668TIP3    H2 5011   3.079   5.610   3.331  0.0642 -0.2189 -0.7195
 1669TIP3   OH2 5012   3.039   3.484   3.672 -0.0288 -0.0793 -0.0601
 1669TIP3    H1 5013   3.083   3.561   3.707 -2.0965 -0.3082  3.4661
 1669TIP3    H2 5014   2.961   3.518   3.627  0.1277 -0.0424 -0.3077
 1670TIP3   OH2 5015   5.848   3.043   4.309  0.1613 -0.3105  0.8411
 1670TIP3    H1 5016   5.843   3.045   4.213  1.4383 -2.4211  0.6636
 1670TIP3    H2 5017   5.775   2.987   4.336 -0.2338  0.3300  1.1308
 1671TIP3   OH2 5018   5.038   0.621   4.341  0.3350 -0.0149 -0.1053
 1671TIP3    H1 5019   5.005   0.705   4.371  0.5613  0.5170 -1.2786
 1671TIP3    H2 5020   4.995   0.556   4.397  0.0885  0.8721  0.7468
 1672TIP3   OH2 5021   1.310   3.028   0.274  0.0994  0.7476  0.6135
 1672TIP3    H1 5022   1.224   3.069   0.283  0.0885  0.8700  0.0173
 1672TIP3    H2 5023   1.335   3.045   0.183  0.5992  0.4098  0.6835
 1673TIP3   OH2 5024   0.495   0.574   4.486 -0.1365  0.2314 -0.5820
 1673TIP3    H1 5025   0.588   0.557   4.497 -0.2612  0.4381  1.1199
 1673TIP3    H2 5026   0.460   0.494   4.447  0.7267  0.1403 -1.2079
 1674TIP3   OH2 5027   3.744   2.071   0.195  0.3666 -0.0650 -0.0968
 1674TIP3    H1 5028   3.762   2.009   0.124 -0.9249  0.7733 -1.2228
 1674TIP3    H2 5029   3.747   2.018   0.274  0.1335 -1.4093 -0.9438
 1675TIP3   OH2 5030   0.997   4.082   4.539 -0.9201  0.7028  0.0415
 1675TIP3    H1 5031   0.955   4.026   4.604  0.9184 -0.6099  0.1607
 1675TIP3    H2 5032   1.090   4.064   4.548 -0.4051  2.4830 -1.1582
 1676TIP3   OH2 5033   6.089   5.021   1.760  0.4406  0.1169 -0.0580
 1676TIP3    H1 5034   6.159   5.004   1.696 -2.1068  0.4493 -3.2111
 1676TIP3    H2 5035   6.079   4.939   1.808  1.7617 -0.5118 -0.8193
 1677TIP3   OH2 5036   2.178   1.516   2.117 -0.1378 -0.5055 -0.0291
 1677TIP3    H1 5037   2.252   1.572   2.094  0.0100 -1.0285 -0.8672
 1677TIP3    H2 5038   2.101   1.570   2.101  0.0393  0.8296  2.9139
 1678TIP3   OH2 5039   2.657   4.143   1.364 -0.5949  0.4118  0.3919
 1678TIP3    H1 5040   2.591   4.207   1.337  1.5083  2.0091 -1.2794
 1678TIP3    H2 5041   2.685   4.100   1.283  0.4821 -0.1769  1.0424
 1679TIP3   OH2 5042   2.509   4.861   2.736  0.0870  0.6078 -0.5100
 1679TIP3    H1 5043   2.456   4.794   2.778 -0.9705  0.9209 -1.3021
 1679TIP3    H2 5044   2.488   4.942   2.782  1.0436  0.4976  0.1659
 1680TIP3   OH2 5045   1.834   0.498   1.276  0.2131  0.6169 -0.1115
 1680TIP3    H1 5046   1.805   0.544   1.197 -0.6691 -0.0819 -0.2181
 1680TIP3    H2 5047   1.756   0.496   1.332  0.1689 -0.8487 -0.1805
 1681TIP3   OH2 5048   1.224   2.091   0.044 -0.6906 -0.1116 -0.2028
 1681TIP3    H1 5049   1.245   2.172   0.089 -1.6742 -0.6771  1.3496
 1681TIP3    H2 5050   1.291   2.029   0.072 -1.5746 -0.5966  0.9412
 1682TIP3   OH2 5051   2.872   2.795   5.144 -0.1433  0.5566 -0.2748
 1682TIP3    H1 5052   2.888   2.705   5.117  0.7685  0.7211 -0.3130
 1682TIP3    H2 5053   2.958   2.830   5.165 -0.6760  0.8214  1.6968
 1683TIP3   OH2 5054   3.622   1.057   3.796  0.1425  0.0351  0.1247
 1683TIP3    H1 5055   3.659   1.127   3.851 -2.4169  0.5584  1.3003
 1683TIP3    H2 5056   3.679   0.982   3.812  0.9237  0.8823  1.5413
 1684TIP3   OH2 5057   3.056   3.336   2.951 -0.1423  0.8725  0.3848
 1684TIP3    H1 5058   3.054   3.388   3.031 -2.7582 -1.4395  2.0308
 1684TIP3    H2 5059   3.056   3.245   2.982 -0.1354 -0.1215 -2.2663
 1685TIP3   OH2 5060   3.501   4.433   0.647  0.0248 -0.3074 -0.2108
 1685TIP3    H1 5061   3.486   4.346   0.683 -4.1139  0.1938 -0.3187
 1685TIP3    H2 5062   3.457   4.432   0.563  0.3349  1.7538 -0.4402
 1686TIP3   OH2 5063   3.349   2.181   5.016  0.3758 -0.2989 -0.4370
 1686TIP3    H1 5064   3.301   2.102   5.042  0.6189 -0.6622 -1.0654
 1686TIP3    H2 5065   3.439   2.152   5.005  0.2482 -0.2268 -1.8873
 1687TIP3   OH2 5066   5.001   2.510   1.831 -0.6978 -0.1384 -0.0645
 1687TIP3    H1 5067   4.971   2.427   1.794  2.1640 -1.3119 -0.0169
 1687TIP3    H2 5068   5.012   2.568   1.756 -0.9988 -0.3842 -0.3004
 1688TIP3   OH2 5069   2.575   2.102   5.159  0.1090  0.4173 -0.2863
 1688TIP3    H1 5070   2.559   2.096   5.065  0.6314  1.2558 -0.4370
 1688TIP3    H2 5071   2.669   2.084   5.169 -0.2305 -1.2959  0.2583
 1689TIP3   OH2 5072   2.924   1.394   0.874  0.0404 -0.5271 -0.0696
 1689TIP3    H1 5073   2.951   1.310   0.837  1.2327 -0.1013 -0.2181
 1689TIP3    H2 5074   2.832   1.381   0.899  1.0905 -2.9779  3.1492
 1690TIP3   OH2 5075   1.187   5.652   2.616  0.4621 -0.3779  0.4965
 1690TIP3    H1 5076   1.159   5.669   2.527  0.9963  0.5336  0.4993
 1690TIP3    H2 5077   1.224   5.734   2.647  1.2971 -0.9837  1.1816
 1691TIP3   OH2 5078   5.205   5.263   4.569  0.0804 -0.0708 -0.7465
 1691TIP3    H1 5079   5.226   5.242   4.660  0.9227  1.0864 -0.6489
 1691TIP3    H2 5080   5.266   5.211   4.517 -0.2953 -0.6135 -0.6418
 1692TIP3   OH2 5081   3.992   2.524   0.472 -0.9848 -0.1498 -0.0211
 1692TIP3    H1 5082   4.069   2.486   0.429 -1.0426  2.1085 -2.3386
 1692TIP3    H2 5083   3.918   2.490   0.422 -1.2328  0.4903 -0.0929
 1693TIP3   OH2 5084   3.690   4.590   2.728 -0.2954  0.1510 -0.1164
 1693TIP3    H1 5085   3.636   4.514   2.748 -0.4346  0.2912  0.0419
 1693TIP3    H2 5086   3.749   4.598   2.803 -0.1819  0.1114 -0.2011
 1694TIP3   OH2 5087   1.261   0.590   4.606 -0.5533 -0.1253 -0.2524
 1694TIP3    H1 5088   1.284   0.654   4.673  0.2833 -1.0958  0.4094
 1694TIP3    H2 5089   1.322   0.518   4.619 -3.8837 -2.9336  1.7059
 1695TIP3   OH2 5090   0.565   2.166   1.525 -0.0434 -0.2868  0.4175
 1695TIP3    H1 5091   0.547   2.258   1.547  0.9050 -0.4291  2.0164
 1695TIP3    H2 5092   0.522   2.152   1.441 -0.8456  1.4091  0.5007
 1696TIP3   OH2 5093   1.076   0.527   2.424 -0.1339  0.4598 -0.0486
 1696TIP3    H1 5094   1.000   0.552   2.371 -0.6762 -1.2697 -0.1553
 1696TIP3    H2 5095   1.148   0.579   2.389 -0.6683 -0.0003 -1.9255
 1697TIP3   OH2 5096   0.808   3.673   3.250 -0.7237  0.0184  0.1436
 1697TIP3    H1 5097   0.831   3.584   3.221  0.9907  0.5314 -0.2035
 1697TIP3    H2 5098   0.776   3.661   3.339  1.1253 -0.8292  0.7558
 1698TIP3   OH2 5099   3.106   0.752   1.331  0.4507  0.0213 -0.3086
 1698TIP3    H1 5100   3.028   0.704   1.358  0.4559  0.1356 -0.0934
 1698TIP3    H2 5101   3.166   0.746   1.405  0.5377  0.1704 -0.3646
 1699TIP3   OH2 5102   1.603   3.193   0.463  0.2017  0.3927 -0.8128
 1699TIP3    H1 5103   1.693   3.221   0.480  0.4335 -0.9922  0.4270
 1699TIP3    H2 5104   1.610   3.130   0.392  0.7566 -2.3546  1.4920
 1700TIP3   OH2 5105   1.006   3.159   3.918 -0.2548 -0.5100  0.1603
 1700TIP3    H1 5106   0.919   3.128   3.890 -0.1256 -1.3750  0.6669
 1700TIP3    H2 5107   1.067   3.113   3.860 -0.0296 -1.7153  1.2983
 1701TIP3   OH2 5108   0.511   1.160   3.255 -0.2906  0.1734 -0.0929
 1701TIP3    H1 5109   0.455   1.194   3.325 -1.7248 -0.4855 -0.8756
 1701TIP3    H2 5110   0.471   1.193   3.175  0.0431 -0.8827 -0.7085
 1702TIP3   OH2 5111   2.492   5.379   2.522 -0.2675 -0.0539  0.0576
 1702TIP3    H1 5112   2.448   5.406   2.602 -0.5316 -1.9315  0.5731
 1702TIP3    H2 5113   2.531   5.295   2.542  0.2747 -0.2377 -1.5751
 1703TIP3   OH2 5114   1.757   2.857   2.512 -0.2464 -0.0150  0.3036
 1703TIP3    H1 5115   1.797   2.944   2.507 -2.5845  1.1401 -0.1222
 1703TIP3    H2 5116   1.754   2.837   2.606 -0.1844  0.6397  0.4503
 1704TIP3   OH2 5117   2.087  -0.010   3.687 -0.5012 -0.0772 -0.0506
 1704TIP3    H1 5118   2.175   0.003   3.651 -0.6475 -2.4978 -1.5356
 1704TIP3    H2 5119   2.041   0.072   3.666  1.0978  0.8465 -0.1389
 1705TIP3   OH2 5120   2.036   2.401   1.295  0.1755 -0.1876 -0.1071
 1705TIP3    H1 5121   2.011   2.328   1.351 -0.0489  0.5735  0.8065
 1705TIP3    H2 5122   1.954   2.432   1.257  0.2586 -0.3573 -0.4248
 1706TIP3   OH2 5123   4.483   3.155   5.162 -0.1222  0.1904 -0.0649
 1706TIP3    H1 5124   4.450   3.170   5.250 -2.0195  0.2844 -0.7418
 1706TIP3    H2 5125   4.419   3.197   5.105  1.8812  1.5227 -1.4638
 1707TIP3   OH2 5126   1.562   3.535   1.261 -0.2375 -0.0351  0.4444
 1707TIP3    H1 5127   1.648   3.507   1.293  0.0163  0.0124 -0.1781
 1707TIP3    H2 5128   1.517   3.569   1.338 -0.0876 -1.0271  0.9777
 1708TIP3   OH2 5129   6.280   0.391   4.758  0.1834 -0.3150  0.5033
 1708TIP3    H1 5130   6.212   0.459   4.761 -0.4254 -0.9230  0.9403
 1708TIP3    H2 5131   6.359   0.436   4.729  0.1520  0.8711  2.1586
 1709TIP3   OH2 5132   3.626   5.615   3.101 -0.1473 -0.2047 -0.0779
 1709TIP3    H1 5133   3.614   5.522   3.115 -1.6080 -0.2974 -1.7092
 1709TIP3    H2 5134   3.548   5.643   3.053  2.0034  1.0107 -3.2346
 1710TIP3   OH2 5135   4.028   5.675   3.882  0.1940 -0.4317  0.0803
 1710TIP3    H1 5136   4.066   5.590   3.903 -1.5485 -0.9927  1.2041
 1710TIP3    H2 5137   4.096   5.739   3.905  1.4599 -1.4838 -0.6159
 1711TIP3   OH2 5138   1.636   2.192   1.351 -0.6400 -0.4413  0.0245
 1711TIP3    H1 5139   1.560   2.194   1.293 -0.5788  1.9669 -0.0784
 1711TIP3    H2 5140   1.605   2.149   1.431 -1.4664 -1.4484 -0.8193
 1712TIP3   OH2 5141   5.167   3.580   0.131 -0.4516 -0.1679  0.2571
 1712TIP3    H1 5142   5.129   3.667   0.121  0.5032  0.2148 -0.0500
 1712TIP3    H2 5143   5.091   3.523   0.143 -1.1367  0.5712 -0.4620
 1713TIP3   OH2 5144   2.366   1.538   2.660 -0.4145 -0.7695  0.4551
 1713TIP3    H1 5145   2.400   1.494   2.582  0.4172  0.4096  0.1262
 1713TIP3    H2 5146   2.272   1.519   2.660 -0.1432 -2.2107  0.1327
 1714TIP3   OH2 5147   1.514   5.752   0.570  0.2040  0.7328  0.3600
 1714TIP3    H1 5148   1.605   5.776   0.588 -0.3036  2.2619  1.0702
 1714TIP3    H2 5149   1.466   5.833   0.581 -1.2979 -0.1167  0.2643
 1715TIP3   OH2 5150   6.002   3.261   4.563  0.3477 -0.0543  0.4102
 1715TIP3    H1 5151   5.940   3.194   4.535 -0.4867  0.5276  0.8491
 1715TIP3    H2 5152   6.062   3.270   4.489 -1.9581  1.6435 -1.4101
 1716TIP3   OH2 5153   2.121   4.936   2.951  0.4576 -0.2370  0.5025
 1716TIP3    H1 5154   2.062   4.950   3.025  0.9634  1.3859  0.6438
 1716TIP3    H2 5155   2.189   5.002   2.962  1.5537 -1.1785 -0.4158
 1717TIP3   OH2 5156   3.108   2.160   3.969  0.2697  0.2138  0.3506
 1717TIP3    H1 5157   3.092   2.242   3.921  0.7193  0.7306  1.0571
 1717TIP3    H2 5158   3.022   2.136   4.002  0.1190  0.3608  0.0754
 1718TIP3   OH2 5159   4.576   2.390   2.620  0.4985  0.5058 -1.0206
 1718TIP3    H1 5160   4.525   2.439   2.555  0.7958  0.5702 -1.2076
 1718TIP3    H2 5161   4.595   2.306   2.577  1.3639  0.8465 -1.3272
 1719TIP3   OH2 5162   4.110   0.607   1.570  0.9958  0.3552 -0.0117
 1719TIP3    H1 5163   4.022   0.584   1.542  1.0913 -0.7328  0.5232
 1719TIP3    H2 5164   4.138   0.676   1.510 -0.5515  1.3577  0.3706
 1720TIP3   OH2 5165   2.727   5.363   0.926 -0.0238 -0.1987  0.3759
 1720TIP3    H1 5166   2.642   5.388   0.890  0.1298  1.5322  1.1264
 1720TIP3    H2 5167   2.707   5.324   1.011 -0.1015 -0.5435  0.2041
 1721TIP3   OH2 5168   5.061   2.566   3.511  0.1021  0.4820  0.0820
 1721TIP3    H1 5169   5.065   2.582   3.605  0.4063 -0.8490  0.3238
 1721TIP3    H2 5170   4.968   2.571   3.490  0.0608  1.0959  0.3916
 1722TIP3   OH2 5171   1.011   2.447   1.641 -0.4979  0.1203 -0.5216
 1722TIP3    H1 5172   1.003   2.454   1.736 -1.6728 -1.5028 -0.4562
 1722TIP3    H2 5173   0.984   2.357   1.622 -0.0870  0.3575 -2.3801
 1723TIP3   OH2 5174   1.281   4.481   4.537 -0.0544 -0.0544  0.0533
 1723TIP3    H1 5175   1.197   4.499   4.494  0.8619  0.9434 -1.4213
 1723TIP3    H2 5176   1.322   4.567   4.546  1.4042 -0.6491 -0.5762
 1724TIP3   OH2 5177   4.780   0.798   2.098 -0.4096  0.6809 -0.5186
 1724TIP3    H1 5178   4.724   0.870   2.126 -1.2645  0.8283 -2.4099
 1724TIP3    H2 5179   4.719   0.727   2.077  0.2851  0.0604 -0.4828
 1725TIP3   OH2 5180   5.761   1.052   2.656 -0.4184 -0.4928  0.3110
 1725TIP3    H1 5181   5.697   1.100   2.602  1.8180  2.7054  0.1992
 1725TIP3    H2 5182   5.769   1.104   2.735  1.1852 -1.4556  0.8246
 1726TIP3   OH2 5183   5.980   4.786   2.347  0.3004 -0.1966  0.2141
 1726TIP3    H1 5184   5.898   4.815   2.386 -1.1948 -2.3820 -1.0499
 1726TIP3    H2 5185   6.015   4.724   2.411 -0.2487 -0.9855 -0.2297
 1727TIP3   OH2 5186   5.763   2.981   1.874  0.2293 -0.5817 -0.0318
 1727TIP3    H1 5187   5.747   2.925   1.950  1.6531  1.0378  1.5396
 1727TIP3    H2 5188   5.856   2.972   1.856 -0.1734 -1.4412 -2.0965
 1728TIP3   OH2 5189   0.118   3.129   3.674 -0.0436  0.3014 -0.2145
 1728TIP3    H1 5190   0.062   3.075   3.619 -0.9269  1.0442 -0.0662
 1728TIP3    H2 5191   0.169   3.067   3.726 -2.3258 -0.4425  1.2944
 1729TIP3   OH2 5192   6.078   2.933   0.445  0.1121 -0.2793  0.2510
 1729TIP3    H1 5193   6.028   2.972   0.374  2.1468  0.0573 -1.0891
 1729TIP3    H2 5194   6.073   2.839   0.430  0.1335 -0.2315 -0.0573
 1730TIP3   OH2 5195   0.349   3.897   0.714 -0.2297 -0.0122  0.1028
 1730TIP3    H1 5196   0.375   3.988   0.696 -1.0727  0.1470 -0.3807
 1730TIP3    H2 5197   0.257   3.903   0.740 -0.2909 -0.7238  0.0755
 1731TIP3   OH2 5198   2.338   5.472   2.774 -0.2362 -0.3863  0.6314
 1731TIP3    H1 5199   2.336   5.527   2.852 -1.1993  0.9082 -0.2621
 1731TIP3    H2 5200   2.251   5.433   2.769  0.3692 -1.8601  1.1329
 1732TIP3   OH2 5201   5.848   3.522   2.169 -0.1045 -0.3092  0.1383
 1732TIP3    H1 5202   5.938   3.491   2.177 -0.4129 -2.0516 -2.0661
 1732TIP3    H2 5203   5.807   3.500   2.253  1.0189 -1.3395  0.4389
 1733TIP3   OH2 5204   3.074   4.246   3.686  0.7990 -0.1586  0.2433
 1733TIP3    H1 5205   3.056   4.219   3.596  0.6126  0.0653  0.2112
 1733TIP3    H2 5206   3.034   4.179   3.740  1.4798 -0.6467  0.1578
 1734TIP3   OH2 5207   5.037   4.653   2.763  0.3724  0.3318 -0.5018
 1734TIP3    H1 5208   4.945   4.665   2.783  1.0148  1.9416  1.9112
 1734TIP3    H2 5209   5.057   4.720   2.698  0.2673  1.3415  0.4895
 1735TIP3   OH2 5210   5.915   3.432   3.631 -0.5224 -0.4738 -0.3615
 1735TIP3    H1 5211   5.977   3.487   3.679 -2.0392  0.9860  0.0680
 1735TIP3    H2 5212   5.956   3.346   3.626  1.9063  0.6600 -0.9533
 1736TIP3   OH2 5213   0.657   5.336   4.952 -0.1737  0.2987  0.0747
 1736TIP3    H1 5214   0.635   5.341   5.045  0.5946 -0.0656  0.2781
 1736TIP3    H2 5215   0.633   5.422   4.918 -0.8815  0.2849  0.5121
 1737TIP3   OH2 5216   3.982   0.668   2.487 -0.7073 -0.0535  0.3965
 1737TIP3    H1 5217   4.037   0.626   2.553  0.5442 -0.3796 -0.7828
 1737TIP3    H2 5218   4.035   0.741   2.455 -0.8834 -0.4502 -0.8656
 1738TIP3   OH2 5219   0.148   4.133   2.768  0.5986 -0.7613 -0.2999
 1738TIP3    H1 5220   0.057   4.105   2.775  0.1455  0.7667  0.1521
 1738TIP3    H2 5221   0.160   4.153   2.676 -0.0676  0.7322 -0.0858
 1739TIP3   OH2 5222   1.441   2.709   4.706 -0.0545 -0.2680  0.7831
 1739TIP3    H1 5223   1.426   2.615   4.697 -0.6131 -0.0938 -0.2269
 1739TIP3    H2 5224   1.402   2.732   4.790 -0.1044 -0.8944  0.9364
 1740TIP3   OH2 5225   1.416   1.299   0.957  0.4384 -0.5295  0.8178
 1740TIP3    H1 5226   1.378   1.214   0.933  0.7748 -0.7747  1.1319
 1740TIP3    H2 5227   1.396   1.308   1.050  1.7803 -1.0197  1.1858
 1741TIP3   OH2 5228   5.474   5.522   4.026 -0.3854 -0.4565  0.6295
 1741TIP3    H1 5229   5.436   5.455   3.969  1.3628 -0.9190 -0.0512
 1741TIP3    H2 5230   5.466   5.604   3.976  0.2231 -0.6896  0.1359
 1742TIP3   OH2 5231   0.274   5.215   1.874  0.1812 -0.3436 -0.0762
 1742TIP3    H1 5232   0.301   5.248   1.959  0.7416 -2.2416  0.5309
 1742TIP3    H2 5233   0.186   5.180   1.888 -0.9498  1.8744 -1.0161
 1743TIP3   OH2 5234   4.553   5.769   1.712  0.4325 -0.3446 -0.3004
 1743TIP3    H1 5235   4.527   5.748   1.622 -0.2512  0.6396 -0.3518
 1743TIP3    H2 5236   4.488   5.833   1.741  0.4963 -0.8300  0.9902
 1744TIP3   OH2 5237   2.278   5.106   1.871  0.1434  0.2392  0.1131
 1744TIP3    H1 5238   2.282   5.054   1.790  0.3784  0.3226  0.0719
 1744TIP3    H2 5239   2.307   5.193   1.845  1.6487 -0.0922  0.5947
 1745TIP3   OH2 5240   5.093   2.580   3.784  0.5580 -0.3093  0.3808
 1745TIP3    H1 5241   5.164   2.518   3.802 -1.1763 -2.5644 -0.1338
 1745TIP3    H2 5242   5.109   2.653   3.844  2.4115 -1.4492  1.3700
 1746TIP3   OH2 5243   0.823   4.814   4.061  0.1698 -0.2224 -0.3124
 1746TIP3    H1 5244   0.826   4.775   4.148  1.3019  0.2162 -0.1421
 1746TIP3    H2 5245   0.732   4.805   4.034 -0.0294 -1.0677  0.5912
 1747TIP3   OH2 5246   6.079   2.457   4.603  0.4366 -0.6135  0.1383
 1747TIP3    H1 5247   6.168   2.449   4.637  0.2495  0.1252  0.8456
 1747TIP3    H2 5248   6.086   2.434   4.511  1.1912 -1.4531  0.3871
 1748TIP3   OH2 5249   4.668   4.708   1.195  0.1985 -0.2444 -0.3440
 1748TIP3    H1 5250   4.731   4.775   1.169  0.2133  0.1074  0.5767
 1748TIP3    H2 5251   4.719   4.646   1.247 -0.3846  0.5218  1.1772
 1749TIP3   OH2 5252   5.939   0.213   2.872 -0.3540 -0.5032  0.4953
 1749TIP3    H1 5253   5.917   0.217   2.779  1.3475 -2.6928 -0.0778
 1749TIP3    H2 5254   5.861   0.246   2.916 -2.0566 -1.4387 -1.6056
 1750TIP3   OH2 5255   1.666   0.668   3.581  0.0535  0.5265 -0.8833
 1750TIP3    H1 5256   1.679   0.759   3.555  0.2525  1.9068  3.3326
 1750TIP3    H2 5257   1.572   0.660   3.598  0.0916  0.0199 -0.8790
 1751TIP3   OH2 5258   3.740   5.421   4.583  0.1284 -0.3779  0.2544
 1751TIP3    H1 5259   3.805   5.371   4.533  1.0637 -0.7663  1.8028
 1751TIP3    H2 5260   3.694   5.355   4.635  1.2879  0.2772  2.2212
 1752TIP3   OH2 5261   0.640   3.481   1.912 -0.0683  0.2238 -0.5539
 1752TIP3    H1 5262   0.672   3.399   1.950 -0.4931  0.0890 -0.4844
 1752TIP3    H2 5263   0.554   3.494   1.951  0.4590  1.3011  0.3128
 1753TIP3   OH2 5264   4.164   5.813   0.905  0.2166  0.1883 -0.5269
 1753TIP3    H1 5265   4.258   5.823   0.892  0.1088 -0.7647 -2.3760
 1753TIP3    H2 5266   4.124   5.854   0.828 -0.8336 -0.1590 -0.1919
 1754TIP3   OH2 5267   0.644   0.404   1.489  0.2500  0.1075 -0.2132
 1754TIP3    H1 5268   0.709   0.335   1.476 -0.9193 -0.9916 -0.4675
 1754TIP3    H2 5269   0.652   0.428   1.582 -0.6674 -1.8337  0.4258
 1755TIP3   OH2 5270   2.185   4.448   1.196 -0.1537 -0.0573 -0.3562
 1755TIP3    H1 5271   2.220   4.525   1.242 -1.7353  0.9552 -0.7840
 1755TIP3    H2 5272   2.245   4.435   1.123  2.7507 -2.0409  2.1271
 1756TIP3   OH2 5273   1.263   4.020   4.553  0.5853 -0.2298 -0.5374
 1756TIP3    H1 5274   1.340   4.071   4.526  1.5721 -1.2330  0.2784
 1756TIP3    H2 5275   1.276   4.006   4.647  0.4245 -2.0666 -0.7541
 1757TIP3   OH2 5276   5.635   2.266   2.115  0.0222 -0.2674  0.6760
 1757TIP3    H1 5277   5.683   2.239   2.193  1.5643  1.6859  0.4613
 1757TIP3    H2 5278   5.634   2.362   2.119  2.7093  0.1104 -3.1219
 1758TIP3   OH2 5279   3.219   5.676   0.486 -0.4357  0.1439  0.1487
 1758TIP3    H1 5280   3.285   5.625   0.438  0.2384  0.4820  0.7042
 1758TIP3    H2 5281   3.187   5.739   0.423 -0.4680 -0.2391 -0.2235
 1759TIP3   OH2 5282   1.421   1.834   2.585 -0.3498 -0.4213 -0.3463
 1759TIP3    H1 5283   1.362   1.877   2.647 -0.5201  0.9269 -1.4106
 1759TIP3    H2 5284   1.507   1.872   2.603 -0.1685 -0.9173 -0.1433
 1760TIP3   OH2 5285   3.988   5.144   0.608 -0.1053 -0.0220 -0.1294
 1760TIP3    H1 5286   4.021   5.054   0.613 -0.1960 -0.1574 -1.4245
 1760TIP3    H2 5287   4.066   5.198   0.596 -0.1561 -0.1005 -0.8748
 1761TIP3   OH2 5288   1.550   0.896   1.826  0.2015 -0.1190  0.3925
 1761TIP3    H1 5289   1.628   0.951   1.829  0.0466  0.0953  0.5601
 1761TIP3    H2 5290   1.569   0.825   1.887  0.1949  0.0314  0.5734
 1762TIP3   OH2 5291   1.588   5.347   3.652 -0.4552  0.3472 -0.2654
 1762TIP3    H1 5292   1.598   5.417   3.716 -0.4746 -0.6710  0.8712
 1762TIP3    H2 5293   1.672   5.345   3.606  0.3588 -0.3205  1.1957
 1763TIP3   OH2 5294   5.833   4.686   1.189  0.3690 -0.5399  0.1542
 1763TIP3    H1 5295   5.880   4.767   1.167 -1.1120  0.5362  0.7473
 1763TIP3    H2 5296   5.880   4.650   1.264  1.0018 -0.1857 -0.0679
 1764TIP3   OH2 5297   4.121   2.667   2.226 -0.5613 -0.2349 -0.7944
 1764TIP3    H1 5298   4.078   2.582   2.224 -0.5393 -0.2478 -0.7091
 1764TIP3    H2 5299   4.143   2.684   2.134  1.0172 -1.1332 -0.6254
 1765TIP3   OH2 5300   4.918   3.447   5.025 -0.1727  0.2491 -0.2639
 1765TIP3    H1 5301   4.856   3.518   5.042  1.2894  1.7821 -1.0662
 1765TIP3    H2 5302   4.884   3.403   4.947 -1.1426 -0.0478  0.3045
 1766TIP3   OH2 5303   0.516   2.356   1.275 -0.0664  0.3988 -0.8337
 1766TIP3    H1 5304   0.523   2.407   1.195 -2.2784  0.1874 -1.2239
 1766TIP3    H2 5305   0.572   2.279   1.259  0.5494  0.9935 -1.6200
 1767TIP3   OH2 5306   3.773   1.919   0.412 -0.4231  0.0529  0.6503
 1767TIP3    H1 5307   3.755   1.825   0.418  0.8546 -0.3601 -1.2002
 1767TIP3    H2 5308   3.850   1.932   0.466  0.1016 -0.2115 -0.0149
 1768TIP3   OH2 5309   5.725   0.962   3.305  0.5319 -0.3175 -0.3926
 1768TIP3    H1 5310   5.774   0.954   3.223 -0.5221 -0.3847 -1.0462
 1768TIP3    H2 5311   5.634   0.942   3.280  0.0848  0.2998  0.6644
 1769TIP3   OH2 5312   1.105   1.042   1.123  0.2862  0.1736 -0.0581
 1769TIP3    H1 5313   1.086   1.013   1.212 -2.4157  0.5360 -0.4307
 1769TIP3    H2 5314   1.087   1.136   1.125 -0.8284  0.0041 -1.1992
 1770TIP3   OH2 5315   5.027   2.838   3.436 -0.0183 -0.2173 -0.2874
 1770TIP3    H1 5316   5.005   2.759   3.385 -1.9778 -0.4569  0.8119
 1770TIP3    H2 5317   5.067   2.804   3.517  0.7378  0.0293 -0.5488
 1771TIP3   OH2 5318   1.431   0.300   4.749  0.5715  0.6604 -0.1187
 1771TIP3    H1 5319   1.394   0.366   4.808 -0.2840  0.3806 -0.3191
 1771TIP3    H2 5320   1.452   0.226   4.806 -0.8733  0.1324 -0.2172
 1772TIP3   OH2 5321   2.619   5.879   4.082 -0.1291 -0.4191  0.1423
 1772TIP3    H1 5322   2.561   5.807   4.107 -0.2344  0.0631  1.3866
 1772TIP3    H2 5323   2.707   5.841   4.085 -0.2112 -0.5938  0.4426
 1773TIP3   OH2 5324   2.588   5.514   1.521  0.3069  0.1717 -0.8678
 1773TIP3    H1 5325   2.555   5.445   1.580  0.0397  1.2095  0.2389
 1773TIP3    H2 5326   2.533   5.506   1.443 -0.1080 -0.4943 -0.5243
 1774TIP3   OH2 5327   2.021   4.667   4.525 -0.1157 -0.6255  0.2699
 1774TIP3    H1 5328   2.018   4.576   4.556  1.6151 -0.5609  0.7064
 1774TIP3    H2 5329   1.932   4.700   4.540 -0.8489 -2.2970 -0.0998
 1775TIP3   OH2 5330   2.689   2.218   2.031 -0.0159 -0.6327 -0.0465
 1775TIP3    H1 5331   2.747   2.187   2.101  1.1209 -1.5615 -1.3504
 1775TIP3    H2 5332   2.692   2.148   1.965 -1.4300  0.0077 -0.8321
 1776TIP3   OH2 5333   3.827   3.288   4.156  0.3010 -0.2222  0.1431
 1776TIP3    H1 5334   3.803   3.200   4.129  1.8419 -0.3519 -0.9596
 1776TIP3    H2 5335   3.913   3.303   4.115  0.0037  1.8410  0.1608
 1777TIP3   OH2 5336   5.618   1.463   0.063  0.1184 -0.0691  0.1130
 1777TIP3    H1 5337   5.606   1.543   0.114  0.4519  0.2850 -0.3674
 1777TIP3    H2 5338   5.699   1.425   0.097 -0.6305 -0.8231  1.1518
 1778TIP3   OH2 5339   4.296   5.633   3.620  0.5022 -0.3403 -0.0361
 1778TIP3    H1 5340   4.259   5.545   3.610  2.4644 -1.1544 -0.5444
 1778TIP3    H2 5341   4.299   5.647   3.714 -1.2499 -0.1492  0.0203
 1779TIP3   OH2 5342   2.000   3.019   0.757 -0.4073 -0.1844 -0.0290
 1779TIP3    H1 5343   2.029   2.950   0.817 -0.0002 -0.2886 -0.3442
 1779TIP3    H2 5344   2.070   3.084   0.760 -0.4281 -0.1513 -0.3285
 1780TIP3   OH2 5345   2.290   0.624   0.272 -0.4523 -0.1917  0.1379
 1780TIP3    H1 5346   2.207   0.672   0.276 -0.4744  0.0182 -1.6423
 1780TIP3    H2 5347   2.355   0.687   0.302 -0.7304  0.3018 -0.2611
 1781TIP3   OH2 5348   4.918   1.032   2.754 -0.0346  0.3762 -0.2513
 1781TIP3    H1 5349   4.997   1.062   2.800 -0.6022  0.1068  0.9295
 1781TIP3    H2 5350   4.866   1.111   2.741 -0.6984  0.2102  1.2286
 1782TIP3   OH2 5351   4.299   1.623   2.915 -0.8498 -0.0644  0.2479
 1782TIP3    H1 5352   4.368   1.618   2.982 -0.4907  1.7002  0.0614
 1782TIP3    H2 5353   4.244   1.546   2.931  2.8607 -3.4755 -1.5476
 1783TIP3   OH2 5354   2.054   2.316   2.721 -0.1441  0.2335 -0.0625
 1783TIP3    H1 5355   2.145   2.301   2.747  0.1370  0.0703 -1.0713
 1783TIP3    H2 5356   2.023   2.387   2.777  0.7192  0.5333  0.0386
 1784TIP3   OH2 5357   6.257   5.240   4.918  0.5244  0.4911 -0.4021
 1784TIP3    H1 5358   6.345   5.208   4.937 -0.0166 -0.8399 -0.0573
 1784TIP3    H2 5359   6.244   5.312   4.981  0.8228 -0.2715  0.5587
 1785TIP3   OH2 5360   3.103   0.356   3.607  0.1083 -0.1864 -0.0945
 1785TIP3    H1 5361   3.178   0.297   3.596 -0.4375 -0.6937 -1.1467
 1785TIP3    H2 5362   3.123   0.405   3.687  1.6865 -0.1408 -0.4817
 1786TIP3   OH2 5363   3.761   3.536   1.523 -0.3419 -0.1125 -0.2572
 1786TIP3    H1 5364   3.716   3.612   1.486 -0.0433 -0.4438 -1.3463
 1786TIP3    H2 5365   3.717   3.461   1.483  0.9687 -0.4479 -1.1346
 1787TIP3   OH2 5366   4.062   4.827   0.581 -0.4228 -0.3292  0.3164
 1787TIP3    H1 5367   4.078   4.776   0.660  0.0150 -0.4548  0.1519
 1787TIP3    H2 5368   4.149   4.858   0.554 -0.7475  1.1044  0.8086
 1788TIP3   OH2 5369   0.096   5.570   2.160 -0.4718  0.1092 -0.1103
 1788TIP3    H1 5370   0.063   5.482   2.146  1.4299 -1.1775  2.5492
 1788TIP3    H2 5371   0.148   5.589   2.082 -0.5723 -1.3055 -0.5462
 1789TIP3   OH2 5372   4.775   1.697   0.237  0.3683 -0.4678 -0.4917
 1789TIP3    H1 5373   4.695   1.657   0.273 -0.0749  0.4354 -0.4485
 1789TIP3    H2 5374   4.832   1.709   0.313  0.9204 -1.9239 -0.6481
 1790TIP3   OH2 5375   2.913   4.490   0.140 -0.0573  0.3437 -0.3308
 1790TIP3    H1 5376   2.987   4.468   0.084  2.0973 -0.2371  2.4786
 1790TIP3    H2 5377   2.851   4.418   0.127  1.4225 -0.9955 -0.3029
 1791TIP3   OH2 5378   2.813   4.315   2.266  0.0634 -0.5628 -0.3411
 1791TIP3    H1 5379   2.760   4.354   2.335 -0.1088 -2.5032  0.7194
 1791TIP3    H2 5380   2.891   4.282   2.312  2.2165  2.0472 -1.8254
 1792TIP3   OH2 5381   4.042   4.660   3.531  0.2094  0.1141  0.6525
 1792TIP3    H1 5382   3.987   4.608   3.473  0.2554 -1.5660  2.0377
 1792TIP3    H2 5383   3.999   4.745   3.536 -0.4016 -0.0824 -0.9241
 1793TIP3   OH2 5384   0.911   1.813   0.548 -0.3447  0.1691 -0.1640
 1793TIP3    H1 5385   0.827   1.781   0.582 -1.2317  0.6059 -1.8062
 1793TIP3    H2 5386   0.971   1.740   0.558 -0.7304  0.0460  1.5979
 1794TIP3   OH2 5387   3.324   5.655   0.014  0.4023 -0.2900 -0.3131
 1794TIP3    H1 5388   3.271   5.590   0.060 -0.1762 -0.3095 -0.9937
 1794TIP3    H2 5389   3.348   5.612  -0.069 -1.5208  0.9749 -1.6206
 1795TIP3   OH2 5390   1.178   2.859   0.845  0.1028 -0.0093 -0.0636
 1795TIP3    H1 5391   1.267   2.895   0.839 -0.1190  0.4101 -1.0712
 1795TIP3    H2 5392   1.191   2.768   0.870  0.7248  0.4573  1.4264
 1796TIP3   OH2 5393   3.605   0.159   4.436 -0.6443  0.1100  0.2375
 1796TIP3    H1 5394   3.548   0.132   4.508  1.5633 -0.8533  1.7551
 1796TIP3    H2 5395   3.631   0.249   4.458  0.9086 -0.5559  1.3487
 1797TIP3   OH2 5396   3.342   4.537   4.262  0.3609  0.3392 -0.1234
 1797TIP3    H1 5397   3.253   4.572   4.273 -0.1022 -1.0288  0.8425
 1797TIP3    H2 5398   3.344   4.505   4.172 -0.1225  0.4258 -0.1709
 1798TIP3   OH2 5399   3.540   0.406   2.149 -0.1421 -0.0074 -0.1354
 1798TIP3    H1 5400   3.602   0.345   2.190 -0.8373  0.3918  1.5701
 1798TIP3    H2 5401   3.522   0.367   2.064  0.2188 -1.6684  0.5055
 1799TIP3   OH2 5402   3.204   0.172   0.449 -0.8919  0.0178 -0.0875
 1799TIP3    H1 5403   3.221   0.091   0.401  4.1999  0.5893  0.2561
 1799TIP3    H2 5404   3.225   0.241   0.386 -0.0406  0.9150  1.1600
 1800TIP3   OH2 5405   5.525   0.487   1.731 -0.0390  0.1967 -0.2633
 1800TIP3    H1 5406   5.609   0.511   1.692  0.8750 -0.7985  1.0216
 1800TIP3    H2 5407   5.503   0.404   1.689  0.7440 -0.6678  0.9796
 1801TIP3   OH2 5408   3.462   3.691   0.979 -0.3354  0.1550 -0.0587
 1801TIP3    H1 5409   3.442   3.742   0.901 -4.0820 -0.7290  0.1577
 1801TIP3    H2 5410   3.482   3.604   0.946  0.1605  0.2815 -0.1052
 1802TIP3   OH2 5411   5.270   2.614   0.938  0.3371 -0.3826 -0.3975
 1802TIP3    H1 5412   5.300   2.691   0.890 -1.1325  0.6864  0.3125
 1802TIP3    H2 5413   5.346   2.557   0.942  1.0842  0.4065 -2.1452
 1803TIP3   OH2 5414   6.139   2.678   3.739  0.0433  0.3926 -0.3406
 1803TIP3    H1 5415   6.227   2.708   3.720  0.8022 -0.3068  1.8102
 1803TIP3    H2 5416   6.150   2.591   3.776 -1.7705 -0.7410 -2.2217
 1804TIP3   OH2 5417   4.105   3.782   0.297 -0.0614  0.6620  0.2573
 1804TIP3    H1 5418   4.200   3.780   0.309 -0.1513  0.9569  1.0612
 1804TIP3    H2 5419   4.087   3.707   0.241  0.6141  0.4314  0.3330
 1805TIP3   OH2 5420   2.554   3.162   3.585 -0.4302 -0.1636 -0.2749
 1805TIP3    H1 5421   2.615   3.118   3.526 -1.1315  0.0022 -1.1423
 1805TIP3    H2 5422   2.533   3.097   3.651  0.2560 -0.3997 -0.2813
 1806TIP3   OH2 5423   1.604   4.186   4.720  0.1035  0.4088 -0.1749
 1806TIP3    H1 5424   1.649   4.267   4.699 -1.7385  1.2496 -1.0842
 1806TIP3    H2 5425   1.515   4.213   4.745 -0.2357 -1.2478  0.5704
 1807TIP3   OH2 5426   2.805   1.718   1.297  0.2571 -0.1542  0.0167
 1807TIP3    H1 5427   2.736   1.768   1.340 -0.3581  0.8252 -2.0205
 1807TIP3    H2 5428   2.774   1.706   1.207  2.9551  0.8447 -1.1557
 1808TIP3   OH2 5429   5.732   0.514   0.505  0.0473 -0.2716 -0.0174
 1808TIP3    H1 5430   5.828   0.509   0.506  0.0990  0.4396 -0.8712
 1808TIP3    H2 5431   5.711   0.577   0.574  0.3247  1.2384 -1.2684
 1809TIP3   OH2 5432   0.607   1.131   2.829 -0.2150  0.8236  0.3608
 1809TIP3    H1 5433   0.691   1.098   2.862 -0.6972  0.9326  1.7462
 1809TIP3    H2 5434   0.544   1.062   2.851 -0.4361  0.5226 -1.1028
 1810TIP3   OH2 5435   0.585   1.480   5.098  0.0882  0.2738  0.1303
 1810TIP3    H1 5436   0.580   1.576   5.100 -1.5673  0.2905 -1.3580
 1810TIP3    H2 5437   0.530   1.451   5.170 -0.9986  0.4872 -0.5842
 1811TIP3   OH2 5438   0.363   3.230   4.293 -0.3847  0.7567  0.3964
 1811TIP3    H1 5439   0.377   3.309   4.240  0.7677  0.5933  0.4263
 1811TIP3    H2 5440   0.451   3.207   4.324 -0.3412 -1.7211 -1.2960
 1812TIP3   OH2 5441   6.122   1.895   0.218  0.2443  0.1852 -0.1176
 1812TIP3    H1 5442   6.179   1.932   0.150  0.7695 -1.8733 -0.8675
 1812TIP3    H2 5443   6.074   1.825   0.173 -1.0380  0.2229  1.1216
 1813TIP3   OH2 5444   1.122   2.486   0.735 -0.3434  0.2470  0.5294
 1813TIP3    H1 5445   1.172   2.449   0.662  0.9309  3.2570 -0.2597
 1813TIP3    H2 5446   1.058   2.543   0.694  1.2279  3.0196  1.6335
 1814TIP3   OH2 5447   3.367   1.085   0.101 -0.3706 -0.6488  0.1242
 1814TIP3    H1 5448   3.363   1.025   0.026  0.2669 -1.9902  1.1193
 1814TIP3    H2 5449   3.435   1.048   0.158 -2.3452 -0.9882  2.4441
 1815TIP3   OH2 5450   3.191   2.769   2.289  0.0665 -0.0710  0.0841
 1815TIP3    H1 5451   3.177   2.677   2.264  0.5679  0.3186 -1.8204
 1815TIP3    H2 5452   3.285   2.774   2.306  0.1080  0.1637 -0.2071
 1816TIP3   OH2 5453   4.639   2.226   1.251  0.4356  0.3094 -0.0914
 1816TIP3    H1 5454   4.707   2.253   1.189  0.2692 -1.4617 -1.1219
 1816TIP3    H2 5455   4.583   2.167   1.201  1.0543 -2.2750  2.0176
 1817TIP3   OH2 5456   1.789   4.113   0.266 -0.4774 -0.3374  0.5609
 1817TIP3    H1 5457   1.768   4.022   0.288 -2.7288  0.0967  0.4520
 1817TIP3    H2 5458   1.706   4.160   0.278 -0.5693  0.9342 -3.6097
 1818TIP3   OH2 5459   1.529   5.969   2.828  0.1801  0.8549 -0.3372
 1818TIP3    H1 5460   1.543   5.948   2.920 -0.8202  2.7001  0.2891
 1818TIP3    H2 5461   1.616   5.992   2.794  0.2691  2.1830  0.7229
 1819TIP3   OH2 5462   1.624   0.801   0.301  0.3716 -0.1328 -0.3024
 1819TIP3    H1 5463   1.632   0.804   0.397  0.1811 -0.6750 -0.2665
 1819TIP3    H2 5464   1.589   0.887   0.277 -0.5620 -0.3593  0.2103
 1820TIP3   OH2 5465   5.974   1.835   4.960  0.3809  0.6876 -0.2514
 1820TIP3    H1 5466   5.970   1.853   4.866 -1.2935 -2.3973 -0.9224
 1820TIP3    H2 5467   6.066   1.817   4.978  0.6696  0.9736 -1.3871
 1821TIP3   OH2 5468   1.351   1.438   0.125 -0.1553 -0.5340  0.2817
 1821TIP3    H1 5469   1.368   1.410   0.035 -1.2186 -0.3421  0.0059
 1821TIP3    H2 5470   1.333   1.531   0.119  0.8457 -0.2779  0.8598
 1822TIP3   OH2 5471   2.949   0.205   3.810 -0.0273 -0.1309 -0.3716
 1822TIP3    H1 5472   3.001   0.237   3.883  1.7590 -1.7103 -0.8817
 1822TIP3    H2 5473   2.991   0.244   3.732 -0.0046 -0.8789 -0.7435
 1823TIP3   OH2 5474   4.631   1.643   1.635  0.3711 -0.5373  0.6581
 1823TIP3    H1 5475   4.683   1.599   1.568 -1.0635 -1.3308  0.0051
 1823TIP3    H2 5476   4.550   1.668   1.590  0.8031  2.1223  1.2197
 1824TIP3   OH2 5477   5.423   1.524   2.253  0.1822 -0.5112  0.2227
 1824TIP3    H1 5478   5.409   1.619   2.260  1.2988 -0.4312  1.9175
 1824TIP3    H2 5479   5.338   1.490   2.226 -1.4847  0.6170  3.4315
 1825TIP3   OH2 5480   1.274   1.304   3.535 -0.7350 -0.1118  0.4499
 1825TIP3    H1 5481   1.322   1.294   3.453 -3.0087 -0.5599 -0.9014
 1825TIP3    H2 5482   1.341   1.328   3.599  0.9730  1.2906 -1.7221
 1826TIP3   OH2 5483   0.596   4.600   4.628  0.2080  0.1213 -0.2291
 1826TIP3    H1 5484   0.617   4.508   4.610 -2.7372 -0.9495  1.1047
 1826TIP3    H2 5485   0.631   4.616   4.715  0.6926  0.2715 -0.4483
 1827TIP3   OH2 5486   5.459   3.025   3.092 -0.0879  0.7763  0.4414
 1827TIP3    H1 5487   5.483   3.113   3.063  1.6234  1.0729  2.4853
 1827TIP3    H2 5488   5.423   3.038   3.180  1.8312 -0.6588  1.5067
 1828TIP3   OH2 5489   2.417   3.267   2.550  0.5549  0.2314 -0.0260
 1828TIP3    H1 5490   2.439   3.196   2.491 -0.2173  0.7382 -0.9642
 1828TIP3    H2 5491   2.322   3.260   2.561  0.4089  1.3312 -0.4503
 1829TIP3   OH2 5492   5.259   2.415   2.619  0.6621  0.0069  0.2090
 1829TIP3    H1 5493   5.309   2.476   2.673  2.0613 -0.1825 -0.8386
 1829TIP3    H2 5494   5.241   2.463   2.539 -0.9092  0.0856  0.5781
 1830TIP3   OH2 5495   0.456   2.812   2.523  0.4541  0.2965 -0.0761
 1830TIP3    H1 5496   0.543   2.791   2.488  0.4862  2.5012 -1.4587
 1830TIP3    H2 5497   0.405   2.838   2.447 -0.6894  1.3806  1.0278
 1831TIP3   OH2 5498   0.333   1.583   4.166 -0.0029 -0.0331  0.1212
 1831TIP3    H1 5499   0.423   1.616   4.156 -0.3554  0.3751 -2.2018
 1831TIP3    H2 5500   0.307   1.612   4.254  2.1918 -0.3662  0.9464
 1832TIP3   OH2 5501   3.127   3.464   0.212  0.0020 -0.2293  0.7954
 1832TIP3    H1 5502   3.189   3.451   0.284  0.3075 -1.2801  0.3560
 1832TIP3    H2 5503   3.063   3.526   0.246  1.2073  0.7760  1.3144
 1833TIP3   OH2 5504   0.121   2.728   1.699  0.6315  0.1299 -0.2943
 1833TIP3    H1 5505   0.072   2.753   1.621  1.0464 -2.5192 -1.5448
 1833TIP3    H2 5506   0.090   2.787   1.768 -0.3402  2.0305 -2.2507
 1834TIP3   OH2 5507   5.333   2.258   0.713 -0.1054  0.3404  0.5000
 1834TIP3    H1 5508   5.391   2.210   0.772 -0.8443 -0.3790  0.6634
 1834TIP3    H2 5509   5.245   2.241   0.746 -0.7929 -2.1907 -2.1821
 1835TIP3   OH2 5510   0.249   4.304   1.419 -0.1488  0.2441  0.0258
 1835TIP3    H1 5511   0.299   4.257   1.486  0.2060  0.0511 -0.3664
 1835TIP3    H2 5512   0.173   4.248   1.403 -1.0208  1.0179  1.3288
 1836TIP3   OH2 5513   4.968   4.588   1.087  0.0977 -0.1853  0.0345
 1836TIP3    H1 5514   5.037   4.600   1.153 -0.7860  1.7322  0.6637
 1836TIP3    H2 5515   4.906   4.527   1.129  0.6846 -0.8068  0.0217
 1837TIP3   OH2 5516   4.918   3.951   4.984 -0.1637 -0.6047  0.2194
 1837TIP3    H1 5517   4.873   3.905   4.914 -0.1197  0.4973 -0.5618
 1837TIP3    H2 5518   4.861   3.943   5.060 -0.5098 -1.2787 -0.1076
 1838TIP3   OH2 5519   3.698   1.034   4.452  0.7161 -0.0750  0.6293
 1838TIP3    H1 5520   3.668   1.073   4.370  0.7239  0.4978  0.8927
 1838TIP3    H2 5521   3.638   0.961   4.468  0.3939  0.1331  0.3828
 1839TIP3   OH2 5522   5.244   0.055   0.667 -0.1549 -0.0594 -0.0792
 1839TIP3    H1 5523   5.174   0.014   0.717 -0.5782 -0.8709 -1.2889
 1839TIP3    H2 5524   5.323   0.010   0.694 -0.3269 -0.2556  0.0980
 1840TIP3   OH2 5525   0.611   2.136   3.670 -0.4455  0.8956 -0.0566
 1840TIP3    H1 5526   0.592   2.084   3.592  0.8669  0.1664  0.0886
 1840TIP3    H2 5527   0.673   2.202   3.640 -0.1713  0.8001  0.2987
 1841TIP3   OH2 5528   1.063   0.445   1.694  0.4770 -0.2179  0.2268
 1841TIP3    H1 5529   1.153   0.411   1.702  0.2188 -1.0751 -0.3583
 1841TIP3    H2 5530   1.007   0.374   1.724 -0.0624 -0.1859 -0.6610
 1842TIP3   OH2 5531   2.277   4.629   2.195  0.2444  0.4114 -0.2776
 1842TIP3    H1 5532   2.191   4.661   2.221  0.8138  2.8392 -1.0808
 1842TIP3    H2 5533   2.265   4.598   2.105 -0.3045 -1.7823  0.4947
 1843TIP3   OH2 5534   2.440   5.338   4.059  0.1768  0.4807 -0.6155
 1843TIP3    H1 5535   2.446   5.376   4.147 -1.6950 -1.0607  0.2634
 1843TIP3    H2 5536   2.506   5.385   4.008  1.3991  1.3667  1.6214
 1844TIP3   OH2 5537   0.280   0.999   3.165  0.8000  0.6670 -0.0233
 1844TIP3    H1 5538   0.209   1.001   3.229  0.6696  1.1465 -0.1848
 1844TIP3    H2 5539   0.360   0.994   3.219  0.6925  1.0807  0.1763
 1845TIP3   OH2 5540   1.845   4.609   2.494  0.1369 -0.1492 -0.0282
 1845TIP3    H1 5541   1.819   4.571   2.577 -0.0482  0.4915  0.2180
 1845TIP3    H2 5542   1.932   4.573   2.476  0.4118  0.1178  0.7150
 1846TIP3   OH2 5543   1.083   5.830   0.582 -0.4413 -0.1292 -0.5427
 1846TIP3    H1 5544   1.010   5.768   0.581  0.4181 -1.2167 -2.6410
 1846TIP3    H2 5545   1.089   5.862   0.492  0.1146  1.8899  0.1556
 1847TIP3   OH2 5546   1.779   3.353   2.235  0.1314 -0.1189  0.1777
 1847TIP3    H1 5547   1.765   3.273   2.285  0.0503  0.0752  0.4639
 1847TIP3    H2 5548   1.792   3.421   2.301 -1.0045  0.3286 -0.0459
 1848TIP3   OH2 5549   5.162   3.637   2.947 -0.4810  0.1718 -0.5751
 1848TIP3    H1 5550   5.132   3.689   2.873  0.0418 -0.0709 -0.9632
 1848TIP3    H2 5551   5.239   3.684   2.980  2.1382 -2.0255 -3.0386
 1849TIP3   OH2 5552   0.490   1.870   1.897  0.5840  0.1803 -0.3319
 1849TIP3    H1 5553   0.510   1.825   1.979  1.1599  0.8822 -0.0790
 1849TIP3    H2 5554   0.399   1.845   1.878 -0.2370  1.4997  1.5328
 1850TIP3   OH2 5555   1.875   5.782   4.425  0.0150 -0.4244  0.0218
 1850TIP3    H1 5556   1.793   5.734   4.436  0.3935 -0.9281  0.6822
 1850TIP3    H2 5557   1.858   5.869   4.462  0.0957 -0.8673  1.1201
 1851TIP3   OH2 5558   4.515   4.231   4.385 -1.0847 -0.0474  0.2767
 1851TIP3    H1 5559   4.550   4.184   4.310 -1.6709 -0.3492  0.1840
 1851TIP3    H2 5560   4.566   4.198   4.460  0.0176  0.8107 -0.0655
 1852TIP3   OH2 5561   6.356   3.181   4.704  0.5651 -0.0610  0.1127
 1852TIP3    H1 5562   6.264   3.199   4.726  0.5291 -1.3531  1.1058
 1852TIP3    H2 5563   6.353   3.110   4.640  0.8760 -0.1279  0.1706
 1853TIP3   OH2 5564   0.412   5.152   0.928 -0.2939 -0.1589  0.4549
 1853TIP3    H1 5565   0.396   5.144   0.834 -1.6766 -2.7013  0.8302
 1853TIP3    H2 5566   0.507   5.149   0.936 -0.1859 -0.8928 -0.8092
 1854TIP3   OH2 5567   4.025   4.024   2.445  0.3959  0.2296 -0.6051
 1854TIP3    H1 5568   3.960   4.049   2.511  1.9010  1.4960  0.4514
 1854TIP3    H2 5569   4.080   4.101   2.435  2.5722 -1.2341 -0.4665
 1855TIP3   OH2 5570   4.910   2.371   0.735  0.0516 -0.1418  0.0395
 1855TIP3    H1 5571   4.949   2.400   0.817  1.4677  1.5293 -1.1532
 1855TIP3    H2 5572   4.816   2.363   0.754  0.2871  0.6671  1.6755
 1856TIP3   OH2 5573   0.247   5.019   0.669 -0.0183 -0.4588 -0.3415
 1856TIP3    H1 5574   0.313   5.086   0.654  1.1761 -2.1530 -3.7275
 1856TIP3    H2 5575   0.265   4.952   0.603 -3.9046 -2.0055 -0.1132
 1857TIP3   OH2 5576   5.882   1.046   0.854  0.0010  0.0708 -0.5091
 1857TIP3    H1 5577   5.824   1.079   0.785 -0.1445 -0.9798 -0.9006
 1857TIP3    H2 5578   5.957   1.010   0.807 -0.5831 -1.6285 -0.2013
 1858TIP3   OH2 5579   5.905   2.719   2.466 -0.0636  0.0422 -0.1266
 1858TIP3    H1 5580   5.905   2.764   2.381 -0.0992 -0.6268 -0.4904
 1858TIP3    H2 5581   5.882   2.629   2.445  1.6988 -0.5640  0.3707
 1859TIP3   OH2 5582   6.057   1.025   3.403  0.0894 -0.1177 -0.1757
 1859TIP3    H1 5583   5.972   0.983   3.412  0.5433 -0.6209  2.3949
 1859TIP3    H2 5584   6.116   0.972   3.457  1.6838  1.2049 -0.5275
 1860TIP3   OH2 5585   0.537   5.179   4.781 -0.2106  0.6654 -0.2733
 1860TIP3    H1 5586   0.580   5.228   4.712 -0.2834  1.9615  0.5588
 1860TIP3    H2 5587   0.598   5.183   4.855 -1.9112  3.1734  1.1821
 1861TIP3   OH2 5588   3.366   0.306   4.144  0.1230 -0.0348  0.5579
 1861TIP3    H1 5589   3.378   0.214   4.123 -1.9044  0.2044 -2.2342
 1861TIP3    H2 5590   3.431   0.352   4.090 -0.3687  0.2608  0.2056
 1862TIP3   OH2 5591   2.156   2.223   3.404  0.3220 -0.0940 -0.5739
 1862TIP3    H1 5592   2.177   2.140   3.362 -0.1512 -0.3422 -0.3234
 1862TIP3    H2 5593   2.081   2.257   3.355 -1.3458 -1.2014  1.0695
 1863TIP3   OH2 5594   0.928   2.594   4.008  0.2243 -0.3751  0.3523
 1863TIP3    H1 5595   1.022   2.594   3.988  0.0761 -1.7253 -0.4790
 1863TIP3    H2 5596   0.886   2.616   3.924 -0.2370 -1.2748  0.3326
 1864TIP3   OH2 5597   0.562   3.684   2.552  0.1244 -0.4560 -0.1992
 1864TIP3    H1 5598   0.552   3.598   2.593 -0.6833 -0.7375 -0.9555
 1864TIP3    H2 5599   0.529   3.672   2.463  2.6172 -0.0802 -1.2573
 1865TIP3   OH2 5600   2.354   1.463   4.311 -0.2141 -0.7507 -0.0344
 1865TIP3    H1 5601   2.397   1.385   4.276  0.6030 -0.0209 -0.6942
 1865TIP3    H2 5602   2.290   1.488   4.244 -0.9651 -1.2285  0.4817
 1866TIP3   OH2 5603   0.417   3.434   0.198 -0.3952  0.5295  0.0055
 1866TIP3    H1 5604   0.470   3.427   0.119 -0.5175 -0.4828 -0.0058
 1866TIP3    H2 5605   0.386   3.525   0.198  1.2354  1.1137 -0.0247
 1867TIP3   OH2 5606   5.269   4.502   3.540 -0.2700 -0.6378 -0.1073
 1867TIP3    H1 5607   5.225   4.495   3.625 -0.6953  0.8694 -0.1701
 1867TIP3    H2 5608   5.362   4.514   3.563 -0.6642  2.6596  0.3744
 1868TIP3   OH2 5609   4.720   2.348   4.723  0.6164  0.1797 -0.1735
 1868TIP3    H1 5610   4.785   2.397   4.673  0.7116 -0.8460 -1.1197
 1868TIP3    H2 5611   4.635   2.377   4.688  0.5353  1.5497  1.0919
 1869TIP3   OH2 5612   0.360   4.888   1.658 -0.2582  0.0948 -0.1188
 1869TIP3    H1 5613   0.397   4.800   1.653  0.5057  0.4729 -2.9799
 1869TIP3    H2 5614   0.422   4.938   1.710 -0.9149 -1.1019  1.9038
 1870TIP3   OH2 5615   3.447   0.749   2.379  0.0153 -1.0167  0.2569
 1870TIP3    H1 5616   3.432   0.822   2.440  1.8736 -0.0548 -0.3703
 1870TIP3    H2 5617   3.418   0.671   2.427  1.8231 -0.3551  2.5815
 1871TIP3   OH2 5618   0.290   3.148   2.148 -0.0057  0.2027 -0.0426
 1871TIP3    H1 5619   0.273   3.119   2.238  0.1095  2.2633  0.7085
 1871TIP3    H2 5620   0.333   3.074   2.107 -2.0649 -1.6293  0.8997
 1872TIP3   OH2 5621   1.293   2.003   0.435 -0.2524  0.5398  0.5172
 1872TIP3    H1 5622   1.351   2.066   0.392 -0.2978  0.5526  0.4741
 1872TIP3    H2 5623   1.215   2.054   0.457 -0.3431  0.4681  0.3635
 1873TIP3   OH2 5624   0.367   3.289   0.601  0.1494 -0.1898  0.8474
 1873TIP3    H1 5625   0.291   3.231   0.602  0.7745 -1.0676 -0.3654
 1873TIP3    H2 5626   0.336   3.370   0.642 -1.4314 -0.5464  0.4282
 1874TIP3   OH2 5627   2.735   0.858   3.223 -0.5790  0.1936 -0.2501
 1874TIP3    H1 5628   2.672   0.929   3.235 -2.6076 -1.7714  1.9306
 1874TIP3    H2 5629   2.807   0.879   3.282 -2.2151 -0.5422  2.1632
 1875TIP3   OH2 5630   1.563   3.984   2.038  0.8254  0.8092 -0.5886
 1875TIP3    H1 5631   1.611   4.024   2.111  2.2147 -1.6327 -0.0404
 1875TIP3    H2 5632   1.547   3.895   2.067 -2.7324  1.0353 -1.4728
 1876TIP3   OH2 5633   0.608   4.693   0.485 -0.0932  0.4057  0.7413
 1876TIP3    H1 5634   0.684   4.745   0.457 -0.4488  0.7984  0.4902
 1876TIP3    H2 5635   0.546   4.702   0.413 -0.1695 -0.3524  0.7136
 1877TIP3   OH2 5636   4.913   0.779   2.688 -0.1805  0.4775 -0.0835
 1877TIP3    H1 5637   4.938   0.872   2.688  0.5602  0.3117 -1.5249
 1877TIP3    H2 5638   4.859   0.769   2.610 -0.2112 -0.3253  0.0369
 1878TIP3   OH2 5639   6.239   4.218   2.519 -0.2304 -0.0585 -0.6039
 1878TIP3    H1 5640   6.149   4.207   2.488 -0.1451  0.3090 -0.9918
 1878TIP3    H2 5641   6.238   4.184   2.608 -0.8332  0.2293 -0.4954
 1879TIP3   OH2 5642   3.708   1.320   1.335  0.3833 -0.4810  0.6865
 1879TIP3    H1 5643   3.729   1.386   1.402  2.1706 -0.8423  0.5466
 1879TIP3    H2 5644   3.731   1.363   1.253 -1.5816 -0.1257  0.2727
 1880TIP3   OH2 5645   4.061   2.573   1.793 -0.0453 -0.2923 -0.5759
 1880TIP3    H1 5646   4.055   2.645   1.731 -1.6300  0.0129 -0.1075
 1880TIP3    H2 5647   4.035   2.495   1.743 -1.3796 -0.0373 -0.3002
 1881TIP3   OH2 5648   3.461   0.557   4.913 -0.1147  0.1967  0.2087
 1881TIP3    H1 5649   3.424   0.527   4.995  0.8561  3.2274  1.9189
 1881TIP3    H2 5650   3.390   0.549   4.849 -1.2004 -1.2780  1.5448
 1882TIP3   OH2 5651   2.771   2.832   0.940  0.1929 -0.1770 -0.3211
 1882TIP3    H1 5652   2.751   2.837   0.847 -1.0030 -0.7886 -0.1183
 1882TIP3    H2 5653   2.866   2.838   0.945  0.2888 -0.4155 -1.5927
 1883TIP3   OH2 5654   4.853   2.879   0.440  0.3234 -0.2266 -0.0292
 1883TIP3    H1 5655   4.809   2.961   0.463  1.9603  0.0841  2.2686
 1883TIP3    H2 5656   4.799   2.811   0.479  0.9583  0.0500  1.3941
 1884TIP3   OH2 5657   3.360   4.180   2.125  0.5245 -0.1156  0.3072
 1884TIP3    H1 5658   3.294   4.128   2.078 -0.6350  2.5417 -1.2522
 1884TIP3    H2 5659   3.321   4.267   2.132  3.5776  1.4215 -0.0267
 1885TIP3   OH2 5660   2.933   5.330   1.244 -0.5005 -0.5670  0.1227
 1885TIP3    H1 5661   2.863   5.268   1.223  0.4611 -1.0978 -1.8109
 1885TIP3    H2 5662   2.899   5.382   1.317 -2.9799 -0.6726 -0.8597
 1886TIP3   OH2 5663   1.732   4.275   2.963 -0.0087 -0.0220 -0.5215
 1886TIP3    H1 5664   1.776   4.216   2.902  0.3894 -1.3885  1.0256
 1886TIP3    H2 5665   1.802   4.328   3.000 -0.2264  0.6686 -1.0705
 1887TIP3   OH2 5666   5.284   3.705   5.102 -0.2962 -0.5400 -0.5218
 1887TIP3    H1 5667   5.293   3.615   5.071 -2.4155 -0.7644 -0.6303
 1887TIP3    H2 5668   5.278   3.757   5.023  1.0689 -0.2552 -0.4596
 1888TIP3   OH2 5669   5.500   2.407   0.263 -0.3413 -0.1654 -0.0768
 1888TIP3    H1 5670   5.469   2.360   0.340  0.1585 -0.4884 -0.0705
 1888TIP3    H2 5671   5.438   2.480   0.253 -0.1850  0.1170  0.8574
 1889TIP3   OH2 5672   5.457   5.854   1.169 -0.6326  0.4685  0.0331
 1889TIP3    H1 5673   5.457   5.924   1.235  3.9369 -0.4098  1.3335
 1889TIP3    H2 5674   5.458   5.773   1.221  2.7066 -0.2511 -0.9336
 1890TIP3   OH2 5675   0.337   1.595   1.064  0.2536  0.6053 -0.3092
 1890TIP3    H1 5676   0.281   1.669   1.090  1.0855  1.3019 -0.4764
 1890TIP3    H2 5677   0.360   1.613   0.973  0.7126  0.2950 -0.2555
 1891TIP3   OH2 5678   2.024   2.786   0.179 -0.0817 -0.7793 -0.4444
 1891TIP3    H1 5679   1.937   2.750   0.162 -0.1660  0.0609 -1.9552
 1891TIP3    H2 5680   2.068   2.785   0.094  0.6593  0.6525 -0.1149
 1892TIP3   OH2 5681   4.115   2.663   0.675  0.8127  0.2752 -0.1590
 1892TIP3    H1 5682   4.070   2.607   0.611  3.3045 -2.4811  0.2855
 1892TIP3    H2 5683   4.080   2.635   0.760 -0.4403  1.9583 -0.0663
 1893TIP3   OH2 5684   5.434   0.249   3.921 -0.2527  0.0477  0.0298
 1893TIP3    H1 5685   5.513   0.303   3.910 -0.8516  0.7243 -1.2779
 1893TIP3    H2 5686   5.362   0.312   3.914 -0.9159 -0.5292  1.4283
 1894TIP3   OH2 5687   2.166   0.854   3.659  0.0290  0.0851  0.0849
 1894TIP3    H1 5688   2.138   0.942   3.633 -0.2147 -0.8209 -3.0670
 1894TIP3    H2 5689   2.261   0.856   3.655  0.0404  0.2886  0.4094
 1895TIP3   OH2 5690   4.084   3.446   1.953  0.8127 -0.2057 -0.3739
 1895TIP3    H1 5691   4.007   3.449   1.896 -0.6374  0.1516  1.4962
 1895TIP3    H2 5692   4.133   3.526   1.931 -1.5776  1.8518  1.2252
 1896TIP3   OH2 5693   3.066   0.906   4.860 -0.0147 -0.4963  0.0624
 1896TIP3    H1 5694   3.103   0.865   4.782  2.1566  1.0800  0.1687
 1896TIP3    H2 5695   3.067   0.837   4.927  0.4622 -1.1736 -0.6302
 1897TIP3   OH2 5696   1.735   0.023   2.843  0.2609  0.1230  0.3267
 1897TIP3    H1 5697   1.811  -0.021   2.804 -1.0486 -1.2303 -0.8090
 1897TIP3    H2 5698   1.709   0.087   2.777  0.7951  1.0793  1.0139
 1898TIP3   OH2 5699   4.794   1.138   3.259  0.1837  0.1844 -0.7787
 1898TIP3    H1 5700   4.781   1.061   3.314 -0.6470 -0.5488 -1.9629
 1898TIP3    H2 5701   4.761   1.211   3.312  0.7348 -0.3006  0.2471
 1899TIP3   OH2 5702   4.199   0.587   2.620  0.5453  0.3451  0.3900
 1899TIP3    H1 5703   4.193   0.492   2.625  2.5112  0.1315 -0.3935
 1899TIP3    H2 5704   4.215   0.615   2.710  1.0362 -0.1841  0.4753
 1900TIP3   OH2 5705   3.472   3.360   3.031 -0.5306 -0.0604 -0.5663
 1900TIP3    H1 5706   3.425   3.439   3.057  0.5987  0.0074  1.4829
 1900TIP3    H2 5707   3.412   3.288   3.051 -0.5697  0.1408  0.0569
 1901TIP3   OH2 5708   2.912   3.264   4.393  0.6565  0.3153  0.3999
 1901TIP3    H1 5709   2.905   3.227   4.305  0.3589 -0.4237  0.7188
 1901TIP3    H2 5710   2.845   3.331   4.397 -0.2525 -0.5809  0.4961
 1902TIP3   OH2 5711   5.844   5.199   4.467  0.1530  0.5148  0.0080
 1902TIP3    H1 5712   5.938   5.183   4.472  0.3136  0.7014 -1.8290
 1902TIP3    H2 5713   5.805   5.122   4.509  1.1138  0.5372  0.9901
 1903TIP3   OH2 5714   3.976   0.444   4.630  0.1230 -0.7764 -0.3698
 1903TIP3    H1 5715   3.897   0.426   4.681 -0.7223  2.2762 -0.4009
 1903TIP3    H2 5716   4.046   0.401   4.678 -1.1478 -1.0036  1.3688
 1904TIP3   OH2 5717   2.154   5.604   0.632 -0.8018 -0.1637 -0.5055
 1904TIP3    H1 5718   2.231   5.656   0.653 -0.2791  0.0231 -2.6795
 1904TIP3    H2 5719   2.119   5.578   0.717 -0.1835  2.3903  0.6177
 1905TIP3   OH2 5720   4.822   5.771   3.180  0.6200  0.8957 -0.0224
 1905TIP3    H1 5721   4.894   5.737   3.127  0.8395  0.7911  0.3332
 1905TIP3    H2 5722   4.859   5.847   3.225 -0.2663  2.4753 -1.8671
 1906TIP3   OH2 5723   4.873   0.095   0.794  0.1993 -0.4143  0.2517
 1906TIP3    H1 5724   4.866   0.138   0.709  0.4214  1.5867  1.1974
 1906TIP3    H2 5725   4.869   0.001   0.773 -0.0173  0.0149 -1.9183
 1907TIP3   OH2 5726   4.667   3.657   3.087  0.3621 -0.3267  0.6915
 1907TIP3    H1 5727   4.719   3.587   3.049  2.4689  1.1553  0.6531
 1907TIP3    H2 5728   4.579   3.644   3.051  1.5051 -0.8926 -2.1194
 1908TIP3   OH2 5729   3.132   0.927   3.989 -0.0149 -0.1288 -0.1403
 1908TIP3    H1 5730   3.118   0.945   4.082 -1.1947  0.8296 -0.4741
 1908TIP3    H2 5731   3.215   0.970   3.969  2.1213 -3.2756  1.1914
 1909TIP3   OH2 5732   0.570   0.139   1.669 -0.0255  0.2071 -0.5380
 1909TIP3    H1 5733   0.484   0.136   1.711 -0.0765  0.8662 -0.5788
 1909TIP3    H2 5734   0.580   0.231   1.642  0.9444  0.2717  0.0027
 1910TIP3   OH2 5735   5.680   5.901   3.303  0.2031  0.1557 -0.2427
 1910TIP3    H1 5736   5.634   5.911   3.386  1.5697 -2.1883  0.8930
 1910TIP3    H2 5737   5.619   5.853   3.247  1.0161 -2.8776  1.2316
 1911TIP3   OH2 5738   1.030   1.416   3.576  0.3681  0.3384  0.0469
 1911TIP3    H1 5739   1.040   1.500   3.620  1.1625  1.8661 -2.8357
 1911TIP3    H2 5740   1.116   1.375   3.582  0.4359  0.4824  0.0581
 1912TIP3   OH2 5741   3.040   4.481   4.791 -0.5945  0.0866  0.3537
 1912TIP3    H1 5742   3.051   4.486   4.696 -2.3550 -0.2414  0.1123
 1912TIP3    H2 5743   2.956   4.523   4.809 -0.6472 -0.5218  1.6845
 1913TIP3   OH2 5744   1.337   5.662   0.349  0.1319 -0.1682 -0.2469
 1913TIP3    H1 5745   1.369   5.679   0.260  0.6563 -0.7039 -0.1597
 1913TIP3    H2 5746   1.394   5.714   0.405 -0.9865  1.1764 -0.2991
 1914TIP3   OH2 5747   1.683   3.748   2.316  0.2075  0.5936 -0.2157
 1914TIP3    H1 5748   1.658   3.741   2.224  0.0434  1.0057 -0.2006
 1914TIP3    H2 5749   1.621   3.810   2.354  1.4957  1.9869 -0.2775
 1915TIP3   OH2 5750   6.129   3.162   5.175 -0.5050 -0.8528 -0.0209
 1915TIP3    H1 5751   6.156   3.123   5.091  2.7699 -0.5118  0.7382
 1915TIP3    H2 5752   6.179   3.114   5.240 -1.4401  0.2619  1.5863
 1916TIP3   OH2 5753   0.404   5.739   4.183 -0.0282 -0.5578 -0.2963
 1916TIP3    H1 5754   0.439   5.818   4.142 -0.9678 -0.2962 -0.6189
 1916TIP3    H2 5755   0.325   5.719   4.133 -0.4072 -1.0688  0.4857
 1917TIP3   OH2 5756   1.910   5.380   2.062 -0.5934 -0.1492  0.2977
 1917TIP3    H1 5757   1.895   5.290   2.089  0.1907 -0.2944  0.2807
 1917TIP3    H2 5758   2.005   5.392   2.070 -0.6153  0.4833 -0.2831
 1918TIP3   OH2 5759   3.319   4.939   4.196  0.2966  0.0365 -0.2633
 1918TIP3    H1 5760   3.276   4.917   4.278 -0.8071  1.7776 -0.3329
 1918TIP3    H2 5761   3.262   4.902   4.128  1.3226 -1.5972 -0.2911
 1919TIP3   OH2 5762   4.098   0.484   0.293  0.1920 -0.0901 -0.4274
 1919TIP3    H1 5763   4.124   0.568   0.255 -0.4782  0.3142  0.0007
 1919TIP3    H2 5764   4.170   0.462   0.353  0.0195  0.5464  0.0213
 1920TIP3   OH2 5765   1.668   3.738   2.046 -0.3061 -0.3688  0.0108
 1920TIP3    H1 5766   1.719   3.657   2.047 -0.4769 -0.4817  0.7818
 1920TIP3    H2 5767   1.727   3.804   2.010  0.3491 -0.5246  0.7675
 1921TIP3   OH2 5768   5.954   1.195   4.608 -0.5316  0.0316  0.0172
 1921TIP3    H1 5769   6.046   1.218   4.595 -0.2935 -0.1510  1.2845
 1921TIP3    H2 5770   5.945   1.183   4.702 -2.2951  1.8984  0.1520
 1922TIP3   OH2 5771   5.069   4.992   1.767  0.0943  0.4650 -0.0068
 1922TIP3    H1 5772   5.074   4.899   1.787 -1.7544  0.4975  0.8597
 1922TIP3    H2 5773   5.010   4.998   1.692 -1.4744  0.9986  1.1868
 1923TIP3   OH2 5774   0.446   0.083   4.681 -0.1079 -0.2300 -0.0018
 1923TIP3    H1 5775   0.530   0.119   4.709  0.8335 -1.4463 -1.1283
 1923TIP3    H2 5776   0.458  -0.012   4.687 -1.1660 -0.4306 -0.8165
 1924TIP3   OH2 5777   0.054   2.227   2.104 -0.0168 -0.1205 -0.6531
 1924TIP3    H1 5778   0.082   2.139   2.076  2.3193  0.1778  0.4758
 1924TIP3    H2 5779   0.013   2.214   2.189  2.1937  0.0211  0.5034
 1925TIP3   OH2 5780   0.858   0.572   1.869 -0.2384  0.3229  0.0457
 1925TIP3    H1 5781   0.829   0.663   1.866  0.1147  0.4503  0.4530
 1925TIP3    H2 5782   0.954   0.577   1.859 -0.0588  0.0985  1.4778
 1926TIP3   OH2 5783   2.469   0.280   1.932 -0.9472  0.3886  0.2477
 1926TIP3    H1 5784   2.468   0.272   2.027 -0.2910 -0.5559  0.1962
 1926TIP3    H2 5785   2.395   0.226   1.903 -1.1119  0.6288  0.2238
 1927TIP3   OH2 5786   4.965   0.152   5.165 -0.9868  0.5026  0.5845
 1927TIP3    H1 5787   4.941   0.183   5.077 -0.9009 -0.7923  0.0881
 1927TIP3    H2 5788   5.055   0.180   5.176  0.0682 -1.9127 -1.0214
 1928TIP3   OH2 5789   2.394   2.246   4.311 -0.1550  0.3809 -0.2795
 1928TIP3    H1 5790   2.364   2.238   4.401 -1.2393 -0.0947 -0.6689
 1928TIP3    H2 5791   2.318   2.276   4.262 -0.0501 -0.9199 -1.3072
 1929TIP3   OH2 5792   1.893   1.670   0.644 -0.2924 -0.3800  0.1135
 1929TIP3    H1 5793   1.895   1.604   0.713  0.0037  0.1552  0.6284
 1929TIP3    H2 5794   1.912   1.753   0.689  0.2423 -0.0653 -0.6591
 1930TIP3   OH2 5795   4.195   3.038   2.133  0.0352  0.2029  0.1696
 1930TIP3    H1 5796   4.196   3.009   2.041 -1.3901  0.5374  0.0353
 1930TIP3    H2 5797   4.190   3.134   2.128  0.8193  0.2807  0.6170
 1931TIP3   OH2 5798   1.091   2.547   4.248  0.2541  0.0379  0.3435
 1931TIP3    H1 5799   1.090   2.458   4.285 -0.0421 -1.2613 -2.5470
 1931TIP3    H2 5800   1.015   2.550   4.190 -0.5419  2.7128  1.3577
 1932TIP3   OH2 5801   3.028   0.683   3.915  0.3754 -0.1404  0.4538
 1932TIP3    H1 5802   2.960   0.715   3.856 -0.7111 -0.3886  1.5320
 1932TIP3    H2 5803   3.051   0.759   3.969 -1.1788 -0.7190  2.0467
 1933TIP3   OH2 5804   3.529   4.390   2.813  0.1650  0.1276 -0.4268
 1933TIP3    H1 5805   3.530   4.299   2.784  1.6657  0.3085 -1.0053
 1933TIP3    H2 5806   3.504   4.385   2.906 -0.9168 -0.7540 -0.7456
 1934TIP3   OH2 5807   2.342   1.096   2.208 -0.1270  0.5165  0.3166
 1934TIP3    H1 5808   2.264   1.120   2.257 -1.6805 -1.8998 -0.8030
 1934TIP3    H2 5809   2.370   1.013   2.245  0.1621 -0.0836 -1.1605
 1935TIP3   OH2 5810   3.590   4.875   1.521 -0.1634 -0.0301 -0.0848
 1935TIP3    H1 5811   3.647   4.800   1.533 -0.6391 -0.1045  2.0064
 1935TIP3    H2 5812   3.585   4.916   1.607 -1.2044  1.4670 -0.8127
 1936TIP3   OH2 5813   0.193   3.018   1.428 -0.4950  0.7756 -0.0528
 1936TIP3    H1 5814   0.221   3.106   1.405  1.5313 -0.0426 -1.0291
 1936TIP3    H2 5815   0.210   2.966   1.348  0.6455 -0.9260  1.2108
 1937TIP3   OH2 5816   2.524   0.288   2.219 -0.1571 -0.1519 -1.0958
 1937TIP3    H1 5817   2.508   0.200   2.253  1.3437 -0.1535 -0.3453
 1937TIP3    H2 5818   2.476   0.345   2.279  2.2379 -0.1780  0.9691
 1938TIP3   OH2 5819   6.175   1.012   0.438 -0.1561  0.2894  0.4527
 1938TIP3    H1 5820   6.216   1.002   0.352  2.5676  0.0054  1.6871
 1938TIP3    H2 5821   6.117   1.087   0.428  1.5870  1.5330 -1.1593
 1939TIP3   OH2 5822   3.823   5.179   1.920 -0.0358  0.0600 -0.3613
 1939TIP3    H1 5823   3.786   5.210   2.003 -0.2686 -0.8380 -0.1125
 1939TIP3    H2 5824   3.779   5.231   1.853  0.4683  1.0905  0.0951
 1940TIP3   OH2 5825   5.289   3.567   0.569  0.0568 -0.9004  0.0059
 1940TIP3    H1 5826   5.281   3.634   0.501 -1.5972 -0.1914  0.8651
 1940TIP3    H2 5827   5.212   3.511   0.557 -0.0005 -1.0474  1.0148
 1941TIP3   OH2 5828   1.146   2.193   1.682 -0.5809  0.6878 -0.0961
 1941TIP3    H1 5829   1.054   2.188   1.658 -0.9733  3.0372  0.6639
 1941TIP3    H2 5830   1.146   2.191   1.778  0.3944 -1.5055 -0.0703
 1942TIP3   OH2 5831   0.669   3.245   1.612 -0.1866  0.1127  0.6421
 1942TIP3    H1 5832   0.749   3.280   1.651  0.5313  0.7237 -1.2633
 1942TIP3    H2 5833   0.602   3.256   1.680  1.2738 -0.2186  2.1989
 1943TIP3   OH2 5834   1.237   5.216   2.769 -0.1800  0.1391 -0.0649
 1943TIP3    H1 5835   1.167   5.235   2.832  0.1991  2.0935 -0.1872
 1943TIP3    H2 5836   1.194   5.219   2.684 -0.6373 -2.2456  0.0084
 1944TIP3   OH2 5837   0.402   0.902   1.128  0.0652  0.1177 -0.0551
 1944TIP3    H1 5838   0.409   0.967   1.058 -3.1885 -0.0473 -0.6612
 1944TIP3    H2 5839   0.324   0.928   1.177  0.5820 -1.4790  1.7368
 1945TIP3   OH2 5840   1.089   5.156   1.768 -0.1339  0.5240  0.3804
 1945TIP3    H1 5841   1.065   5.219   1.700  0.2490  0.2760  0.0096
 1945TIP3    H2 5842   1.184   5.162   1.774 -0.0340 -0.3874 -0.0380
 1946TIP3   OH2 5843   4.097   5.372   4.519  0.2609  0.0441 -0.1337
 1946TIP3    H1 5844   4.113   5.411   4.605  0.9218 -0.9648  0.2185
 1946TIP3    H2 5845   4.170   5.311   4.507 -0.8433 -1.2065 -0.5904
 1947TIP3   OH2 5846   4.303   2.053   2.657 -0.2181  0.3256 -0.6227
 1947TIP3    H1 5847   4.243   2.127   2.654 -0.7630  0.0522  1.7325
 1947TIP3    H2 5848   4.256   1.985   2.705  1.3665 -0.4775 -0.1120
 1948TIP3   OH2 5849   5.067   0.839  -0.010  0.0207  0.3549 -0.1589
 1948TIP3    H1 5850   5.158   0.808  -0.009  0.3898  1.3585 -0.8116
 1948TIP3    H2 5851   5.069   0.918   0.045 -0.3616  0.6191 -0.5208
 1949TIP3   OH2 5852   1.451   1.678   3.059 -0.1895  0.3092  0.4214
 1949TIP3    H1 5853   1.449   1.756   3.114 -0.9253  0.4289  0.2388
 1949TIP3    H2 5854   1.543   1.668   3.036 -0.2390  1.9819 -0.7496
 1950TIP3   OH2 5855   2.913   1.047   1.048 -0.2340 -0.3439  0.1828
 1950TIP3    H1 5856   2.960   1.007   0.976  0.4362 -0.2101  0.5381
 1950TIP3    H2 5857   2.981   1.077   1.108 -0.6449  2.0820 -0.4612
 1951TIP3   OH2 5858   0.840   0.879   4.328 -0.3801 -0.7631  0.6716
 1951TIP3    H1 5859   0.844   0.946   4.260 -0.9702 -2.1736 -0.8066
 1951TIP3    H2 5860   0.752   0.841   4.320  0.1455 -2.1183  1.0637
 1952TIP3   OH2 5861   2.264   5.688   2.580 -0.5896 -0.2531 -0.2464
 1952TIP3    H1 5862   2.177   5.648   2.590  0.3684 -2.3797  0.0823
 1952TIP3    H2 5863   2.313   5.660   2.657  0.0928  1.8929  0.1777
 1953TIP3   OH2 5864   3.537   1.449   0.291 -0.8833  0.3327  0.0070
 1953TIP3    H1 5865   3.461   1.452   0.349 -1.4626  1.1045 -0.7618
 1953TIP3    H2 5866   3.502   1.470   0.205 -0.1999 -1.7436 -0.8240
 1954TIP3   OH2 5867   1.831   4.953   0.932 -0.2350 -0.0584  0.6414
 1954TIP3    H1 5868   1.893   4.959   0.860 -2.0164 -0.0882 -0.9874
 1954TIP3    H2 5869   1.753   4.997   0.900 -1.8117 -1.8729  1.7394
 1955TIP3   OH2 5870   2.149   0.639   4.014 -0.1136 -0.3785  0.6826
 1955TIP3    H1 5871   2.072   0.683   3.979  1.0972  1.0867 -0.2937
 1955TIP3    H2 5872   2.118   0.593   4.092 -2.0884 -0.4321 -0.0769
 1956TIP3   OH2 5873   1.661   2.134   0.808  0.1604 -0.2658 -0.2654
 1956TIP3    H1 5874   1.592   2.200   0.814  1.0627  0.7134 -0.3623
 1956TIP3    H2 5875   1.617   2.052   0.827 -0.9831  0.3686 -0.0700
 1957TIP3   OH2 5876   2.323   2.897   4.504  0.0847  0.2104 -0.2534
 1957TIP3    H1 5877   2.333   2.814   4.551  2.7023 -1.8085 -3.8894
 1957TIP3    H2 5878   2.361   2.962   4.562  1.7229 -1.8388  1.1139
 1958TIP3   OH2 5879   3.427   3.092   1.201  0.2861 -0.2796 -0.4666
 1958TIP3    H1 5880   3.471   3.159   1.149  1.1707  1.6145  2.4587
 1958TIP3    H2 5881   3.405   3.136   1.283 -0.4655 -3.1984  1.0409
 1959TIP3   OH2 5882   5.063   0.762   2.916 -0.3705  0.5456 -0.0239
 1959TIP3    H1 5883   5.007   0.765   2.838  2.7525 -0.1925 -2.5285
 1959TIP3    H2 5884   5.051   0.673   2.950 -1.0398  0.5334 -0.2828
 1960TIP3   OH2 5885   6.014   5.590   2.825 -0.0006 -0.3933  0.5388
 1960TIP3    H1 5886   6.098   5.545   2.817  0.5950  0.8445 -0.4898
 1960TIP3    H2 5887   5.973   5.550   2.902  1.2998 -1.3671  0.7626
 1961TIP3   OH2 5888   1.558   4.084   5.090 -0.0984  0.2163 -0.2570
 1961TIP3    H1 5889   1.567   4.025   5.015  1.3618  0.4322 -0.2831
 1961TIP3    H2 5890   1.464   4.087   5.108 -0.4231 -0.1909 -1.7966
 1962TIP3   OH2 5891   3.536   5.910   1.538  0.0431 -0.2402  0.3223
 1962TIP3    H1 5892   3.538   5.999   1.573 -0.2801 -0.3255  0.5674
 1962TIP3    H2 5893   3.589   5.859   1.599  1.7739  0.1244 -0.8288
 1963TIP3   OH2 5894   2.174   1.097   2.005  0.2271  0.0409 -0.0526
 1963TIP3    H1 5895   2.243   1.087   2.070 -1.1273 -0.6563  1.3447
 1963TIP3    H2 5896   2.148   1.008   1.983 -0.9813  0.2832  0.3111
 1964TIP3   OH2 5897   5.231   1.097   0.849 -0.1395 -0.2072 -0.5578
 1964TIP3    H1 5898   5.245   1.150   0.928 -1.7798  0.3438 -0.6120
 1964TIP3    H2 5899   5.294   1.025   0.858  0.8662  0.7419  0.4139
 1965TIP3   OH2 5900   4.916   2.946   3.705 -0.2741 -0.1759  0.4858
 1965TIP3    H1 5901   4.979   2.975   3.770 -0.9019 -0.2820  1.1554
 1965TIP3    H2 5902   4.871   3.026   3.678  0.7805  0.0523 -0.7162
 1966TIP3   OH2 5903   2.189   2.528   0.321  0.3377  0.4917 -0.1744
 1966TIP3    H1 5904   2.161   2.551   0.233  1.2157  1.4037 -0.2351
 1966TIP3    H2 5905   2.108   2.527   0.373 -0.2428 -0.4532 -1.0426
 1967TIP3   OH2 5906   3.035   5.423   3.403 -0.3156 -0.1423  0.3176
 1967TIP3    H1 5907   3.121   5.382   3.411 -0.2131 -0.2737 -1.2635
 1967TIP3    H2 5908   2.977   5.353   3.374 -0.7930  0.1310  0.6043
 1968TIP3   OH2 5909   0.774   2.536   4.425 -0.1507  0.3050 -0.2778
 1968TIP3    H1 5910   0.734   2.612   4.384  1.2724  0.1143 -2.1567
 1968TIP3    H2 5911   0.810   2.485   4.352 -1.1638 -2.2647  0.8830
 1969TIP3   OH2 5912   2.853   5.833   0.415 -0.2778 -0.3934  0.3928
 1969TIP3    H1 5913   2.941   5.869   0.425  1.0545 -3.2376 -0.2875
 1969TIP3    H2 5914   2.833   5.843   0.322  0.0117 -1.1868  0.2413
 1970TIP3   OH2 5915   5.877   1.799   4.669  0.1892  0.1090 -0.3254
 1970TIP3    H1 5916   5.917   1.875   4.628  0.0331 -0.6471 -1.9493
 1970TIP3    H2 5917   5.783   1.808   4.653  0.1378 -0.2678 -0.2672
 1971TIP3   OH2 5918   4.473   3.147   1.676 -0.8749 -0.1818  0.0858
 1971TIP3    H1 5919   4.503   3.202   1.604  0.5988 -1.2745 -0.1939
 1971TIP3    H2 5920   4.439   3.208   1.741  0.1344  1.0103 -0.4661
 1972TIP3   OH2 5921   3.429   2.432   2.389  0.1058 -0.3047 -0.3654
 1972TIP3    H1 5922   3.510   2.445   2.340  2.0181 -2.5237  1.9330
 1972TIP3    H2 5923   3.369   2.391   2.326  2.1449 -2.1911 -1.2087
 1973TIP3   OH2 5924   0.666   2.105   4.755  0.1330  0.0167 -0.3951
 1973TIP3    H1 5925   0.741   2.122   4.697  0.0442  1.3360 -0.1700
 1973TIP3    H2 5926   0.609   2.182   4.743 -0.3040 -0.0989  0.7900
 1974TIP3   OH2 5927   1.390   1.098   2.578  0.5761 -0.1913  0.8792
 1974TIP3    H1 5928   1.415   1.140   2.660 -0.1723 -0.6962  1.3716
 1974TIP3    H2 5929   1.303   1.134   2.559  0.4133 -0.6692  0.7170
 1975TIP3   OH2 5930   4.405   4.246   0.276  0.0223  0.5381 -0.5580
 1975TIP3    H1 5931   4.326   4.195   0.295  1.2030 -1.2430 -0.1604
 1975TIP3    H2 5932   4.427   4.225   0.185  0.2388  0.7491 -0.5576
 1976TIP3   OH2 5933   0.801   5.563   2.231 -0.0264 -0.2079 -0.5924
 1976TIP3    H1 5934   0.722   5.617   2.236  0.5090  0.6492 -1.0439
 1976TIP3    H2 5935   0.810   5.524   2.318 -0.2504  0.6966 -0.1517
 1977TIP3   OH2 5936   5.937   4.511   1.656 -0.0827  0.1033 -0.0141
 1977TIP3    H1 5937   5.971   4.453   1.725  0.4934  0.5051  0.0499
 1977TIP3    H2 5938   5.844   4.520   1.677 -0.4867 -1.7966 -0.7448
 1978TIP3   OH2 5939   0.068   3.886   3.300  0.0294  0.2956  0.1712
 1978TIP3    H1 5940   0.162   3.902   3.293 -0.0727  1.7538  1.5974
 1978TIP3    H2 5941   0.035   3.892   3.210  0.9249  2.4724 -0.0607
 1979TIP3   OH2 5942   2.436   2.023   3.719  0.2274  0.6841  0.1725
 1979TIP3    H1 5943   2.395   1.936   3.721  0.7268  0.2804 -2.7177
 1979TIP3    H2 5944   2.524   2.009   3.754  0.3856 -0.0631 -0.4831
 1980TIP3   OH2 5945   3.656   0.123   2.146 -0.2126  0.5510  0.0503
 1980TIP3    H1 5946   3.745   0.143   2.175 -0.0811 -0.4817  0.3829
 1980TIP3    H2 5947   3.658   0.030   2.125 -1.1112  0.6155 -0.3605
 1981TIP3   OH2 5948   5.727   2.190   5.072  0.2052 -0.0952 -0.0195
 1981TIP3    H1 5949   5.694   2.118   5.126 -1.6088 -1.1827 -2.3850
 1981TIP3    H2 5950   5.815   2.162   5.046  0.1431 -0.6967  0.3949
 1982TIP3   OH2 5951   5.004   2.701   0.278  0.3615  0.2157 -0.4678
 1982TIP3    H1 5952   4.968   2.740   0.358 -0.1508  0.4854 -0.8301
 1982TIP3    H2 5953   4.972   2.610   0.279  1.4934 -0.1949  0.3375
 1983TIP3   OH2 5954   1.116   3.951   1.423  0.1542  0.0249  0.3981
 1983TIP3    H1 5955   1.094   3.858   1.433  0.3408  0.1534  2.4211
 1983TIP3    H2 5956   1.182   3.967   1.490 -1.2852  2.0629  1.4440
 1984TIP3   OH2 5957   2.455   5.694   3.376 -0.0477  0.1798 -0.1050
 1984TIP3    H1 5958   2.504   5.637   3.317 -1.3374  0.9222 -2.0022
 1984TIP3    H2 5959   2.519   5.758   3.407  0.3285  0.9318 -2.2622
 1985TIP3   OH2 5960   4.676   3.088   1.080  0.0537  0.1988  0.2872
 1985TIP3    H1 5961   4.688   3.045   0.996  0.0791  1.3243 -0.2932
 1985TIP3    H2 5962   4.698   3.180   1.065  0.5911  0.3282  1.6472
 1986TIP3   OH2 5963   0.032   3.770   3.639 -0.9201 -0.1594  0.3337
 1986TIP3    H1 5964   0.107   3.799   3.587 -0.4132 -1.6068  0.2254
 1986TIP3    H2 5965   0.056   3.790   3.730  0.2764 -1.9403  0.4566
 1987TIP3   OH2 5966   6.369   5.325   2.068 -0.4843  0.3370 -0.4857
 1987TIP3    H1 5967   6.282   5.354   2.097 -0.2859  0.3763  0.0760
 1987TIP3    H2 5968   6.356   5.234   2.041 -0.9683  0.7243 -1.6321
 1988TIP3   OH2 5969   3.764   5.314   3.308  0.2404  0.4219 -0.0112
 1988TIP3    H1 5970   3.679   5.276   3.329 -0.0707  1.3609  0.4827
 1988TIP3    H2 5971   3.793   5.266   3.231 -1.2769  0.8804 -0.9057
 1989TIP3   OH2 5972   2.147   4.649   4.852  0.0783 -0.0620  0.2101
 1989TIP3    H1 5973   2.215   4.632   4.787  0.2435 -0.5710  0.5057
 1989TIP3    H2 5974   2.068   4.611   4.814  0.4237 -1.4889  0.8200
 1990TIP3   OH2 5975   3.575   0.403   4.574  0.7001 -0.1156  0.1938
 1990TIP3    H1 5976   3.523   0.338   4.621 -2.0785 -0.4225 -2.9473
 1990TIP3    H2 5977   3.659   0.405   4.620 -1.4161 -0.8194  4.6214
 1991TIP3   OH2 5978   5.095   3.395   0.474 -0.6733 -0.0467  0.4701
 1991TIP3    H1 5979   5.095   3.307   0.438  0.3806  0.5302 -1.0437
 1991TIP3    H2 5980   5.015   3.435   0.440 -1.1133 -0.3728  1.0959
 1992TIP3   OH2 5981   3.471   4.376   5.023 -0.1453  0.2988  1.1088
 1992TIP3    H1 5982   3.385   4.363   4.984 -0.2663  0.5560  1.2799
 1992TIP3    H2 5983   3.533   4.347   4.957 -0.3114  1.6197  0.3443
 1993TIP3   OH2 5984   0.762   2.424   2.240 -0.1359  0.2162 -0.0485
 1993TIP3    H1 5985   0.794   2.512   2.219 -0.9057  0.5065 -0.0120
 1993TIP3    H2 5986   0.832   2.386   2.293  1.9975 -0.6419 -3.1818
 1994TIP3   OH2 5987   1.027   3.353   4.419 -0.8732 -0.2355  0.6399
 1994TIP3    H1 5988   0.936   3.349   4.450 -1.4590 -1.4743 -1.0483
 1994TIP3    H2 5989   1.052   3.261   4.409  0.1786  0.1087  0.0023
 1995TIP3   OH2 5990   5.896   4.138   4.957  0.7148  0.4153 -0.3107
 1995TIP3    H1 5991   5.805   4.153   4.981  0.0372 -1.4649 -1.4056
 1995TIP3    H2 5992   5.897   4.146   4.861  1.0939 -2.0153 -0.5793
 1996TIP3   OH2 5993   2.796   0.860   2.792 -0.0453  0.4030 -0.3745
 1996TIP3    H1 5994   2.812   0.803   2.867 -1.1091 -0.8527 -1.0659
 1996TIP3    H2 5995   2.781   0.947   2.830  0.2422 -0.0412  0.7905
 1997TIP3   OH2 5996   0.060   1.808   3.442  0.3667  0.1277  0.5467
 1997TIP3    H1 5997   0.045   1.775   3.354  1.1763  0.9429  0.0773
 1997TIP3    H2 5998   0.053   1.731   3.499  1.5089 -0.7346 -0.4239
 1998TIP3   OH2 5999   2.175   3.223   4.041  0.1830 -0.8566 -0.1634
 1998TIP3    H1 6000   2.225   3.230   4.123 -0.8210 -2.7070  0.6844
 1998TIP3    H2 6001   2.087   3.253   4.064  0.0721 -0.7085 -0.7660
 1999TIP3   OH2 6002   5.719   5.597   4.803 -0.8718  0.4144  0.3743
 1999TIP3    H1 6003   5.743   5.547   4.881 -1.2254  0.2141  0.3569
 1999TIP3    H2 6004   5.709   5.531   4.734  0.4564  0.6831 -0.1063
 2000TIP3   OH2 6005   0.586   0.078   2.371 -0.3907  0.0333  0.2236
 2000TIP3    H1 6006   0.668   0.031   2.358  0.3714  1.2755  0.4319
 2000TIP3    H2 6007   0.518   0.016   2.342  0.4816 -1.5877  1.4774
 2001TIP3   OH2 6008   2.651   0.382   1.756 -0.0468 -0.4226 -0.0575
 2001TIP3    H1 6009   2.719   0.426   1.807  0.6511  0.4679 -1.6936
 2001TIP3    H2 6010   2.585   0.357   1.821  0.2751  1.6235  1.1413
 2002TIP3   OH2 6011   2.666   0.183   0.454 -0.1620  0.1455  0.2164
 2002TIP3    H1 6012   2.631   0.202   0.367 -0.0658 -1.0345 -0.1097
 2002TIP3    H2 6013   2.704   0.266   0.484 -1.6002  0.9756 -0.1793
 2003TIP3   OH2 6014   6.015   5.709   0.455  0.1927  0.3816 -0.4830
 2003TIP3    H1 6015   5.966   5.748   0.382  0.2409  1.1780 -0.0959
 2003TIP3    H2 6016   6.106   5.736   0.439  0.4943 -0.8907 -1.0664
 2004TIP3   OH2 6017   4.279   3.244   1.413 -0.4168  0.1821 -0.2395
 2004TIP3    H1 6018   4.300   3.151   1.418 -1.2885 -0.0221 -0.2026
 2004TIP3    H2 6019   4.312   3.271   1.328  0.2129 -0.0595 -0.0786
 2005TIP3   OH2 6020   5.293   5.402   5.106 -0.2748 -0.3377 -0.0685
 2005TIP3    H1 6021   5.386   5.378   5.105 -0.2103 -0.2705  1.5589
 2005TIP3    H2 6022   5.249   5.324   5.140 -0.4854  0.5111  1.7068
 2006TIP3   OH2 6023   1.808   1.390   3.185  0.2207  0.1649  0.2285
 2006TIP3    H1 6024   1.776   1.304   3.213 -0.2977  0.5614  0.8908
 2006TIP3    H2 6025   1.771   1.402   3.098 -0.0654 -0.1017  0.3101
 2007TIP3   OH2 6026   4.993   3.697   2.493 -0.0410 -0.1689 -0.0465
 2007TIP3    H1 6027   5.030   3.734   2.413  0.0506  0.0165  0.0788
 2007TIP3    H2 6028   4.900   3.719   2.489  0.2063  1.1090  0.5771
 2008TIP3   OH2 6029   2.696   4.098   2.105 -0.5920  0.1457  0.5647
 2008TIP3    H1 6030   2.715   4.188   2.133  1.0656  0.4789 -1.3356
 2008TIP3    H2 6031   2.632   4.108   2.034  0.3027 -0.0573 -0.2918
 2009TIP3   OH2 6032   3.706   3.285   4.860  0.1550 -0.0566 -0.0238
 2009TIP3    H1 6033   3.676   3.314   4.946 -0.4055 -0.7985  0.0374
 2009TIP3    H2 6034   3.651   3.333   4.798 -0.9085 -1.0741  0.0812
 2010TIP3   OH2 6035   3.515   3.640   1.385  0.0258 -0.2883 -0.0695
 2010TIP3    H1 6036   3.470   3.564   1.347 -2.7359  1.2464 -0.1355
 2010TIP3    H2 6037   3.463   3.663   1.462  0.7514  1.5137 -0.0603
 2011TIP3   OH2 6038   5.686   4.409   1.538  0.4690  0.2864 -0.9216
 2011TIP3    H1 6039   5.755   4.346   1.519 -1.9813 -2.4904 -1.4607
 2011TIP3    H2 6040   5.674   4.405   1.632 -1.4327 -2.3135 -1.1567
 2012TIP3   OH2 6041   1.742   4.466   5.071  0.2206  0.2777 -0.0168
 2012TIP3    H1 6042   1.772   4.376   5.066 -0.6080 -0.0115  0.0332
 2012TIP3    H2 6043   1.660   4.467   5.021  0.9720  1.3488 -1.2882
 2013TIP3   OH2 6044   2.593   0.818   1.066  0.2679  0.0824  0.3346
 2013TIP3    H1 6045   2.657   0.781   1.006 -1.6482 -1.1055 -1.0796
 2013TIP3    H2 6046   2.631   0.804   1.153  1.6159 -1.1755 -0.4148
 2014TIP3   OH2 6047   2.209   2.961   2.433 -0.4026 -0.1885  0.3345
 2014TIP3    H1 6048   2.262   2.915   2.368 -1.0860  0.1817 -0.5106
 2014TIP3    H2 6049   2.224   3.054   2.416 -2.1361 -0.0408 -0.6701
 2015TIP3   OH2 6050   2.497   1.517   2.187  0.5121 -0.0491  0.6509
 2015TIP3    H1 6051   2.452   1.595   2.156  0.6516 -0.1859  0.0862
 2015TIP3    H2 6052   2.588   1.544   2.196  0.9076 -0.5645 -1.2059
 2016TIP3   OH2 6053   6.123   3.017   4.156  0.3460 -0.0949 -0.3360
 2016TIP3    H1 6054   6.145   3.040   4.066 -1.3503  1.7145 -0.3375
 2016TIP3    H2 6055   6.039   2.971   4.150  0.8178 -1.0808  0.2467
 2017TIP3   OH2 6056   3.633   2.021   1.514  0.1888  0.0473 -0.1302
 2017TIP3    H1 6057   3.728   2.023   1.504  0.4129 -1.0555  1.3839
 2017TIP3    H2 6058   3.615   1.938   1.559 -1.7764 -1.1134 -2.7499
 2018TIP3   OH2 6059   3.388   1.245   0.690  0.4105  0.3414 -0.5836
 2018TIP3    H1 6060   3.476   1.272   0.664 -0.1908  0.5914 -2.5309
 2018TIP3    H2 6061   3.350   1.209   0.610 -1.1509 -0.0708  0.3117
 2019TIP3   OH2 6062   2.748   5.226   0.255  0.1295  0.7039  0.2544
 2019TIP3    H1 6063   2.668   5.271   0.231 -0.1165 -0.0863 -0.4629
 2019TIP3    H2 6064   2.811   5.248   0.186  0.0188  0.0058 -0.0809
 2020TIP3   OH2 6065   3.666   2.340   1.529  0.0870 -0.0176 -0.2182
 2020TIP3    H1 6066   3.651   2.274   1.597  1.2150 -0.6116 -0.5166
 2020TIP3    H2 6067   3.650   2.423   1.573 -0.3989 -0.4485  0.4394
 2021TIP3   OH2 6068   3.637   1.337   4.640  0.0906 -1.0354  0.3276
 2021TIP3    H1 6069   3.706   1.386   4.596 -0.3712  1.0264  1.6986
 2021TIP3    H2 6070   3.560   1.394   4.633 -0.6357 -1.8352  1.4775
 2022TIP3   OH2 6071   0.053   3.864   0.769 -0.3340 -0.3042  0.1436
 2022TIP3    H1 6072   0.069   3.775   0.799 -0.4637 -0.5190 -0.4085
 2022TIP3    H2 6073  -0.008   3.854   0.696  1.4636  0.0271 -1.4785
 2023TIP3   OH2 6074   2.987   0.064   4.198  0.6009  0.7977 -0.4404
 2023TIP3    H1 6075   2.969   0.139   4.254  0.9219 -0.8052  1.9739
 2023TIP3    H2 6076   2.920  -0.000   4.220  2.2987 -0.8894  0.1256
 2024TIP3   OH2 6077   4.336   0.707   2.409  0.5131 -0.7098  0.4870
 2024TIP3    H1 6078   4.352   0.796   2.440  2.0008 -0.8656  0.2236
 2024TIP3    H2 6079   4.291   0.664   2.482  1.1100 -0.1639  1.1945
 2025TIP3   OH2 6080   1.629   1.873   0.229 -0.5012 -0.4754 -0.5392
 2025TIP3    H1 6081   1.625   1.930   0.305 -0.5957  0.9557 -1.5860
 2025TIP3    H2 6082   1.716   1.889   0.191 -0.9640 -0.1269 -1.4969
 2026TIP3   OH2 6083   1.425   2.929   2.977 -0.0275 -0.2380  0.4569
 2026TIP3    H1 6084   1.351   2.923   3.038 -0.1968  1.4149  0.4591
 2026TIP3    H2 6085   1.500   2.947   3.033  0.1358 -0.5200  0.3288
 2027TIP3   OH2 6086   0.111   5.373   4.567 -0.7975  0.5495  0.3333
 2027TIP3    H1 6087   0.073   5.362   4.479  1.0334  0.6685 -0.5056
 2027TIP3    H2 6088   0.080   5.297   4.615  1.1664 -1.6152 -1.5591
 2028TIP3   OH2 6089   4.760   1.103   0.886 -0.3688 -0.2331  0.6744
 2028TIP3    H1 6090   4.792   1.096   0.976  0.5979  0.5801  0.4217
 2028TIP3    H2 6091   4.807   1.034   0.839 -0.3283 -0.1913  0.6535
 2029TIP3   OH2 6092   2.658   0.497   1.511  0.2726  0.3075 -0.1040
 2029TIP3    H1 6093   2.662   0.419   1.455  1.8316  0.0458  0.3441
 2029TIP3    H2 6094   2.647   0.462   1.600 -1.3259  0.6991 -0.1056
 2030TIP3   OH2 6095   3.639   2.527   0.184 -0.0640  0.9903  0.1261
 2030TIP3    H1 6096   3.570   2.581   0.223  0.0645  0.4635  1.1143
 2030TIP3    H2 6097   3.599   2.440   0.173 -0.1098  1.1333 -0.9801
 2031TIP3   OH2 6098   6.313   0.076   4.448 -0.2761  0.0121  0.8439
 2031TIP3    H1 6099   6.278   0.010   4.389 -0.4634  0.2564  0.6830
 2031TIP3    H2 6100   6.407   0.059   4.450 -0.2377  0.1498  0.2927
 2032TIP3   OH2 6101   1.937   0.313   5.169 -0.2499  0.9035  0.5104
 2032TIP3    H1 6102   2.020   0.295   5.125 -1.0145 -2.6858  0.3064
 2032TIP3    H2 6103   1.872   0.262   5.121 -2.0016  0.9327  2.7059
 2033TIP3   OH2 6104   5.582   5.736   3.790  0.2462  0.1913  0.1951
 2033TIP3    H1 6105   5.530   5.706   3.716  0.2409  2.7284 -0.9502
 2033TIP3    H2 6106   5.518   5.769   3.853  0.3262 -0.0656  0.4105
 2034TIP3   OH2 6107   1.431   4.644   1.464  0.4536 -0.0094 -0.1752
 2034TIP3    H1 6108   1.420   4.733   1.429 -1.0998  0.8542  2.2168
 2034TIP3    H2 6109   1.517   4.646   1.507  0.7623  0.0767 -0.7904
 2035TIP3   OH2 6110   0.102   3.411   2.414  0.0229  0.3872  1.1347
 2035TIP3    H1 6111   0.080   3.427   2.506 -0.3349 -1.2478  1.3540
 2035TIP3    H2 6112   0.071   3.323   2.396  0.1050  0.6684 -0.5700
 2036TIP3   OH2 6113   1.275   5.384   4.812 -0.3599 -0.1767 -0.5530
 2036TIP3    H1 6114   1.219   5.405   4.737 -1.3608 -1.4435 -0.2006
 2036TIP3    H2 6115   1.267   5.460   4.870  0.0713  0.6184 -1.5137
 2037TIP3   OH2 6116   4.619   2.971   0.296 -0.3243  0.1568 -0.0954
 2037TIP3    H1 6117   4.615   3.005   0.385  0.9719 -2.1615  0.9249
 2037TIP3    H2 6118   4.623   3.049   0.241  0.7840  1.6644  1.9866
 2038TIP3   OH2 6119   4.407   2.527   0.069 -0.1444  0.0346 -0.8181
 2038TIP3    H1 6120   4.482   2.471   0.051  2.6753  2.6069  1.6128
 2038TIP3    H2 6121   4.404   2.587  -0.006  1.9899  1.4449  0.1030
 2039TIP3   OH2 6122   2.435   5.596   3.740 -0.2370  0.3580  0.2171
 2039TIP3    H1 6123   2.382   5.610   3.818  2.2084  2.1551  1.6840
 2039TIP3    H2 6124   2.395   5.652   3.673 -1.1079  0.4548  0.8035
 2040TIP3   OH2 6125   2.754   3.768   1.213  0.1829 -0.0245  0.1087
 2040TIP3    H1 6126   2.781   3.697   1.155 -0.1089 -0.0388 -0.0124
 2040TIP3    H2 6127   2.773   3.736   1.301  2.5637  0.8026 -0.0334
 2041TIP3   OH2 6128   1.853   1.299   3.702 -0.0045 -0.5074 -0.7788
 2041TIP3    H1 6129   1.806   1.355   3.764  1.2374 -0.8179  0.5004
 2041TIP3    H2 6130   1.887   1.359   3.636  0.8410  0.1980  0.2687
 2042TIP3   OH2 6131   4.209   5.394   3.544 -0.1375 -0.3150 -0.1753
 2042TIP3    H1 6132   4.175   5.440   3.467 -0.2803 -0.2382 -0.0653
 2042TIP3    H2 6133   4.255   5.318   3.507  0.9883  0.4602 -0.4151
 2043TIP3   OH2 6134   5.921   0.382   2.153  0.3319  1.3717 -0.3112
 2043TIP3    H1 6135   5.924   0.405   2.060 -0.5027  2.9130  0.0099
 2043TIP3    H2 6136   5.834   0.343   2.165  0.8084  0.2675 -0.3544
 2044TIP3   OH2 6137   1.362   2.641   0.634 -0.0225 -0.2482 -0.4274
 2044TIP3    H1 6138   1.310   2.697   0.577  1.6011  2.6807  0.7417
 2044TIP3    H2 6139   1.310   2.636   0.715 -0.3035 -0.6923 -0.6334
 2045TIP3   OH2 6140   4.248   1.025   4.641  0.0365 -0.2574 -0.0961
 2045TIP3    H1 6141   4.211   1.098   4.692  0.6256  1.3372 -1.8347
 2045TIP3    H2 6142   4.188   1.013   4.568  0.2668 -1.1149 -0.1524
 2046TIP3   OH2 6143   4.414   5.316   4.749 -0.2218  0.3421 -0.1924
 2046TIP3    H1 6144   4.468   5.390   4.776 -0.1824  0.8633 -1.5785
 2046TIP3    H2 6145   4.434   5.305   4.656 -2.3593  0.4581 -0.7389
 2047TIP3   OH2 6146   2.289   3.499   4.329  0.0970  0.2343  0.7711
 2047TIP3    H1 6147   2.311   3.433   4.394  0.4160  0.0371  0.4692
 2047TIP3    H2 6148   2.194   3.505   4.332  0.0686 -0.2201  0.8225
 2048TIP3   OH2 6149   5.850   4.178   1.034  0.1344  0.2407 -0.0729
 2048TIP3    H1 6150   5.820   4.102   0.984  1.5934  0.6637 -1.6912
 2048TIP3    H2 6151   5.906   4.227   0.973 -0.9576  2.7876  0.8266
 2049TIP3   OH2 6152   3.630   5.392   0.747 -0.3245  0.5363 -0.6100
 2049TIP3    H1 6153   3.718   5.411   0.778 -0.2883 -0.2004 -0.2238
 2049TIP3    H2 6154   3.625   5.296   0.747 -1.0210  0.5636 -0.9177
 2050TIP3   OH2 6155   1.705   1.718   0.980  0.1725 -0.1493  0.2052
 2050TIP3    H1 6156   1.660   1.648   0.932  0.2615 -1.3399  1.7560
 2050TIP3    H2 6157   1.789   1.679   1.005  0.5510  0.7975  0.4472
 2051TIP3   OH2 6158   3.778   2.373   1.085  0.1419  0.3233  0.4510
 2051TIP3    H1 6159   3.682   2.374   1.088  0.0403 -1.8513 -0.0445
 2051TIP3    H2 6160   3.803   2.316   1.158  0.8852 -1.0134 -0.7849
 2052TIP3   OH2 6161   3.266   4.054   2.435 -0.4629  0.1363 -0.0777
 2052TIP3    H1 6162   3.310   3.983   2.389 -2.3329 -0.5438 -0.9146
 2052TIP3    H2 6163   3.212   4.011   2.501 -1.6262  0.7617 -0.5996
 2053TIP3   OH2 6164   3.469   0.611   1.815  0.3100  0.1258 -0.4569
 2053TIP3    H1 6165   3.505   0.685   1.863 -0.0838 -1.5623  2.6803
 2053TIP3    H2 6166   3.387   0.590   1.859 -1.0635 -0.4972 -3.0604
 2054TIP3   OH2 6167   4.308   4.809   0.467  0.2692 -0.3008 -0.1770
 2054TIP3    H1 6168   4.304   4.727   0.417 -1.7597  0.2846 -1.1017
 2054TIP3    H2 6169   4.372   4.862   0.419  0.6055 -0.8591 -0.3594
 2055TIP3   OH2 6170   0.978   1.786   3.720 -0.9687 -0.0699  0.0355
 2055TIP3    H1 6171   0.945   1.857   3.664 -0.1618 -0.6335 -1.2116
 2055TIP3    H2 6172   0.907   1.722   3.721 -0.8587 -0.2156 -0.6671
 2056TIP3   OH2 6173   3.608   0.143   0.279  0.0273 -0.1681  0.1304
 2056TIP3    H1 6174   3.606   0.136   0.375 -1.9524  0.4833  0.1856
 2056TIP3    H2 6175   3.612   0.052   0.249  1.4706 -0.3526  0.8033
 2057TIP3   OH2 6176   3.085   2.902   0.158  0.6446  0.8149  0.6058
 2057TIP3    H1 6177   3.127   2.980   0.121  0.7227  0.3721 -0.2530
 2057TIP3    H2 6178   3.111   2.830   0.100 -0.2549  0.3154  0.8004
 2058TIP3   OH2 6179   1.102   0.828   4.831 -0.4995  0.4897  0.2178
 2058TIP3    H1 6180   1.193   0.807   4.808 -0.8192 -1.6323  0.6690
 2058TIP3    H2 6181   1.104   0.843   4.925 -1.1461 -3.7727  1.1181
 2059TIP3   OH2 6182   3.717   3.196   0.473  0.0274  0.5087 -0.0653
 2059TIP3    H1 6183   3.805   3.225   0.496 -0.0390  0.1190  0.7299
 2059TIP3    H2 6184   3.693   3.135   0.543 -1.6083  2.0391  0.7767
 2060TIP3   OH2 6185   0.551   3.420   2.640 -0.0526 -0.0443  0.0105
 2060TIP3    H1 6186   0.554   3.325   2.631 -0.4285 -0.1842  1.1255
 2060TIP3    H2 6187   0.514   3.434   2.727 -1.6294  1.1499 -0.8025
 2061TIP3   OH2 6188   0.264   5.706   0.352 -0.1083 -0.4153 -0.0476
 2061TIP3    H1 6189   0.340   5.760   0.375 -1.0124 -0.1218  2.5763
 2061TIP3    H2 6190   0.230   5.745   0.272  1.5463  0.4244 -0.3971
 2062TIP3   OH2 6191   0.273   1.489   1.298  0.3959  0.3387 -0.3582
 2062TIP3    H1 6192   0.298   1.533   1.217  2.7438  1.2509  0.7762
 2062TIP3    H2 6193   0.351   1.493   1.353 -1.2569  0.1959  2.1547
 2063TIP3   OH2 6194   3.278   2.153   2.216 -0.3940  0.1270  0.0921
 2063TIP3    H1 6195   3.361   2.110   2.195 -1.0051 -0.7474 -0.5923
 2063TIP3    H2 6196   3.226   2.086   2.259 -0.8192  0.6168  0.3575
 2064TIP3   OH2 6197   5.037   0.962   1.951 -0.0617  1.0877  0.1135
 2064TIP3    H1 6198   4.974   0.890   1.944 -0.2251  1.3337 -1.3570
 2064TIP3    H2 6199   5.088   0.941   2.029 -1.3894  0.4277  0.8336
 2065TIP3   OH2 6200   5.364   0.132   4.194 -0.0005 -0.1735 -0.6498
 2065TIP3    H1 6201   5.378   0.117   4.101  0.1122 -1.2889 -0.4575
 2065TIP3    H2 6202   5.269   0.138   4.203 -0.0216 -0.2834 -0.7969
 2066TIP3   OH2 6203   4.732   4.700   4.390  0.3000  0.4613  0.0932
 2066TIP3    H1 6204   4.709   4.707   4.297 -0.9652  1.3513  0.4435
 2066TIP3    H2 6205   4.667   4.640   4.426  1.3691 -0.6423  0.2439
 2067TIP3   OH2 6206   2.877   2.452   2.244 -0.2258  0.2910  0.2923
 2067TIP3    H1 6207   2.953   2.429   2.297  0.4776 -0.1652 -0.8770
 2067TIP3    H2 6208   2.805   2.403   2.284  0.0088  0.9442  1.5813
 2068TIP3   OH2 6209   0.676   3.487   3.033 -0.3738  0.1832 -0.1987
 2068TIP3    H1 6210   0.608   3.534   3.081  0.1826  1.1939 -0.3730
 2068TIP3    H2 6211   0.719   3.554   2.979  2.0302  0.0014  1.3255
 2069TIP3   OH2 6212   1.990   5.778   1.128 -0.4012 -0.0777 -0.1287
 2069TIP3    H1 6213   1.938   5.769   1.208 -0.9656  0.3176 -0.4412
 2069TIP3    H2 6214   2.061   5.838   1.152 -0.4406 -0.1352  0.1349
 2070TIP3   OH2 6215   6.202   4.266   1.059 -0.1674 -0.4790  0.1191
 2070TIP3    H1 6216   6.141   4.264   0.986  0.0453  0.5675 -0.1104
 2070TIP3    H2 6217   6.149   4.288   1.135  0.0714  1.7966 -0.3027
 2071TIP3   OH2 6218   5.985   5.955   4.354 -0.4847  0.0667  0.5895
 2071TIP3    H1 6219   6.070   5.937   4.394 -0.0506  1.8974  0.5860
 2071TIP3    H2 6220   5.922   5.945   4.425 -0.0933  0.0924  0.9442
 2072TIP3   OH2 6221   6.127   5.214   4.514 -0.0517  0.1057 -0.3034
 2072TIP3    H1 6222   6.211   5.188   4.477  0.4543  2.8870 -1.3411
 2072TIP3    H2 6223   6.123   5.169   4.599  1.5333 -1.6469 -1.0927
 2073TIP3   OH2 6224   6.061   4.208   0.825  0.2970  0.3294 -0.0997
 2073TIP3    H1 6225   6.039   4.123   0.787  0.3815  0.3345 -0.1589
 2073TIP3    H2 6226   6.075   4.266   0.750 -1.2108  0.7695 -0.0799
 2074TIP3   OH2 6227   1.996   5.518   3.834  0.0995  0.7343  0.1577
 2074TIP3    H1 6228   2.013   5.439   3.885  0.5816  0.2213 -0.7790
 2074TIP3    H2 6229   1.938   5.570   3.890  0.1301 -0.0754  0.9721
 2075TIP3   OH2 6230   4.962   1.292   3.030 -0.3836 -0.6120 -0.3967
 2075TIP3    H1 6231   4.924   1.246   3.105 -1.4543  0.2590 -0.3762
 2075TIP3    H2 6232   4.952   1.385   3.052 -0.6384 -0.3484 -1.5851
 2076TIP3   OH2 6233  -0.000   4.485   0.882 -0.1669 -0.2827  0.6300
 2076TIP3    H1 6234  -0.012   4.403   0.930 -0.2100 -0.7838 -0.2193
 2076TIP3    H2 6235   0.024   4.549   0.949  1.2800 -1.3009  1.1291
 2077TIP3   OH2 6236   3.486   2.429   1.325 -0.1891 -0.5518  0.2423
 2077TIP3    H1 6237   3.437   2.501   1.364 -0.6983 -0.3211 -0.7776
 2077TIP3    H2 6238   3.533   2.389   1.398  1.0886  1.5564  0.6389
 2078TIP3   OH2 6239   5.053   0.272   3.653  0.5934 -0.0889  0.2634
 2078TIP3    H1 6240   5.054   0.269   3.749  1.1086 -0.9015  0.2385
 2078TIP3    H2 6241   4.966   0.307   3.631  0.0598 -0.9185  1.0064
 2079TIP3   OH2 6242   1.194   3.502   4.247 -0.7700 -0.0965 -0.5999
 2079TIP3    H1 6243   1.260   3.562   4.280  2.4450 -2.1628 -2.7681
 2079TIP3    H2 6244   1.151   3.469   4.326  0.7222  1.3931  0.9183
 2080TIP3   OH2 6245   3.199   2.979   4.411  0.3626  0.0896 -0.3891
 2080TIP3    H1 6246   3.282   2.951   4.372 -0.3481 -0.9018 -1.2388
 2080TIP3    H2 6247   3.153   3.024   4.340  0.2330  0.7933  0.1281
 2081TIP3   OH2 6248   0.512   3.175   1.395  0.2433  0.8462  0.2855
 2081TIP3    H1 6249   0.564   3.220   1.462  2.0851  1.5887 -1.5522
 2081TIP3    H2 6250   0.447   3.240   1.368 -2.1030 -0.2288  2.8986
 2082TIP3   OH2 6251   0.376   3.866   4.176  0.2289  0.2794  0.2027
 2082TIP3    H1 6252   0.403   3.802   4.110 -0.6367  1.5119 -1.4294
 2082TIP3    H2 6253   0.458   3.908   4.203  0.4364  1.6908 -2.2469
 2083TIP3   OH2 6254   3.381   1.516   4.342 -0.5333 -0.6843  0.3946
 2083TIP3    H1 6255   3.433   1.562   4.408 -0.4739 -2.9954  2.1211
 2083TIP3    H2 6256   3.295   1.558   4.344 -0.1004  0.1833  0.9304
 2084TIP3   OH2 6257   3.983   2.138   2.014  0.2920  0.1111 -0.0558
 2084TIP3    H1 6258   3.949   2.139   2.104  0.0350 -1.0863 -0.1223
 2084TIP3    H2 6259   4.044   2.211   2.011 -0.7209  1.0144  0.6869
 2085TIP3   OH2 6260   5.844   2.055   1.657 -0.1947  0.4868 -0.2397
 2085TIP3    H1 6261   5.769   2.107   1.628 -0.9271  0.8458  2.0428
 2085TIP3    H2 6262   5.828   2.040   1.751  1.3223 -1.6280 -0.2373
 2086TIP3   OH2 6263   0.359   1.014   4.610 -0.1751 -0.2557  0.2380
 2086TIP3    H1 6264   0.413   1.093   4.607  0.2955 -0.5712  0.2489
 2086TIP3    H2 6265   0.282   1.039   4.661  1.1576 -0.4922  2.5537
 2087TIP3   OH2 6266   5.645   3.328   1.329  0.1946  0.1804  0.5514
 2087TIP3    H1 6267   5.717   3.276   1.365  0.6593 -0.1901 -0.8729
 2087TIP3    H2 6268   5.609   3.373   1.406  1.3840 -0.2899  1.4321
 2088TIP3   OH2 6269   0.360   2.464   3.650  0.3558 -0.3780 -0.0033
 2088TIP3    H1 6270   0.356   2.441   3.743 -1.2428 -0.6663 -0.1180
 2088TIP3    H2 6271   0.454   2.469   3.630  0.7300  0.4752  1.8077
 2089TIP3   OH2 6272   4.923   2.093   1.534 -0.5557  0.2520  0.3930
 2089TIP3    H1 6273   4.885   2.079   1.620  0.7950 -1.9429  0.7012
 2089TIP3    H2 6274   4.962   2.009   1.510 -0.3272  0.9747 -2.0883
 2090TIP3   OH2 6275   4.461   5.783   0.147 -0.2983  0.2465 -0.2399
 2090TIP3    H1 6276   4.418   5.790   0.062 -1.2611  0.4671  0.2524
 2090TIP3    H2 6277   4.393   5.751   0.205  0.3734  0.0329  0.4353
 2091TIP3   OH2 6278   5.755   3.962   0.885  0.4185 -0.3160  0.6531
 2091TIP3    H1 6279   5.685   3.931   0.943  0.5607 -0.4942  0.7309
 2091TIP3    H2 6280   5.760   3.896   0.816  0.7026 -0.4511  0.8029
 2092TIP3   OH2 6281   3.256   4.930   4.765  0.1153 -0.0735  0.0452
 2092TIP3    H1 6282   3.315   4.965   4.832 -0.1842 -0.4124  0.4907
 2092TIP3    H2 6283   3.173   4.975   4.780  0.7816  1.9347 -1.8789
 2093TIP3   OH2 6284   1.804   3.132   4.534 -0.2304  0.0082 -0.2598
 2093TIP3    H1 6285   1.735   3.068   4.517 -0.7435  0.2007  0.9928
 2093TIP3    H2 6286   1.843   3.104   4.616  0.5284  0.4682 -0.4560
 2094TIP3   OH2 6287   4.094   2.251   0.710  0.9191  0.7742  0.0316
 2094TIP3    H1 6288   4.141   2.184   0.759  0.6236  0.4960 -0.0610
 2094TIP3    H2 6289   4.041   2.296   0.776  1.0348  0.8438  0.0765
 2095TIP3   OH2 6290   5.386   4.283   4.797  0.3796 -0.3501 -0.4846
 2095TIP3    H1 6291   5.468   4.237   4.776 -0.1138 -1.0309 -0.9569
 2095TIP3    H2 6292   5.329   4.266   4.722  0.1527  0.9859 -0.6255
 2096TIP3   OH2 6293   1.303   1.054   0.946 -0.1170  0.6407 -0.7345
 2096TIP3    H1 6294   1.272   1.089   1.030  2.2656 -0.4313  0.7247
 2096TIP3    H2 6295   1.269   0.964   0.943  0.9672  0.1829 -0.1475
 2097TIP3   OH2 6296   4.222   1.408   2.322 -0.2496  0.3299 -0.3449
 2097TIP3    H1 6297   4.277   1.350   2.376 -0.8638 -0.6211 -0.7207
 2097TIP3    H2 6298   4.173   1.349   2.265 -0.4931  1.2578 -1.1262
 2098TIP3   OH2 6299   4.127   3.582   0.769 -0.0918  0.7409  0.0566
 2098TIP3    H1 6300   4.096   3.585   0.678  1.6001  1.3006 -0.5418
 2098TIP3    H2 6301   4.222   3.571   0.762  0.2154  1.9364  1.7349
 2099TIP3   OH2 6302   4.831   4.366   4.452  0.2178 -0.1115 -0.1787
 2099TIP3    H1 6303   4.781   4.391   4.531  1.1439  0.9763  0.0894
 2099TIP3    H2 6304   4.917   4.341   4.486  0.8023  0.8997 -0.8857
 2100TIP3   OH2 6305   6.196   5.939   1.466 -0.1422  0.3323  0.3038
 2100TIP3    H1 6306   6.251   5.915   1.391 -0.2838  1.7106 -0.2618
 2100TIP3    H2 6307   6.112   5.897   1.448 -0.5241  1.5646 -0.8935
 2101TIP3   OH2 6308   2.159   2.954   2.878 -0.0938 -0.1157  0.3688
 2101TIP3    H1 6309   2.251   2.952   2.903  0.1244  1.5468 -0.2196
 2101TIP3    H2 6310   2.148   2.879   2.820  0.8471 -0.4198  0.5733
 2102TIP3   OH2 6311   1.234   0.503   3.000  0.0440  0.2782 -0.1081
 2102TIP3    H1 6312   1.195   0.512   3.087 -0.8480 -0.4298 -0.4218
 2102TIP3    H2 6313   1.327   0.488   3.017  0.0637  1.1636  0.6804
 2103TIP3   OH2 6314   4.989   5.082   5.152 -0.3913  0.2455  0.1116
 2103TIP3    H1 6315   4.933   5.013   5.187 -0.9658  0.8475  0.4040
 2103TIP3    H2 6316   4.928   5.145   5.115  0.1810 -0.5732 -2.4273
 2104TIP3   OH2 6317   4.352   0.673   4.112  0.0351 -0.1733 -0.1067
 2104TIP3    H1 6318   4.357   0.748   4.172 -0.9531 -1.7150  1.9954
 2104TIP3    H2 6319   4.443   0.660   4.085  0.3417  1.2841  0.0904
 2105TIP3   OH2 6320   5.449   2.158   3.724 -0.2482  0.2626  0.5041
 2105TIP3    H1 6321   5.360   2.123   3.732 -0.5703  1.3413  2.6084
 2105TIP3    H2 6322   5.445   2.218   3.650 -0.9780 -0.4939 -0.0865
 2106TIP3   OH2 6323   3.373   2.034   3.299 -0.2284 -0.3889 -0.1262
 2106TIP3    H1 6324   3.300   2.080   3.341 -0.6875 -0.1568 -1.1441
 2106TIP3    H2 6325   3.408   2.096   3.236 -0.3645 -1.1384 -0.9715
 2107TIP3   OH2 6326   3.481   2.879   2.114  0.0710  0.4988 -0.2066
 2107TIP3    H1 6327   3.483   2.830   2.196  1.6447 -0.0919 -0.5628
 2107TIP3    H2 6328   3.566   2.922   2.110  0.2615  0.0419 -1.8093
 2108TIP3   OH2 6329   0.886   0.085   4.553  0.0225 -0.4521  0.0437
 2108TIP3    H1 6330   0.862  -0.008   4.548  0.7405 -0.6381 -0.0366
 2108TIP3    H2 6331   0.953   0.089   4.622  2.4893 -0.5445 -2.2092
 2109TIP3   OH2 6332   2.459   1.509   1.090  0.6233  0.0724  0.4488
 2109TIP3    H1 6333   2.476   1.463   1.008  1.5868  1.1277  0.0261
 2109TIP3    H2 6334   2.496   1.597   1.077  0.8160  0.2620  2.0066
 2110TIP3   OH2 6335   4.555   5.552   4.844 -0.2629 -0.2984 -0.7398
 2110TIP3    H1 6336   4.525   5.555   4.935  0.2244  2.2455 -0.5950
 2110TIP3    H2 6337   4.509   5.624   4.801  0.3881 -0.7271 -2.2225
 2111TIP3   OH2 6338   4.227   3.711   2.004  0.1936  0.1692  0.0579
 2111TIP3    H1 6339   4.299   3.650   2.019  0.0021 -0.3035 -0.8453
 2111TIP3    H2 6340   4.222   3.763   2.084 -0.0786 -1.4468  1.1461
 2112TIP3   OH2 6341   1.202   2.541   3.655 -0.2850 -0.1370  0.0420
 2112TIP3    H1 6342   1.240   2.456   3.635  0.0448 -0.0642  0.3620
 2112TIP3    H2 6343   1.275   2.595   3.684 -0.8422 -0.4902  2.2882
 2113TIP3   OH2 6344   4.275   4.929   1.232 -0.1730  0.0153 -0.3161
 2113TIP3    H1 6345   4.327   4.850   1.248  0.2146  0.5140  1.0193
 2113TIP3    H2 6346   4.304   4.991   1.299 -1.9637  0.5727 -0.0057
 2114TIP3   OH2 6347   0.010   5.206   4.364  0.7291 -0.1629  0.3313
 2114TIP3    H1 6348   0.089   5.153   4.353  0.5549  0.0445 -3.1096
 2114TIP3    H2 6349   0.003   5.255   4.282 -2.7615  0.1106  0.6470
 2115TIP3   OH2 6350   5.585   5.576   3.294 -0.5967  0.4812 -0.9914
 2115TIP3    H1 6351   5.570   5.650   3.235  0.7524  1.4001 -0.2337
 2115TIP3    H2 6352   5.640   5.517   3.243 -1.6593 -0.0313 -1.5911
 2116TIP3   OH2 6353   0.084   1.599   3.617 -0.2173 -0.0621 -0.3595
 2116TIP3    H1 6354   0.050   1.542   3.549 -2.0080  0.1675  0.3061
 2116TIP3    H2 6355   0.112   1.540   3.687  0.9953 -0.2566 -0.9686
 2117TIP3   OH2 6356   4.849   0.563   1.395  0.2699  0.5798 -0.3464
 2117TIP3    H1 6357   4.936   0.526   1.382  0.6211  0.8340  1.1727
 2117TIP3    H2 6358   4.859   0.656   1.375  0.0923  0.4433 -1.1377
 2118TIP3   OH2 6359   4.581   3.071   2.742 -0.1707  0.1348 -0.2029
 2118TIP3    H1 6360   4.667   3.062   2.782 -0.2181  3.1937  0.8064
 2118TIP3    H2 6361   4.519   3.054   2.813 -0.4232 -0.9517 -0.6589
 2119TIP3   OH2 6362   1.283   5.083   4.347 -0.4356  0.1325  0.3630
 2119TIP3    H1 6363   1.293   5.137   4.425  0.2484 -0.6552  0.8250
 2119TIP3    H2 6364   1.217   5.018   4.371  0.7287 -0.9417  0.7680
 2120TIP3   OH2 6365   3.196   0.726   4.682 -0.1409 -0.3528  0.7391
 2120TIP3    H1 6366   3.139   0.756   4.612 -0.4696 -1.0300  0.7092
 2120TIP3    H2 6367   3.197   0.631   4.673 -2.1513 -0.6977  3.1321
 2121TIP3   OH2 6368   5.099   2.543   0.627 -0.0131 -0.2042 -1.0861
 2121TIP3    H1 6369   5.054   2.473   0.674 -1.7661 -0.4899 -3.0802
 2121TIP3    H2 6370   5.151   2.499   0.560  3.7950  0.0866  1.3644
 2122TIP3   OH2 6371   0.157   1.707   4.838  0.2420 -0.2860 -0.4619
 2122TIP3    H1 6372   0.188   1.619   4.856 -0.2173 -0.3721 -0.0941
 2122TIP3    H2 6373   0.221   1.742   4.775 -0.9658 -1.7924 -2.6815
 2123TIP3   OH2 6374   0.556   3.452   0.453  0.8061  0.1623  0.2063
 2123TIP3    H1 6375   0.494   3.459   0.381  0.6552  0.5987  0.3811
 2123TIP3    H2 6376   0.502   3.443   0.531  0.9480  1.1209  0.4248
 2124TIP3   OH2 6377   4.705   4.190   0.107 -0.6519  0.1396 -0.6663
 2124TIP3    H1 6378   4.716   4.097   0.088 -0.6461 -0.6233  2.5163
 2124TIP3    H2 6379   4.611   4.206   0.099 -0.7124 -0.2777 -0.7746
 2125TIP3   OH2 6380   3.760   4.937   2.754  0.7702 -0.3027  0.2940
 2125TIP3    H1 6381   3.719   4.877   2.691 -0.2457  1.4664 -0.8351
 2125TIP3    H2 6382   3.754   4.891   2.838 -3.1934 -0.4398  0.1554
 2126TIP3   OH2 6383   1.041   3.832   3.269  0.1667  0.7932  0.1099
 2126TIP3    H1 6384   0.957   3.787   3.265  1.2594 -1.2564 -1.2246
 2126TIP3    H2 6385   1.106   3.762   3.273  1.9154  2.2649 -0.9541
 2127TIP3   OH2 6386   5.675   2.286   2.372  1.0320  0.2188  0.0825
 2127TIP3    H1 6387   5.756   2.337   2.368  2.1880 -1.5227 -0.2608
 2127TIP3    H2 6388   5.694   2.218   2.437 -0.7481  0.6685  1.1393
 2128TIP3   OH2 6389   4.310   3.651   0.060 -0.5557 -0.2070 -1.1138
 2128TIP3    H1 6390   4.217   3.658   0.082 -0.3763 -1.7892  0.2908
 2128TIP3    H2 6391   4.318   3.568   0.014  0.2841 -0.4255 -0.5905
 2129TIP3   OH2 6392   1.469   0.428   4.255 -0.2304  0.3298 -0.3409
 2129TIP3    H1 6393   1.501   0.338   4.262 -1.5182  0.0035  2.1852
 2129TIP3    H2 6394   1.379   0.419   4.224 -0.5186  0.7114  0.3749
 2130TIP3   OH2 6395   5.654   1.937   4.085  0.0717 -0.1779  0.1607
 2130TIP3    H1 6396   5.739   1.970   4.056  1.1072 -2.9183 -0.2165
 2130TIP3    H2 6397   5.639   1.980   4.169  2.7662 -0.9737  1.1566
 2131TIP3   OH2 6398   1.234   2.803   0.448  0.2449 -0.1074  0.1865
 2131TIP3    H1 6399   1.160   2.837   0.498 -0.2366 -0.4126 -0.3027
 2131TIP3    H2 6400   1.273   2.880   0.407 -0.6380 -0.0836 -0.6523
 2132TIP3   OH2 6401   5.490   3.541   4.096 -0.1893 -0.4310  0.4312
 2132TIP3    H1 6402   5.484   3.445   4.105  1.3234 -0.8040 -1.8276
 2132TIP3    H2 6403   5.562   3.566   4.153 -0.4679 -0.6627  0.8897
 2133TIP3   OH2 6404   4.631   3.089   3.808  0.1000 -0.0995  0.0567
 2133TIP3    H1 6405   4.673   3.170   3.837 -2.0748  1.1389  0.0079
 2133TIP3    H2 6406   4.601   3.109   3.719  0.4290 -1.3319 -0.3418
 2134TIP3   OH2 6407   4.999   3.445   4.082  0.0233  0.1555 -0.2391
 2134TIP3    H1 6408   4.993   3.350   4.072 -0.6833  0.2591 -0.9348
 2134TIP3    H2 6409   5.082   3.459   4.127  0.0254 -0.8060  0.0864
 2135TIP3   OH2 6410   5.575   1.451   3.409  0.7055 -0.4010  0.4086
 2135TIP3    H1 6411   5.595   1.501   3.330  0.1359 -0.5076  0.1939
 2135TIP3    H2 6412   5.628   1.371   3.400 -0.0524 -0.8427 -0.3266
 2136TIP3   OH2 6413   0.603   0.308   4.124 -0.5195 -0.1981 -0.5221
 2136TIP3    H1 6414   0.640   0.256   4.196 -0.3929 -1.8603 -1.7162
 2136TIP3    H2 6415   0.671   0.371   4.102  0.2589 -0.9975 -0.4705
 2137TIP3   OH2 6416   2.916   4.994   5.024 -0.3685 -0.4442 -0.2070
 2137TIP3    H1 6417   2.988   5.016   5.083 -0.6174  1.3886 -0.5182
 2137TIP3    H2 6418   2.954   5.005   4.936 -0.8067 -0.2444 -0.3729
 2138TIP3   OH2 6419   2.363   4.045   2.197 -0.1006  0.1648 -0.2421
 2138TIP3    H1 6420   2.393   4.038   2.106 -0.4921  2.0526 -0.5580
 2138TIP3    H2 6421   2.348   4.138   2.210 -2.7372 -0.3308  0.8971
 2139TIP3   OH2 6422   1.580   2.213   5.141  0.1893 -0.2562 -0.2486
 2139TIP3    H1 6423   1.491   2.238   5.120  0.4793  0.9790 -0.0514
 2139TIP3    H2 6424   1.579   2.117   5.137 -1.1046 -0.2576 -0.3550
 2140TIP3   OH2 6425   4.155   1.882   2.833 -0.5630 -0.0110 -0.4696
 2140TIP3    H1 6426   4.212   1.806   2.844 -1.2264 -0.5528 -0.6424
 2140TIP3    H2 6427   4.079   1.848   2.785 -1.1496  0.6238 -0.0236
 2141TIP3   OH2 6428   0.035   4.301   4.189 -0.3276 -0.5390 -0.2142
 2141TIP3    H1 6429   0.016   4.309   4.095  0.9314  0.0383 -0.4463
 2141TIP3    H2 6430   0.059   4.209   4.202  0.6003 -0.3777 -0.6986
 2142TIP3   OH2 6431   2.778   1.382   2.353  0.2138  0.0013  0.0280
 2142TIP3    H1 6432   2.741   1.433   2.426  1.1590  0.5977  0.1147
 2142TIP3    H2 6433   2.781   1.444   2.280 -1.2785 -0.7560 -0.7207
 2143TIP3   OH2 6434   4.902   0.525   4.125 -0.3767 -0.1295 -0.3373
 2143TIP3    H1 6435   4.965   0.552   4.193 -1.4802 -1.4381  1.2835
 2143TIP3    H2 6436   4.869   0.440   4.156 -0.0052 -1.4101 -3.1782
 2144TIP3   OH2 6437   2.515   1.726   3.635  0.5092  0.3352  0.0670
 2144TIP3    H1 6438   2.554   1.639   3.635  2.8129  1.2810 -1.0021
 2144TIP3    H2 6439   2.587   1.784   3.662 -0.8870  1.9481  0.4842
 2145TIP3   OH2 6440   1.567   1.104   1.120  0.5132  0.0209  0.0279
 2145TIP3    H1 6441   1.529   1.025   1.158  0.0505 -0.1762 -0.8228
 2145TIP3    H2 6442   1.496   1.168   1.123  0.2802 -0.1700 -1.0170
 2146TIP3   OH2 6443   0.503   1.994   1.061 -0.0788 -0.0264 -0.3650
 2146TIP3    H1 6444   0.497   1.980   0.967 -2.4382 -1.5759 -0.0906
 2146TIP3    H2 6445   0.416   2.027   1.085 -0.1391 -1.3730  1.4763
 2147TIP3   OH2 6446   3.756   2.411   3.785 -0.0946 -0.3887 -0.2150
 2147TIP3    H1 6447   3.818   2.359   3.734 -0.3161 -1.2478  0.3638
 2147TIP3    H2 6448   3.671   2.394   3.745  0.0844  1.2343 -1.3637
 2148TIP3   OH2 6449   5.124   5.939   2.736 -0.1193 -0.2668  0.5220
 2148TIP3    H1 6450   5.132   5.843   2.738 -0.5708 -0.2933  1.5381
 2148TIP3    H2 6451   5.127   5.961   2.643  2.5398 -1.0207  0.3401
 2149TIP3   OH2 6452   5.436   5.562   0.064 -0.2815 -0.0612  0.2624
 2149TIP3    H1 6453   5.376   5.498   0.027  1.8616 -0.9142 -2.0087
 2149TIP3    H2 6454   5.494   5.586  -0.008  1.7945  1.0708  2.1751
 2150TIP3   OH2 6455   3.431   3.648   3.105 -0.0244 -0.7864 -0.1997
 2150TIP3    H1 6456   3.518   3.645   3.144  0.8409  0.7421 -1.8541
 2150TIP3    H2 6457   3.386   3.718   3.152 -0.8293 -2.3035  1.4156
 2151TIP3   OH2 6458   1.288   0.113   0.513 -0.1396  0.1289 -0.3507
 2151TIP3    H1 6459   1.365   0.162   0.541  1.3563 -1.6777 -1.1801
 2151TIP3    H2 6460   1.296   0.028   0.556 -0.4147 -0.9117 -2.2530
 2152TIP3   OH2 6461   6.135   1.160   2.823  0.3373  0.2191  0.1742
 2152TIP3    H1 6462   6.099   1.079   2.860 -1.2433  0.7590 -0.1072
 2152TIP3    H2 6463   6.152   1.215   2.900  1.1386 -0.2556  0.3465
 2153TIP3   OH2 6464   1.212   5.318   2.191  0.7641  0.1254 -0.4690
 2153TIP3    H1 6465   1.121   5.340   2.172  0.2581  2.4480  3.4997
 2153TIP3    H2 6466   1.262   5.386   2.146  0.3895  0.0551 -0.9991
 2154TIP3   OH2 6467   1.820   1.498   3.459 -0.0455 -0.2691  0.2035
 2154TIP3    H1 6468   1.772   1.465   3.382 -0.1139 -1.6904  0.8273
 2154TIP3    H2 6469   1.876   1.567   3.424  0.9378 -1.7942 -1.4054
 2155TIP3   OH2 6470   5.109   4.509   0.637  0.1081 -0.5599  0.1209
 2155TIP3    H1 6471   5.063   4.496   0.720  1.8725 -1.3269  1.0515
 2155TIP3    H2 6472   5.056   4.462   0.573 -2.0451  1.2036  0.4849
 2156TIP3   OH2 6473   5.571   0.852   4.798  0.1813 -0.4248 -0.0866
 2156TIP3    H1 6474   5.565   0.757   4.787  1.4730 -0.5149 -0.1746
 2156TIP3    H2 6475   5.629   0.881   4.727  1.1861  0.1892  0.9442
 2157TIP3   OH2 6476   5.387   0.662   3.112 -0.0970  0.3523 -0.2025
 2157TIP3    H1 6477   5.355   0.690   3.197  0.0969 -2.7153  1.0133
 2157TIP3    H2 6478   5.311   0.620   3.071  0.2487  0.3371 -0.8292
 2158TIP3   OH2 6479   0.707   4.325   1.335  0.0830  0.0413  0.3883
 2158TIP3    H1 6480   0.794   4.317   1.375  1.1773 -1.5936 -2.0819
 2158TIP3    H2 6481   0.673   4.236   1.333 -2.0936  0.7365  1.9917
 2159TIP3   OH2 6482   0.517   1.894   0.086  0.0727  0.3790 -0.3298
 2159TIP3    H1 6483   0.456   1.836   0.132  1.1783 -0.4661  0.1293
 2159TIP3    H2 6484   0.578   1.834   0.043  1.0599  1.2048 -0.1073
 2160TIP3   OH2 6485   2.451   4.298   1.294  0.1387 -0.2177 -0.1793
 2160TIP3    H1 6486   2.371   4.248   1.274  0.3704 -1.0081  0.7910
 2160TIP3    H2 6487   2.420   4.377   1.338 -0.2395  0.5827 -1.8070
 2161TIP3   OH2 6488   0.254   0.224   1.444 -0.3113  0.1428 -0.1013
 2161TIP3    H1 6489   0.207   0.215   1.361 -1.1207 -0.4586  0.4126
 2161TIP3    H2 6490   0.328   0.164   1.436 -1.3348 -1.2060  0.2526
 2162TIP3   OH2 6491   4.526   5.825   2.565  0.1655 -0.3982  0.0008
 2162TIP3    H1 6492   4.476   5.778   2.633 -1.2707  0.0940 -0.6664
 2162TIP3    H2 6493   4.501   5.916   2.576  1.3583 -0.0570 -0.0278
 2163TIP3   OH2 6494   4.893   2.304   1.159  0.3476 -0.2460  0.5388
 2163TIP3    H1 6495   4.961   2.301   1.092  0.8828 -1.0939  1.1004
 2163TIP3    H2 6496   4.908   2.387   1.205  0.6955 -0.2060  0.3517
 2164TIP3   OH2 6497   4.339   3.568   1.699  0.1243 -0.2342  0.2068
 2164TIP3    H1 6498   4.388   3.548   1.778 -0.9023  1.2616  1.2904
 2164TIP3    H2 6499   4.311   3.659   1.711 -2.8220 -0.9479 -0.3486
 2165TIP3   OH2 6500   3.787   5.456   2.311  0.2844  0.7092 -0.5701
 2165TIP3    H1 6501   3.770   5.367   2.281  1.1323 -0.3979  1.9890
 2165TIP3    H2 6502   3.717   5.475   2.373  1.4830  0.8178  0.7933
 2166TIP3   OH2 6503   1.418   3.306   0.094  0.2445  0.3247 -0.0528
 2166TIP3    H1 6504   1.469   3.230   0.066  1.4874  1.4673 -1.0490
 2166TIP3    H2 6505   1.463   3.338   0.172 -0.5254 -0.1910  0.6135
 2167TIP3   OH2 6506   2.481   0.494   0.116  0.2115  0.6521  0.4235
 2167TIP3    H1 6507   2.411   0.537   0.166 -0.1061  3.4871 -2.1454
 2167TIP3    H2 6508   2.457   0.402   0.116 -2.4694  1.2619  1.2340
 2168TIP3   OH2 6509   3.259   1.171   4.720  0.0551 -0.4390  0.2710
 2168TIP3    H1 6510   3.268   1.170   4.625  2.6524  3.3347  0.2653
 2168TIP3    H2 6511   3.348   1.171   4.753 -0.6228  1.9373  2.4460
 2169TIP3   OH2 6512   3.473   3.717   2.809 -0.7192  0.1456 -0.4573
 2169TIP3    H1 6513   3.562   3.710   2.775 -0.4494  0.1334  0.2374
 2169TIP3    H2 6514   3.479   3.687   2.899 -1.3532  0.5181 -0.2830
 2170TIP3   OH2 6515   1.018   1.846   3.346 -0.4790  0.3286 -1.2377
 2170TIP3    H1 6516   0.935   1.854   3.393 -0.0132 -0.6378 -0.2005
 2170TIP3    H2 6517   1.045   1.756   3.361  1.3104  0.9263 -0.5863
 2171TIP3   OH2 6518   2.771   1.334   3.071  0.2747  0.4596 -0.1212
 2171TIP3    H1 6519   2.811   1.395   3.132  0.7212  0.6233 -0.5664
 2171TIP3    H2 6520   2.801   1.363   2.985 -0.1536  0.0940 -0.3998
 2172TIP3   OH2 6521   6.192   4.069   2.746  0.2927  0.8424 -0.0662
 2172TIP3    H1 6522   6.140   4.003   2.702  1.2442 -1.2351  1.7362
 2172TIP3    H2 6523   6.161   4.068   2.837  0.6558  2.5727  0.1227
 2173TIP3   OH2 6524   2.941   4.757   0.296 -0.2529 -1.0357  0.8005
 2173TIP3    H1 6525   2.940   4.689   0.229 -0.1708 -0.3407  0.0810
 2173TIP3    H2 6526   2.967   4.837   0.249 -1.4102 -0.2808  1.4028
 2174TIP3   OH2 6527   2.817   5.887   0.141  0.6069  0.1275 -0.2514
 2174TIP3    H1 6528   2.809   5.801   0.098  1.5812 -0.7703  1.2696
 2174TIP3    H2 6529   2.881   5.934   0.089  0.9340 -0.5045 -0.4340
 2175TIP3   OH2 6530   4.727   3.421   4.507 -0.0821  0.4531 -0.0923
 2175TIP3    H1 6531   4.725   3.341   4.455 -0.6039  1.2943 -1.4054
 2175TIP3    H2 6532   4.820   3.436   4.524  0.1440  0.4517 -1.2575
 2176TIP3   OH2 6533   6.283   0.458   0.487  0.0693 -0.0368 -0.2372
 2176TIP3    H1 6534   6.267   0.539   0.535  0.8652 -0.4534  0.7733
 2176TIP3    H2 6535   6.362   0.476   0.436 -0.2512  0.1012 -0.6921
 2177TIP3   OH2 6536   4.298   2.744   0.978 -0.4806  0.2786  0.0624
 2177TIP3    H1 6537   4.345   2.688   0.916  0.3564 -0.1214  1.0341
 2177TIP3    H2 6538   4.211   2.756   0.939 -0.2479 -0.6660 -0.7678
 2178TIP3   OH2 6539   3.902   5.436   0.815 -0.1106  0.6092 -0.0752
 2178TIP3    H1 6540   3.889   5.503   0.881 -0.2713  0.1530  0.3570
 2178TIP3    H2 6541   3.963   5.476   0.752 -1.2359  1.6591 -0.5491
 2179TIP3   OH2 6542   3.675   5.198   4.100 -0.2223 -0.4297  0.0384
 2179TIP3    H1 6543   3.729   5.264   4.057  0.3858 -0.0341  1.3715
 2179TIP3    H2 6544   3.726   5.117   4.095  0.6634  0.0049  1.5476
 2180TIP3   OH2 6545   0.476   5.632   0.537 -0.0129 -0.2336  0.0562
 2180TIP3    H1 6546   0.483   5.725   0.558 -0.2712 -0.3662  0.7685
 2180TIP3    H2 6547   0.405   5.626   0.474 -2.4950 -0.3057  2.6577
 2181TIP3   OH2 6548   0.958   4.438   1.184  0.2971  0.5055  0.2916
 2181TIP3    H1 6549   0.928   4.495   1.254 -1.3876  0.7792 -0.5811
 2181TIP3    H2 6550   1.043   4.405   1.213  0.3546  1.8237  1.7332
 2182TIP3   OH2 6551   6.084   3.482   4.900  0.4186 -0.2102  0.7154
 2182TIP3    H1 6552   6.047   3.469   4.987 -0.1540  0.4400  0.5840
 2182TIP3    H2 6553   6.161   3.537   4.915  0.7262 -0.6873  0.8833
 2183TIP3   OH2 6554   6.314   2.631   2.593  0.0370  0.3443  0.2025
 2183TIP3    H1 6555   6.301   2.565   2.525 -1.7627 -0.3897  1.1699
 2183TIP3    H2 6556   6.404   2.616   2.624  0.2590 -0.4935 -0.7892
 2184TIP3   OH2 6557   6.065   1.293   0.688 -0.1684  0.1061  0.1623
 2184TIP3    H1 6558   6.125   1.363   0.715  0.0803 -0.7990  2.2144
 2184TIP3    H2 6559   6.106   1.213   0.722 -0.5849 -1.0421 -1.8793
 2185TIP3   OH2 6560   2.718   3.197   0.694 -0.1000 -0.2871 -0.5055
 2185TIP3    H1 6561   2.791   3.145   0.661  0.2567 -0.7990  1.0020
 2185TIP3    H2 6562   2.650   3.188   0.627  0.8375 -0.6624 -1.4319
 2186TIP3   OH2 6563   3.831   4.832   3.163 -0.5806 -0.1483  0.2043
 2186TIP3    H1 6564   3.820   4.792   3.249 -1.8115 -2.5776 -0.9458
 2186TIP3    H2 6565   3.741   4.847   3.133 -0.1960  0.0043 -0.9038
 2187TIP3   OH2 6566   3.771   0.378   4.782  0.1266  0.6571 -0.1068
 2187TIP3    H1 6567   3.746   0.291   4.812  0.3514  0.5194 -0.3131
 2187TIP3    H2 6568   3.785   0.428   4.862  0.4719  0.3624  0.0213
 2188TIP3   OH2 6569   0.535   5.532   2.459 -0.0525  0.2048 -0.8788
 2188TIP3    H1 6570   0.568   5.620   2.476  1.6033 -0.3589 -0.9543
 2188TIP3    H2 6571   0.614   5.480   2.443 -0.8708 -1.6534  0.7931
 2189TIP3   OH2 6572   5.156   4.393   4.979 -0.0877  0.0565  0.6498
 2189TIP3    H1 6573   5.239   4.346   4.967 -0.5237 -0.4841 -0.3577
 2189TIP3    H2 6574   5.109   4.342   5.045 -0.6992 -1.1528 -0.6865
 2190TIP3   OH2 6575   4.467   3.255   2.234  0.9419 -0.0854 -0.0619
 2190TIP3    H1 6576   4.381   3.252   2.275  1.2709 -1.4728  0.5984
 2190TIP3    H2 6577   4.511   3.330   2.274  0.3692  0.0659  0.2877
 2191TIP3   OH2 6578   1.909   0.075   0.325  0.7530  0.3224 -0.6939
 2191TIP3    H1 6579   1.936   0.159   0.287  0.0813  1.0910  0.4862
 2191TIP3    H2 6580   1.876   0.025   0.250  1.9898  0.7376 -1.5623
 2192TIP3   OH2 6581   3.166   5.437   4.715 -0.2666 -0.2569 -0.1675
 2192TIP3    H1 6582   3.240   5.424   4.656 -0.0653 -0.3997  0.1143
 2192TIP3    H2 6583   3.164   5.358   4.769  0.1566  0.2927  0.6780
 2193TIP3   OH2 6584   4.774   1.310   0.038 -0.0122  0.0043  0.0474
 2193TIP3    H1 6585   4.815   1.359   0.109  0.2486 -0.0526 -0.0652
 2193TIP3    H2 6586   4.686   1.348   0.031  0.5938  1.3124 -0.8631
 2194TIP3   OH2 6587   4.457   3.138   3.075 -0.5580  0.1148  0.7283
 2194TIP3    H1 6588   4.413   3.223   3.076  2.2872  1.8088 -1.3786
 2194TIP3    H2 6589   4.427   3.096   2.995 -0.9087 -0.2508  1.0500
 2195TIP3   OH2 6590   1.503   4.301   2.508 -0.1381  0.5131  0.3375
 2195TIP3    H1 6591   1.535   4.213   2.490 -0.6954  0.1916  0.8717
 2195TIP3    H2 6592   1.444   4.290   2.582 -0.2615  1.3288  0.3679
 2196TIP3   OH2 6593   2.562   2.903   1.372 -0.0101  0.3845 -0.3992
 2196TIP3    H1 6594   2.499   2.853   1.425 -0.3936 -0.0542 -1.2446
 2196TIP3    H2 6595   2.646   2.883   1.412 -0.4615  1.7667  1.3683
 2197TIP3   OH2 6596   2.604   5.298   3.112  0.3616 -0.5384  0.0825
 2197TIP3    H1 6597   2.640   5.217   3.147 -0.4005 -1.3449 -0.9059
 2197TIP3    H2 6598   2.592   5.280   3.018  0.2518  0.7459 -0.1704
 2198TIP3   OH2 6599   2.338   4.836   1.748 -0.2290  0.0110  0.3235
 2198TIP3    H1 6600   2.251   4.816   1.784 -0.5000  1.0159  0.2426
 2198TIP3    H2 6601   2.394   4.766   1.782 -1.2053 -1.0798 -0.2267
 2199TIP3   OH2 6602   5.406   0.002   3.829  0.5296  0.0834  0.0584
 2199TIP3    H1 6603   5.423   0.085   3.874 -1.4244  0.0201  0.9984
 2199TIP3    H2 6604   5.312  -0.010   3.836  0.8544 -2.7016  0.7869
 2200TIP3   OH2 6605   2.308   5.013   2.431  0.3334  0.1276  0.2800
 2200TIP3    H1 6606   2.313   5.062   2.349  2.0813 -2.4444 -1.3269
 2200TIP3    H2 6607   2.255   4.936   2.409  1.0511 -0.7335  1.4681
 2201TIP3   OH2 6608   6.141   2.595   4.318 -0.0421 -0.0550  0.4239
 2201TIP3    H1 6609   6.085   2.667   4.348  0.8742 -0.1125  2.4282
 2201TIP3    H2 6610   6.230   2.628   4.329  0.4030 -0.2585 -1.9677
 2202TIP3   OH2 6611   5.151   1.501   1.981  0.0775 -0.2292  0.3012
 2202TIP3    H1 6612   5.202   1.583   1.985 -0.4366  0.1079 -0.0136
 2202TIP3    H2 6613   5.061   1.530   1.968 -0.1492 -0.8410  0.5094
 2203TIP3   OH2 6614   5.478   1.738   4.349  0.1249 -0.6122  0.0791
 2203TIP3    H1 6615   5.439   1.676   4.287 -0.7327  0.7551 -0.7969
 2203TIP3    H2 6616   5.404   1.793   4.377  1.1529  1.1216 -0.5055
 2204TIP3   OH2 6617   2.215   4.889   1.192  0.6556 -0.4827  0.1571
 2204TIP3    H1 6618   2.235   4.808   1.240  0.9571 -0.8973 -0.6440
 2204TIP3    H2 6619   2.187   4.950   1.260  0.1413 -1.3433  0.7516
 2205TIP3   OH2 6620   2.172   2.569   2.100 -0.4984 -0.3089  0.0548
 2205TIP3    H1 6621   2.244   2.510   2.080 -0.7366 -0.7975  0.6155
 2205TIP3    H2 6622   2.194   2.650   2.055  0.2034 -0.5818 -0.0996
 2206TIP3   OH2 6623   4.639   4.331   4.011 -0.1580  0.1343  0.3014
 2206TIP3    H1 6624   4.703   4.267   3.980  1.1879  0.6627  1.8630
 2206TIP3    H2 6625   4.577   4.279   4.064  1.0375  0.0956  1.7240
 2207TIP3   OH2 6626   5.966   4.653   3.213 -0.3910 -0.0537 -0.0302
 2207TIP3    H1 6627   6.021   4.576   3.197 -2.0327 -1.1910 -0.4541
 2207TIP3    H2 6628   5.976   4.670   3.307 -1.6465 -2.1591  0.5416
 2208TIP3   OH2 6629   5.513   3.490   2.863  0.1341 -0.0573  0.5478
 2208TIP3    H1 6630   5.571   3.563   2.841 -0.9477  0.8184  0.4810
 2208TIP3    H2 6631   5.457   3.481   2.786  0.5001 -1.2255  0.4042
 2209TIP3   OH2 6632   3.175   2.737   1.261 -0.2039 -0.3379 -0.4493
 2209TIP3    H1 6633   3.265   2.762   1.240  0.2998 -2.5539 -1.2876
 2209TIP3    H2 6634   3.167   2.647   1.229 -2.1998 -0.8263  1.1542
 2210TIP3   OH2 6635   0.640   5.401   1.150  0.2066 -0.3640 -0.3770
 2210TIP3    H1 6636   0.564   5.359   1.190  0.2328  0.5715  0.6867
 2210TIP3    H2 6637   0.715   5.355   1.187  0.2459  0.7330  1.0002
 2211TIP3   OH2 6638   5.387   4.122   1.260  0.3268 -0.5559  0.4123
 2211TIP3    H1 6639   5.398   4.198   1.317 -0.2012 -0.2751  0.1460
 2211TIP3    H2 6640   5.458   4.062   1.285  0.4626 -0.1745  0.9397
 2212TIP3   OH2 6641   1.764   2.406   1.633 -0.4060 -0.5235 -0.2620
 2212TIP3    H1 6642   1.685   2.357   1.656 -0.5566 -1.2228 -2.0795
 2212TIP3    H2 6643   1.731   2.486   1.592 -0.2496 -1.4368 -2.2931
 2213TIP3   OH2 6644   1.783   4.500   3.943 -0.6178 -0.0607 -0.2695
 2213TIP3    H1 6645   1.716   4.566   3.956 -1.4200 -1.1122  1.2664
 2213TIP3    H2 6646   1.736   4.416   3.952  0.8414 -0.8180  0.6848
 2214TIP3   OH2 6647   1.910   5.084   0.613 -0.8959 -0.1531  0.6631
 2214TIP3    H1 6648   1.909   5.120   0.525 -0.1169 -3.6466 -0.9521
 2214TIP3    H2 6649   2.002   5.086   0.639 -0.0673 -4.2231 -1.1618
 2215TIP3   OH2 6650   5.837   4.521   4.899  0.3929 -0.1409  0.0568
 2215TIP3    H1 6651   5.743   4.523   4.883  0.3859  0.8181  0.1580
 2215TIP3    H2 6652   5.849   4.572   4.979  1.2118  1.7301 -1.1832
 2216TIP3   OH2 6653   1.993   3.790   4.317  0.2082  0.7227 -0.3058
 2216TIP3    H1 6654   2.015   3.859   4.379 -0.6564  0.7905 -0.0591
 2216TIP3    H2 6655   2.030   3.819   4.234 -1.6373  2.3569 -0.6102
 2217TIP3   OH2 6656   4.239   5.056   0.781  0.2112 -0.0057  0.2374
 2217TIP3    H1 6657   4.153   5.087   0.806 -0.1226  0.3909 -1.2844
 2217TIP3    H2 6658   4.300   5.122   0.816 -0.1284 -0.0419  0.9046
 2218TIP3   OH2 6659   0.396   5.622   3.381 -0.1009  0.2168  0.1491
 2218TIP3    H1 6660   0.446   5.558   3.432  1.4209 -0.5400 -2.1208
 2218TIP3    H2 6661   0.390   5.699   3.438  0.2870 -1.0345  1.9551
 2219TIP3   OH2 6662   2.601   1.340   3.519  0.1744 -0.0050 -0.1766
 2219TIP3    H1 6663   2.693   1.358   3.502  0.5244 -2.5705 -1.3968
 2219TIP3    H2 6664   2.557   1.357   3.436 -1.1373  4.3002  1.1539
 2220TIP3   OH2 6665   6.024   4.645   2.581  0.1455  0.1500 -0.1988
 2220TIP3    H1 6666   6.087   4.575   2.561 -0.1098  0.0163 -0.5411
 2220TIP3    H2 6667   5.947   4.599   2.616  0.2472  0.3165  0.2606
 2221TIP3   OH2 6668   4.119   4.664   5.197  0.8077 -0.1637 -0.2571
 2221TIP3    H1 6669   4.114   4.570   5.178  1.2383 -0.0106 -1.1730
 2221TIP3    H2 6670   4.205   4.691   5.165 -0.1422  0.9733 -2.0118
 2222TIP3   OH2 6671   1.774   3.227   3.812 -0.4203 -0.3693 -0.1667
 2222TIP3    H1 6672   1.796   3.194   3.724 -0.4917  1.2304 -0.8257
 2222TIP3    H2 6673   1.737   3.151   3.857  2.2155 -2.0289 -0.5218
 2223TIP3   OH2 6674   4.922   0.233   0.235  0.2604 -0.5887  0.0183
 2223TIP3    H1 6675   5.011   0.265   0.218  0.5760 -1.4142  0.0551
 2223TIP3    H2 6676   4.916   0.152   0.183 -0.7633 -0.0954 -0.6547
 2224TIP3   OH2 6677   1.756   1.144   3.321 -0.1506  0.0908 -0.2357
 2224TIP3    H1 6678   1.822   1.104   3.264 -0.1030 -0.2977  0.0883
 2224TIP3    H2 6679   1.804   1.164   3.402 -0.3447  0.1445 -0.1347
 2225TIP3   OH2 6680   5.127   0.119   1.365  0.0095 -0.2207  0.3059
 2225TIP3    H1 6681   5.056   0.064   1.332  1.8686 -2.1918 -0.6936
 2225TIP3    H2 6682   5.179   0.141   1.287  1.2650 -0.0136  1.1621
 2226TIP3   OH2 6683   0.678   2.719   2.395 -0.6627 -0.0457 -0.1354
 2226TIP3    H1 6684   0.747   2.663   2.360 -0.3141  0.0272  0.4202
 2226TIP3    H2 6685   0.666   2.787   2.328 -0.1293 -0.0026 -0.1923
 2227TIP3   OH2 6686   3.798   1.872   4.396 -0.1063  0.7599  0.0430
 2227TIP3    H1 6687   3.784   1.907   4.308 -1.4875 -1.6453 -0.7879
 2227TIP3    H2 6688   3.881   1.825   4.391 -0.3336  0.3680 -0.0734
 2228TIP3   OH2 6689   3.233   0.108   3.284  0.6676  0.1760 -0.1709
 2228TIP3    H1 6690   3.140   0.127   3.277 -0.2782 -3.5619 -0.2893
 2228TIP3    H2 6691   3.260   0.144   3.369 -1.3206 -0.0677  0.6027
 2229TIP3   OH2 6692   1.444   4.042   4.146  0.1781  0.4666  0.0566
 2229TIP3    H1 6693   1.395   3.993   4.079 -0.8916  0.1422  1.0535
 2229TIP3    H2 6694   1.449   4.131   4.112  0.6220  0.0755 -0.9637
 2230TIP3   OH2 6695   0.164   2.471   0.745  0.5496  0.1343  0.3270
 2230TIP3    H1 6696   0.120   2.506   0.823  0.4831  0.5039  0.1311
 2230TIP3    H2 6697   0.096   2.421   0.700  0.4096  0.4430  0.1871
 2231TIP3   OH2 6698   5.718   3.612   4.265 -0.1683  0.1650 -0.0487
 2231TIP3    H1 6699   5.766   3.530   4.258  0.7527  0.7728 -1.4278
 2231TIP3    H2 6700   5.782   3.679   4.240 -1.2785  1.1563 -0.3377
 2232TIP3   OH2 6701   4.599   4.435   0.974 -0.0829 -0.0838  0.3056
 2232TIP3    H1 6702   4.521   4.489   0.988  0.7938  1.3370 -0.0029
 2232TIP3    H2 6703   4.633   4.465   0.890  0.9883 -0.4261  0.6090
 2233TIP3   OH2 6704   2.828   2.871   1.538 -0.3994 -0.1994  0.2088
 2233TIP3    H1 6705   2.848   2.840   1.626 -0.1919  2.8287  1.3417
 2233TIP3    H2 6706   2.900   2.929   1.515 -0.6451 -0.6170 -1.8245
 2234TIP3   OH2 6707   1.744   1.717   3.619  0.0096  0.8146 -0.2140
 2234TIP3    H1 6708   1.764   1.629   3.587  0.9774  1.4454 -1.4253
 2234TIP3    H2 6709   1.693   1.703   3.698  1.4704 -0.8527  0.4887
 2235TIP3   OH2 6710   1.233   5.339   3.579  0.0959 -0.0980 -0.1097
 2235TIP3    H1 6711   1.258   5.327   3.671 -1.2220  0.3525  0.3173
 2235TIP3    H2 6712   1.203   5.430   3.574 -0.6826 -0.3901 -0.7937
 2236TIP3   OH2 6713   1.971   0.863   3.871  0.3080  0.0162 -0.4245
 2236TIP3    H1 6714   1.892   0.815   3.850 -0.0826  0.7051 -0.5683
 2236TIP3    H2 6715   2.040   0.821   3.819  0.4916 -1.9822  1.3408
 2237TIP3   OH2 6716   1.178   0.703   0.165 -0.0192  0.3727  0.2596
 2237TIP3    H1 6717   1.145   0.642   0.231  2.4187 -0.7789  0.5102
 2237TIP3    H2 6718   1.233   0.764   0.215  0.3175  0.6653 -0.4543
 2238TIP3   OH2 6719   4.348   3.979   3.637 -0.4883 -0.0663 -0.2372
 2238TIP3    H1 6720   4.439   3.978   3.666  0.1323  1.1049 -1.9717
 2238TIP3    H2 6721   4.297   3.957   3.715  1.2063  0.3521  1.0306
 2239TIP3   OH2 6722   4.419   4.713   1.339 -0.8257  0.3812 -0.1810
 2239TIP3    H1 6723   4.445   4.793   1.386 -0.4557  1.8071 -2.6233
 2239TIP3    H2 6724   4.494   4.692   1.283 -0.8350 -1.8660  0.5563
 2240TIP3   OH2 6725   2.630   4.103   5.069 -0.2879 -0.3622 -0.7148
 2240TIP3    H1 6726   2.723   4.088   5.086 -0.1358  0.2554 -0.9572
 2240TIP3    H2 6727   2.625   4.115   4.974 -0.4787  0.4602 -0.6082
 2241TIP3   OH2 6728   0.091   1.822   1.532 -0.1664  0.1192 -0.2469
 2241TIP3    H1 6729   0.073   1.765   1.457 -1.7209 -0.8119  0.7572
 2241TIP3    H2 6730   0.009   1.822   1.582  0.8081  0.7116  1.4467
 2242TIP3   OH2 6731   3.758   5.959   4.605 -0.6484 -0.1163 -0.3084
 2242TIP3    H1 6732   3.832   5.912   4.643  0.2795  0.2964 -1.5374
 2242TIP3    H2 6733   3.695   5.890   4.583  1.0127 -0.9974 -2.8162
 2243TIP3   OH2 6734   0.289   4.289   3.181  0.4103  0.5838  0.6945
 2243TIP3    H1 6735   0.305   4.382   3.166  0.2556  0.5641  0.4147
 2243TIP3    H2 6736   0.374   4.248   3.165  0.2134  0.5410 -0.3117
 2244TIP3   OH2 6737   3.647   1.295   0.603 -0.5628 -0.2306  0.0777
 2244TIP3    H1 6738   3.679   1.242   0.676 -0.6435  0.5212  0.6771
 2244TIP3    H2 6739   3.666   1.385   0.630 -0.2070  0.0391 -1.0207
 2245TIP3   OH2 6740   6.110   2.418   3.832  0.4449  0.4507 -0.3546
 2245TIP3    H1 6741   6.055   2.362   3.777 -2.7232  1.3436  1.6112
 2245TIP3    H2 6742   6.176   2.359   3.868 -0.6470 -1.2701 -1.0363
 2246TIP3   OH2 6743   4.758   4.559   4.831  0.1367 -0.1429  0.3774
 2246TIP3    H1 6744   4.807   4.582   4.753 -2.6878  0.4861 -1.3698
 2246TIP3    H2 6745   4.673   4.604   4.820 -1.1390 -1.7408  2.7773
 2247TIP3   OH2 6746   0.897   1.435   0.330 -0.7984 -0.4778  0.7594
 2247TIP3    H1 6747   0.967   1.489   0.366 -0.3061 -0.1949 -0.5679
 2247TIP3    H2 6748   0.832   1.430   0.400 -0.0901  0.4386  1.5039
 2248TIP3   OH2 6749   3.817   4.200   4.353 -0.8088  0.6521  0.1875
 2248TIP3    H1 6750   3.746   4.214   4.415 -1.5809  2.4019 -1.0142
 2248TIP3    H2 6751   3.897   4.210   4.406 -1.4437  1.7583  0.9950
 2249TIP3   OH2 6752   4.282   1.809   4.231  0.0995 -0.3587  0.1673
 2249TIP3    H1 6753   4.278   1.729   4.180  0.3054 -0.8780  0.9372
 2249TIP3    H2 6754   4.361   1.854   4.200  1.5316 -1.7674  1.5408
 2250TIP3   OH2 6755   5.121   1.882   1.194 -0.1283  0.7689 -0.2731
 2250TIP3    H1 6756   5.045   1.919   1.149 -0.5894 -1.9427 -1.9877
 2250TIP3    H2 6757   5.178   1.957   1.212 -1.1114  2.3439 -3.1426
 2251TIP3   OH2 6758   1.873   5.751   4.095 -0.0649  0.0072  0.1983
 2251TIP3    H1 6759   1.895   5.780   4.183 -0.8146  0.4296  0.2587
 2251TIP3    H2 6760   1.806   5.684   4.107  1.4815 -1.6333  0.0440
 2252TIP3   OH2 6761   2.199   1.041   1.255 -0.3001  0.4952  0.1362
 2252TIP3    H1 6762   2.247   0.960   1.236 -2.0051 -1.1975  2.4387
 2252TIP3    H2 6763   2.145   1.056   1.176 -0.0020 -0.6516 -0.3063
 2253TIP3   OH2 6764   0.785   5.119   2.784 -0.1570 -0.6433 -0.0058
 2253TIP3    H1 6765   0.703   5.075   2.807  0.1883 -1.0598  0.4432
 2253TIP3    H2 6766   0.760   5.210   2.770 -0.6570 -0.7159  0.3924
 2254TIP3   OH2 6767   2.533   2.597   4.008 -0.1868 -0.7480  0.0866
 2254TIP3    H1 6768   2.595   2.548   4.063 -0.6206  0.4684  1.7670
 2254TIP3    H2 6769   2.583   2.673   3.979 -0.6955 -0.0244  1.0301
 2255TIP3   OH2 6770   1.551   3.181   2.624 -0.1780  0.1960 -0.0490
 2255TIP3    H1 6771   1.520   3.244   2.559  1.0380  0.7078 -0.1588
 2255TIP3    H2 6772   1.551   3.230   2.706  1.2401  0.5123 -0.2203
 2256TIP3   OH2 6773   5.338   3.030   1.048 -0.4625 -0.2019  0.3446
 2256TIP3    H1 6774   5.335   2.952   1.103 -0.2139 -0.7682 -0.4356
 2256TIP3    H2 6775   5.406   3.085   1.088 -0.3464 -0.5699  0.6556
 2257TIP3   OH2 6776   5.488   2.659   4.036 -0.3733 -0.2039  0.3083
 2257TIP3    H1 6777   5.543   2.588   4.068  2.1310  1.2283 -0.5621
 2257TIP3    H2 6778   5.510   2.667   3.943 -2.8003 -0.1542 -0.3345
 2258TIP3   OH2 6779   5.367   3.435   0.270 -0.0572  0.0928  0.6580
 2258TIP3    H1 6780   5.318   3.483   0.204  0.8725 -1.3683 -1.1810
 2258TIP3    H2 6781   5.421   3.501   0.313  0.9173  0.7951 -1.5332
 2259TIP3   OH2 6782   2.294   4.302   0.658  0.7764 -0.1650 -0.0266
 2259TIP3    H1 6783   2.305   4.391   0.624  1.4170 -0.5536 -0.8929
 2259TIP3    H2 6784   2.352   4.299   0.734  0.1491  0.3974  0.4754
 2260TIP3   OH2 6785   3.650   4.816   5.008 -0.4389 -0.2768 -0.0210
 2260TIP3    H1 6786   3.591   4.750   4.971 -1.1676  0.4076 -0.1289
 2260TIP3    H2 6787   3.724   4.767   5.042 -1.1615 -1.1844  0.2719
 2261TIP3   OH2 6788   0.888   0.878   2.175 -0.4916  0.2083 -0.3326
 2261TIP3    H1 6789   0.860   0.854   2.086 -0.8077 -1.1027  0.1111
 2261TIP3    H2 6790   0.811   0.919   2.214 -0.7979 -0.4807 -0.2010
 2262TIP3   OH2 6791   4.098   2.014   4.242 -0.2114 -0.1625  0.2245
 2262TIP3    H1 6792   4.122   2.099   4.278 -0.9577  0.3731 -0.4932
 2262TIP3    H2 6793   4.173   1.958   4.261 -0.3577  0.2333  2.0733
 2263TIP3   OH2 6794   0.886   1.433   3.187 -0.3239 -0.4029 -0.3107
 2263TIP3    H1 6795   0.859   1.359   3.242 -2.2522  0.9010  0.6344
 2263TIP3    H2 6796   0.804   1.468   3.153  0.4048  2.0068  0.2438
 2264TIP3   OH2 6797   3.822   3.233   4.615 -0.8373 -0.0736 -0.1317
 2264TIP3    H1 6798   3.800   3.232   4.708 -0.2887 -0.0071 -0.0009
 2264TIP3    H2 6799   3.893   3.296   4.607  0.0228 -1.0457 -0.3867
 2265TIP3   OH2 6800   4.735   3.905   2.916 -0.3401 -0.1556  0.6828
 2265TIP3    H1 6801   4.724   3.866   3.002 -0.1373 -2.1502 -0.1568
 2265TIP3    H2 6802   4.654   3.885   2.869  1.0114 -2.5986 -0.8506
 2266TIP3   OH2 6803   4.959   1.392   0.279 -0.1234 -0.0918 -0.3521
 2266TIP3    H1 6804   5.021   1.320   0.269  1.0476  1.0580 -1.6909
 2266TIP3    H2 6805   5.013   1.471   0.280 -1.5124  0.9183 -1.1133
 2267TIP3   OH2 6806   3.601   4.127   4.540 -0.0777  0.1568 -0.2283
 2267TIP3    H1 6807   3.545   4.204   4.550  1.9723  1.7004  0.2132
 2267TIP3    H2 6808   3.575   4.069   4.612 -1.6516  0.4320 -0.5555
 2268TIP3   OH2 6809   4.466   5.889   4.443 -0.0265 -0.0654  0.9952
 2268TIP3    H1 6810   4.551   5.933   4.455  1.0942 -2.2577  1.5626
 2268TIP3    H2 6811   4.488   5.797   4.432 -2.3641 -0.6932  1.0975
 2269TIP3   OH2 6812   1.411   0.676   0.730  0.0561 -0.5242 -0.0300
 2269TIP3    H1 6813   1.483   0.640   0.782  0.6047 -0.8506 -0.9715
 2269TIP3    H2 6814   1.373   0.599   0.686  0.0902 -0.1739 -0.6833
 2270TIP3   OH2 6815   1.322   3.135   2.327  0.0156  0.2939  0.0218
 2270TIP3    H1 6816   1.394   3.072   2.326 -0.5708 -0.3844 -0.2619
 2270TIP3    H2 6817   1.351   3.203   2.387  1.4308  0.6754 -1.0399
 2271TIP3   OH2 6818   0.243   2.107   2.359 -0.6872  0.0532  0.5979
 2271TIP3    H1 6819   0.255   2.190   2.312  0.4829  1.1189  2.6174
 2271TIP3    H2 6820   0.327   2.063   2.353 -0.4177  0.3551  1.9031
 2272TIP3   OH2 6821   4.095   5.290   3.303 -0.6444 -0.2131 -0.2124
 2272TIP3    H1 6822   4.173   5.240   3.328 -0.9703 -0.8371 -0.4279
 2272TIP3    H2 6823   4.063   5.247   3.223 -2.7348 -1.6700  1.2919
 2273TIP3   OH2 6824   2.026   0.423   1.512 -0.2244 -0.7643 -0.2273
 2273TIP3    H1 6825   2.032   0.460   1.424 -0.1882 -0.5862 -0.1517
 2273TIP3    H2 6826   1.957   0.357   1.506 -0.3850 -0.5904 -0.3341
 2274TIP3   OH2 6827   5.355   2.906   3.777 -0.1538 -0.0488 -0.0386
 2274TIP3    H1 6828   5.398   2.981   3.817 -1.2351  0.2157  0.6696
 2274TIP3    H2 6829   5.323   2.854   3.851 -0.2132 -0.7313 -0.5316
 2275TIP3   OH2 6830   5.237   0.229   2.015 -0.3984 -0.4211  0.0423
 2275TIP3    H1 6831   5.302   0.185   1.961 -2.8647 -1.0422 -2.6880
 2275TIP3    H2 6832   5.193   0.158   2.062 -1.7249 -0.5351 -1.2888
 2276TIP3   OH2 6833   1.625   1.941   4.212  0.5821  0.4784 -0.1955
 2276TIP3    H1 6834   1.618   2.030   4.247 -1.9711  0.3681 -0.2383
 2276TIP3    H2 6835   1.651   1.887   4.287  5.6651  1.5169 -0.7970
 2277TIP3   OH2 6836   2.692   0.097   1.741 -0.1718 -0.5633  0.4616
 2277TIP3    H1 6837   2.648   0.048   1.810 -2.4599 -1.0152 -1.1633
 2277TIP3    H2 6838   2.708   0.183   1.779 -2.3116 -0.4621  1.2930
 2278TIP3   OH2 6839   0.775   1.224   0.811 -0.1894  0.4288 -0.4213
 2278TIP3    H1 6840   0.807   1.313   0.797 -0.3446  0.6868  0.7798
 2278TIP3    H2 6841   0.771   1.214   0.906  1.8927 -1.6059 -0.4427
 2279TIP3   OH2 6842   3.281   0.389   0.713 -0.1737 -0.0425 -0.0772
 2279TIP3    H1 6843   3.331   0.364   0.635  0.3795 -0.4884  0.4104
 2279TIP3    H2 6844   3.208   0.327   0.714 -0.2116 -0.0036 -0.2660
 2280TIP3   OH2 6845   4.461   0.590   1.230  0.2620 -0.1918  0.5737
 2280TIP3    H1 6846   4.371   0.559   1.240  0.1719  0.0427  0.5171
 2280TIP3    H2 6847   4.464   0.671   1.282  0.7162 -0.7162  1.3730
 2281TIP3   OH2 6848   1.485   5.053   0.516  0.4720 -0.4012  0.1964
 2281TIP3    H1 6849   1.568   5.011   0.540  1.0193 -1.5964 -3.2458
 2281TIP3    H2 6850   1.511   5.139   0.482 -0.0674  0.4485  1.8456
 2282TIP3   OH2 6851   6.214   1.206   3.293  0.2002  0.0524  0.3791
 2282TIP3    H1 6852   6.167   1.138   3.340 -0.4452 -0.0925 -0.4382
 2282TIP3    H2 6853   6.290   1.161   3.255  0.6107  0.1280  1.1051
 2283TIP3   OH2 6854   3.223   5.813   1.906  0.0050  0.4635  0.1414
 2283TIP3    H1 6855   3.265   5.792   1.989  0.6000  2.1509  0.3062
 2283TIP3    H2 6856   3.148   5.753   1.901 -0.0591  0.3611  1.9104
 2284TIP3   OH2 6857   0.926   4.654   1.383  0.8119 -0.5537 -0.2972
 2284TIP3    H1 6858   0.998   4.706   1.349 -0.7593  1.2885 -0.9825
 2284TIP3    H2 6859   0.853   4.715   1.389 -0.7542 -2.3817  0.1954
 2285TIP3   OH2 6860   1.717   3.809   4.597  0.7192 -0.1476  0.1580
 2285TIP3    H1 6861   1.747   3.859   4.521  1.0338 -1.5643 -0.7041
 2285TIP3    H2 6862   1.656   3.745   4.560  2.6829 -2.4592  0.6646
 2286TIP3   OH2 6863   0.193   2.237   4.287 -0.0231  0.3623  0.1632
 2286TIP3    H1 6864   0.140   2.293   4.231 -1.8814 -0.2603  1.2090
 2286TIP3    H2 6865   0.176   2.148   4.254  0.2260  0.1367  0.6319
 2287TIP3   OH2 6866   2.920   1.245   2.609 -0.2886 -0.4256 -0.0881
 2287TIP3    H1 6867   2.964   1.305   2.549 -1.4322  0.8594  0.3043
 2287TIP3    H2 6868   2.872   1.185   2.553 -1.1466  0.6105 -0.5038
 2288TIP3   OH2 6869   3.186   3.747   3.697 -0.1020  0.1906  0.0287
 2288TIP3    H1 6870   3.212   3.808   3.628  0.0285 -0.5190 -0.5722
 2288TIP3    H2 6871   3.250   3.760   3.767  0.3043  0.2980 -0.3607
 2289TIP3   OH2 6872   1.641   2.936   3.843  0.1586  0.1085 -0.4851
 2289TIP3    H1 6873   1.552   2.971   3.853  0.4204  0.4335  0.8710
 2289TIP3    H2 6874   1.656   2.886   3.923 -0.0793 -2.9277 -2.2067
 2290TIP3   OH2 6875   0.802   1.595   4.609  0.2696  0.3180 -0.1426
 2290TIP3    H1 6876   0.719   1.637   4.633 -0.3231 -0.6689 -0.4347
 2290TIP3    H2 6877   0.843   1.574   4.693 -0.5707 -0.7180  0.0361
 2291TIP3   OH2 6878   3.986   3.923  -0.020 -0.1395  0.0454  0.0667
 2291TIP3    H1 6879   3.926   3.956   0.046  0.5287  0.2974  0.5511
 2291TIP3    H2 6880   3.987   3.828  -0.006  1.0001  0.2274  1.2712
 2292TIP3   OH2 6881   1.711   4.720   3.006  0.3237  0.1144  0.0514
 2292TIP3    H1 6882   1.770   4.757   2.940  1.9228 -0.2007  1.2457
 2292TIP3    H2 6883   1.742   4.630   3.018  0.1677  0.2102  1.3130
 2293TIP3   OH2 6884   2.859   1.659   2.973 -0.3937  0.4544  0.7460
 2293TIP3    H1 6885   2.907   1.741   2.959 -2.0969  1.2832 -0.4678
 2293TIP3    H2 6886   2.901   1.597   2.913  1.0531  0.3243  1.8329
 2294TIP3   OH2 6887   4.020   2.366   1.567  0.0583  0.0148  0.3386
 2294TIP3    H1 6888   3.990   2.367   1.476  0.5681  0.3069  0.1711
 2294TIP3    H2 6889   3.954   2.314   1.613 -0.8429  0.8384  0.0181
 2295TIP3   OH2 6890   1.294   1.946   1.587  0.2720 -0.0404 -0.3915
 2295TIP3    H1 6891   1.218   1.891   1.608 -0.3310  0.3150 -1.5557
 2295TIP3    H2 6892   1.262   2.036   1.596  0.8898  0.1238  0.2373
 2296TIP3   OH2 6893   3.142   1.259   3.442 -0.2379 -0.0891 -0.5655
 2296TIP3    H1 6894   3.151   1.246   3.536 -0.1381 -0.7277 -0.6576
 2296TIP3    H2 6895   3.048   1.270   3.428 -0.5900 -2.6137 -0.6783
 2297TIP3   OH2 6896   0.364   3.642   1.204  0.5435  0.5728  0.0099
 2297TIP3    H1 6897   0.351   3.725   1.158  1.5148  0.6825 -0.1014
 2297TIP3    H2 6898   0.314   3.651   1.285 -0.0225  0.9425 -0.3747
 2298TIP3   OH2 6899   1.688   4.824   2.066  0.0226  0.3364  0.2608
 2298TIP3    H1 6900   1.644   4.793   1.987  2.0504 -1.2173 -0.3391
 2298TIP3    H2 6901   1.703   4.744   2.117  0.0469  1.1334  1.5355
 2299TIP3   OH2 6902   2.837   4.600   2.141  0.5515 -0.3579 -0.0209
 2299TIP3    H1 6903   2.926   4.612   2.174  0.7160  1.1469 -0.9379
 2299TIP3    H2 6904   2.796   4.541   2.204  1.9228 -0.3546  0.9098
 2300TIP3   OH2 6905   1.073   1.177   3.364 -0.1307 -0.5768 -0.1063
 2300TIP3    H1 6906   1.140   1.241   3.389 -0.2013 -0.8313  0.7647
 2300TIP3    H2 6907   1.120   1.114   3.309 -0.3262  0.8589 -2.0189
 2301TIP3   OH2 6908   1.992   2.801   3.133 -0.1650  1.0410  0.2358
 2301TIP3    H1 6909   2.041   2.719   3.122 -0.1780  1.1847 -0.9343
 2301TIP3    H2 6910   2.023   2.857   3.063 -2.7364  0.7772 -1.2252
 2302TIP3   OH2 6911   3.922   3.746   2.434 -0.1006 -0.5125 -0.0721
 2302TIP3    H1 6912   3.867   3.711   2.505 -0.4870  1.5582  0.7266
 2302TIP3    H2 6913   3.964   3.823   2.473  2.0338 -1.0284 -1.2115
 2303TIP3   OH2 6914   5.724   2.140   1.159 -0.6134 -0.0761 -0.1209
 2303TIP3    H1 6915   5.765   2.108   1.078  0.4269  0.8919  0.0024
 2303TIP3    H2 6916   5.712   2.062   1.212  0.4031 -0.4863 -0.4681
 2304TIP3   OH2 6917   2.435   1.574   4.568 -0.1270 -1.4661 -0.3706
 2304TIP3    H1 6918   2.470   1.655   4.531 -1.3625 -0.8189 -0.1719
 2304TIP3    H2 6919   2.375   1.541   4.501 -1.2102 -1.0981  0.3866
 2305TIP3   OH2 6920   5.551   3.259   2.535 -0.4625 -0.2139 -0.3803
 2305TIP3    H1 6921   5.561   3.352   2.555  0.8748 -0.6096  0.9555
 2305TIP3    H2 6922   5.459   3.240   2.553 -1.4546  1.3593 -3.1695
 2306TIP3   OH2 6923   4.429   1.284   3.086 -0.5601 -0.3107 -0.2217
 2306TIP3    H1 6924   4.495   1.217   3.102  0.6139  0.7572 -0.3781
 2306TIP3    H2 6925   4.358   1.263   3.147 -0.1222 -1.5357 -0.1084
 2307TIP3   OH2 6926   0.606   3.049   4.282 -0.3515  0.3680  0.4086
 2307TIP3    H1 6927   0.555   3.058   4.201 -0.9720  1.5628  0.9109
 2307TIP3    H2 6928   0.697   3.058   4.254 -0.5755  1.1372 -0.1276
 2308TIP3   OH2 6929   0.419   0.988   2.146  0.0826 -0.4920 -0.0317
 2308TIP3    H1 6930   0.407   1.079   2.116  1.1682  0.2394  1.6187
 2308TIP3    H2 6931   0.371   0.936   2.082 -1.5655  1.3259 -0.3762
 2309TIP3   OH2 6932   1.093   0.790   2.639 -0.5023 -0.7145  0.2266
 2309TIP3    H1 6933   1.002   0.806   2.611 -0.3250  0.2842  0.1956
 2309TIP3    H2 6934   1.105   0.846   2.716  0.3068 -0.2801 -0.2011
 2310TIP3   OH2 6935   0.764   3.352   0.274  0.3329 -0.4758  0.1861
 2310TIP3    H1 6936   0.809   3.435   0.290  0.1882 -0.7357  2.2314
 2310TIP3    H2 6937   0.697   3.348   0.343 -0.3055 -1.8388 -0.4859
 2311TIP3   OH2 6938   3.614   0.716   2.731  0.0616  0.2456 -0.4013
 2311TIP3    H1 6939   3.599   0.784   2.796  1.4942  0.9751 -0.7802
 2311TIP3    H2 6940   3.623   0.635   2.782 -2.4743  0.1286 -0.0089
 2312TIP3   OH2 6941   2.906   2.521   5.056 -0.4891 -0.5816 -0.3623
 2312TIP3    H1 6942   2.895   2.557   4.968 -2.2367  0.8346  0.3875
 2312TIP3    H2 6943   3.000   2.503   5.063 -0.0252  1.0483 -1.8505
 2313TIP3   OH2 6944   4.014   3.771   1.709 -0.3627  0.0139 -0.4804
 2313TIP3    H1 6945   4.038   3.681   1.684  0.9248  0.4319 -0.8779
 2313TIP3    H2 6946   3.938   3.761   1.765 -0.5030 -1.3019 -0.8592
 2314TIP3   OH2 6947   1.396   3.514   3.025  0.1067 -0.2185  0.0942
 2314TIP3    H1 6948   1.313   3.468   3.039  0.8576 -1.4540  0.6185
 2314TIP3    H2 6949   1.371   3.606   3.012 -1.4328 -0.7479 -0.9702
 2315TIP3   OH2 6950   5.096   3.492   3.643  0.6955 -0.1193  0.0950
 2315TIP3    H1 6951   5.090   3.560   3.576  2.8927 -0.7872 -0.8761
 2315TIP3    H2 6952   5.138   3.535   3.718  0.9578 -0.0922 -0.0663
 2316TIP3   OH2 6953   2.498   5.255   1.609 -0.6126 -0.0192 -0.7731
 2316TIP3    H1 6954   2.540   5.190   1.664 -0.9477  0.3524 -0.0680
 2316TIP3    H2 6955   2.498   5.216   1.521  0.7573 -0.2332 -0.7107
 2317TIP3   OH2 6956   3.554   4.423   3.807  0.1238  0.3042 -0.1206
 2317TIP3    H1 6957   3.539   4.435   3.901 -0.9907  2.7054 -0.5093
 2317TIP3    H2 6958   3.466   4.414   3.770  0.5087  0.1535 -1.0113
 2318TIP3   OH2 6959   2.933   1.809   2.052 -0.0949 -0.4158 -0.1599
 2318TIP3    H1 6960   2.992   1.774   1.985 -0.2248 -0.8660 -0.0399
 2318TIP3    H2 6961   2.864   1.854   2.002  0.3143  0.0624 -0.3007
 2319TIP3   OH2 6962   1.522   0.629   4.054 -0.2735  0.9022 -0.3286
 2319TIP3    H1 6963   1.543   0.563   4.120  0.0196  0.3384 -0.9764
 2319TIP3    H2 6964   1.487   0.579   3.981  1.1279  1.3307 -1.3275
 2320TIP3   OH2 6965   0.379   4.066   1.130 -0.2829 -0.3281  0.2816
 2320TIP3    H1 6966   0.287   4.093   1.123 -0.1460 -0.2439 -1.6014
 2320TIP3    H2 6967   0.405   4.094   1.218 -0.4579  4.7991 -1.0174
 2321TIP3   OH2 6968   4.073   3.482   2.669 -0.5101 -0.1973  0.0308
 2321TIP3    H1 6969   4.116   3.556   2.627 -1.8029  0.7721  0.3476
 2321TIP3    H2 6970   3.989   3.474   2.624 -0.7904 -0.8629  0.6455
 2322TIP3   OH2 6971   0.344   1.821   1.420  0.3759 -0.3613 -0.0019
 2322TIP3    H1 6972   0.288   1.862   1.486  1.0861 -0.4500  0.6673
 2322TIP3    H2 6973   0.353   1.731   1.449  1.1092 -0.2732  0.0607
 2323TIP3   OH2 6974   2.583   2.269   1.727 -0.3438  0.0886  0.2893
 2323TIP3    H1 6975   2.678   2.272   1.738 -0.5300  2.1518  2.1671
 2323TIP3    H2 6976   2.560   2.177   1.734  1.3285 -0.2578  2.1734
 2324TIP3   OH2 6977   3.630   2.559   1.678  0.9042 -0.2516  0.1495
 2324TIP3    H1 6978   3.655   2.538   1.769  1.0919 -1.5862 -0.1839
 2324TIP3    H2 6979   3.646   2.653   1.670 -1.7124  0.4903  2.3088
 2325TIP3   OH2 6980   4.383   1.748   2.515  0.4280  0.0094 -0.6811
 2325TIP3    H1 6981   4.421   1.826   2.555  0.0361 -0.8495  1.4975
 2325TIP3    H2 6982   4.459   1.693   2.494  0.5867 -0.0778  0.1047
 2326TIP3   OH2 6983   2.646   5.664   4.315  0.7123 -0.3827 -0.0135
 2326TIP3    H1 6984   2.705   5.611   4.262  0.1378 -1.8862  0.7872
 2326TIP3    H2 6985   2.702   5.703   4.383  1.5135  1.8206 -1.8038
 2327TIP3   OH2 6986   1.370   5.444   1.685  0.0943 -0.0124  0.7829
 2327TIP3    H1 6987   1.440   5.380   1.695 -0.1235 -0.2629  0.7180
 2327TIP3    H2 6988   1.309   5.403   1.624 -0.7526 -0.3474  1.8212
 2328TIP3   OH2 6989   0.667   1.112   1.900 -0.0220  0.3012  0.1308
 2328TIP3    H1 6990   0.667   1.156   1.815 -0.5272 -0.3326 -0.2103
 2328TIP3    H2 6991   0.650   1.182   1.963  0.0525  0.7285 -0.3185
 2329TIP3   OH2 6992   4.825   4.800   0.811  0.7416 -0.2367  0.8294
 2329TIP3    H1 6993   4.917   4.780   0.794  0.6803  0.0430  0.1648
 2329TIP3    H2 6994   4.820   4.809   0.906  1.2358 -1.0593  0.9419
 2330TIP3   OH2 6995   1.250   5.678   4.786 -0.8218  0.2109 -0.0623
 2330TIP3    H1 6996   1.261   5.773   4.792 -0.3469  0.1018  0.9288
 2330TIP3    H2 6997   1.155   5.664   4.784 -0.8928  0.6905 -0.0676
 2331TIP3   OH2 6998   5.987   5.902   2.211  0.3068 -0.1084 -0.2332
 2331TIP3    H1 6999   6.039   5.822   2.209 -0.6025 -0.7105 -0.0458
 2331TIP3    H2 7000   5.897   5.873   2.221  0.0210  0.9593  0.5650
 2332TIP3   OH2 7001   0.883   2.841   1.331 -0.0512  0.1574  0.1293
 2332TIP3    H1 7002   0.808   2.868   1.384 -1.9945 -1.5775 -1.5614
 2332TIP3    H2 7003   0.930   2.778   1.386  0.0999  1.1060  1.1258
 2333TIP3   OH2 7004   2.248   3.603   0.176  0.3793  0.0940 -0.0419
 2333TIP3    H1 7005   2.318   3.666   0.196 -0.0825  0.5726  0.0807
 2333TIP3    H2 7006   2.217   3.628   0.089  0.2627 -0.0321 -0.0360
 2334TIP3   OH2 7007   3.537   3.328   5.085  0.0539  0.4869  0.1877
 2334TIP3    H1 7008   3.487   3.382   5.145 -0.1225  0.2954  0.2144
 2334TIP3    H2 7009   3.601   3.283   5.140  0.5733  1.0905  0.0887
 2335TIP3   OH2 7010   0.997   1.300   4.961 -0.4501  0.3857  0.2657
 2335TIP3    H1 7011   0.921   1.310   5.018 -1.2914  2.7868 -1.1130
 2335TIP3    H2 7012   0.973   1.229   4.901  0.0441 -1.4734  2.1429
 2336TIP3   OH2 7013   4.799   4.090   3.929  0.2870  0.6337  0.1263
 2336TIP3    H1 7014   4.823   4.006   3.968 -0.4458 -0.1672 -1.0769
 2336TIP3    H2 7015   4.879   4.142   3.932  1.3263 -0.8353 -0.9415
 2337TIP3   OH2 7016   3.688   0.486   1.721 -0.2889  0.2991  0.4005
 2337TIP3    H1 7017   3.619   0.530   1.770 -0.7468  0.2189 -0.1615
 2337TIP3    H2 7018   3.713   0.412   1.777 -1.6164 -0.4707  0.0155
 2338TIP3   OH2 7019   3.047   2.975   2.159 -0.3734  0.0323  0.1746
 2338TIP3    H1 7020   3.117   3.035   2.185 -0.7572  0.2961  0.6274
 2338TIP3    H2 7021   3.074   2.891   2.196  1.8017 -0.9153 -3.1697
 2339TIP3   OH2 7022   5.155   0.820   2.171 -0.1276 -0.4893  0.2497
 2339TIP3    H1 7023   5.139   0.777   2.255  0.5504 -1.4749 -0.1076
 2339TIP3    H2 7024   5.182   0.749   2.113 -0.0841  0.2628 -0.6624
 2340TIP3   OH2 7025   1.576   5.347   4.766 -0.2279 -0.4251  0.0386
 2340TIP3    H1 7026   1.555   5.256   4.788 -1.5045  0.0403  0.8567
 2340TIP3    H2 7027   1.514   5.399   4.818 -1.6115  0.8403 -2.6694
 2341TIP3   OH2 7028   0.994   5.256   2.531 -0.2631  0.0287  0.4395
 2341TIP3    H1 7029   0.948   5.173   2.519  1.0041 -1.3268  3.9026
 2341TIP3    H2 7030   1.084   5.239   2.503  0.6107 -0.6269  3.3811
 2342TIP3   OH2 7031   3.132   1.812   4.847  0.2067 -0.1801  0.4942
 2342TIP3    H1 7032   3.112   1.718   4.853  1.1121 -0.6195 -2.0485
 2342TIP3    H2 7033   3.227   1.815   4.836  0.0588  0.9316 -0.6946
 2343TIP3   OH2 7034   5.344   5.876   4.573  0.0005  0.2944  0.0053
 2343TIP3    H1 7035   5.316   5.789   4.545 -1.1284  0.4483  0.5928
 2343TIP3    H2 7036   5.435   5.865   4.599  0.3590 -0.3546 -1.4469
 2344TIP3   OH2 7037   1.673   0.144   0.877 -0.2271 -0.2730  0.2866
 2344TIP3    H1 7038   1.614   0.077   0.912 -1.1134  0.6505  0.6384
 2344TIP3    H2 7039   1.713   0.183   0.955 -0.6514  0.4207  0.1634
 2345TIP3   OH2 7040   0.333   5.626   1.028 -0.5484  0.0834  0.5967
 2345TIP3    H1 7041   0.294   5.664   0.949 -0.5421  2.0255  1.4728
 2345TIP3    H2 7042   0.399   5.565   0.994 -1.5878 -0.2832 -0.8832
 2346TIP3   OH2 7043   4.478   0.278   1.342 -0.2171 -1.0489  0.1737
 2346TIP3    H1 7044   4.482   0.311   1.252 -1.0832  0.3562  0.6187
 2346TIP3    H2 7045   4.532   0.339   1.393  0.6117 -2.0756  0.5538
 2347TIP3   OH2 7046   3.716   3.043   3.020  0.2630 -0.0920  0.9471
 2347TIP3    H1 7047   3.717   3.139   3.018 -2.0352 -0.0239 -0.7945
 2347TIP3    H2 7048   3.789   3.017   2.964 -0.5285  0.7104 -0.5115
 2348TIP3   OH2 7049   3.887   0.204   3.050 -0.0945  0.0889  0.5292
 2348TIP3    H1 7050   3.890   0.132   2.987  0.5903 -0.5460  1.2496
 2348TIP3    H2 7051   3.865   0.161   3.133 -0.7336  0.8699  0.7744
 2349TIP3   OH2 7052   3.847   2.842   5.004 -0.2236 -0.0032  0.0897
 2349TIP3    H1 7053   3.865   2.748   5.006  1.0333  0.1372 -2.0448
 2349TIP3    H2 7054   3.751   2.848   5.010 -0.3015 -1.3840  0.6138
 2350TIP3   OH2 7055   5.649   3.271   4.823 -0.0786 -0.6812  0.1117
 2350TIP3    H1 7056   5.695   3.307   4.747 -0.5538 -0.8927 -0.2789
 2350TIP3    H2 7057   5.558   3.263   4.795 -0.0635 -1.7587  0.3427
 2351TIP3   OH2 7058   2.435   5.093   3.890  0.2028  0.2133 -0.4424
 2351TIP3    H1 7059   2.465   5.134   3.971 -0.1998 -2.0969  0.9818
 2351TIP3    H2 7060   2.441   5.162   3.824  2.6867  1.5893  1.0500
 2352TIP3   OH2 7061   3.793   1.150   0.814 -0.4307 -0.7367  0.5680
 2352TIP3    H1 7062   3.883   1.132   0.840  0.3453  0.3080 -1.2839
 2352TIP3    H2 7063   3.784   1.110   0.728 -1.9663 -1.3962  0.9933
 2353TIP3   OH2 7064   6.052   4.182   2.137 -0.3437  0.8382  0.5317
 2353TIP3    H1 7065   6.127   4.230   2.101  0.7631 -0.9934  0.2285
 2353TIP3    H2 7066   5.976   4.222   2.096  0.6857  0.8646 -1.4813
 2354TIP3   OH2 7067   3.859   5.114   3.112  0.0683  0.1777  0.2744
 2354TIP3    H1 7068   3.781   5.129   3.058 -0.2483  0.6963  0.8692
 2354TIP3    H2 7069   3.857   5.021   3.133 -0.3653  0.1835  0.2519
 2355TIP3   OH2 7070   4.642   1.551   2.297 -0.2750 -0.5672  0.3066
 2355TIP3    H1 7071   4.563   1.578   2.251 -0.1857 -0.3680  0.2663
 2355TIP3    H2 7072   4.670   1.629   2.345  0.5525 -0.2678 -0.6195
 2356TIP3   OH2 7073   3.258   1.258   2.999 -0.2827 -0.0814 -0.1603
 2356TIP3    H1 7074   3.235   1.342   2.960 -0.7920 -1.3176 -2.6981
 2356TIP3    H2 7075   3.205   1.253   3.078 -0.9206  1.5681 -0.4392
 2357TIP3   OH2 7076   4.323   1.458   1.333 -0.0009 -0.5360 -0.0354
 2357TIP3    H1 7077   4.233   1.479   1.358  0.1228 -0.7591  0.6270
 2357TIP3    H2 7078   4.353   1.398   1.402  0.3101 -1.2842 -0.8081
 2358TIP3   OH2 7079   1.097   3.045   4.527 -0.1490  0.7735 -0.0684
 2358TIP3    H1 7080   1.147   3.096   4.464  0.7940  0.9051  0.7638
 2358TIP3    H2 7081   1.161   2.986   4.566 -1.3827 -1.8420 -1.7323
 2359TIP3   OH2 7082   3.622   2.778   1.521  0.1404  0.5533  0.1614
 2359TIP3    H1 7083   3.550   2.763   1.460  0.6880 -1.7050 -0.0146
 2359TIP3    H2 7084   3.690   2.716   1.493  0.4632 -0.4888  2.9668
 2360TIP3   OH2 7085   5.327   5.126   4.781 -0.2081  0.3949 -0.4025
 2360TIP3    H1 7086   5.330   5.065   4.855 -1.9671 -2.0465 -2.1866
 2360TIP3    H2 7087   5.405   5.106   4.730  0.2595  1.0707  0.0418
 2361TIP3   OH2 7088   6.169   5.821   2.818 -0.2241  0.0562  0.4377
 2361TIP3    H1 7089   6.111   5.753   2.783 -1.7855  0.8482  1.3915
 2361TIP3    H2 7090   6.192   5.789   2.906  0.4883 -0.0627  0.2138
 2362TIP3   OH2 7091   5.920   2.227   3.713  0.0169  0.0429  0.0004
 2362TIP3    H1 7092   5.899   2.136   3.692  0.2792  0.2892 -1.3768
 2362TIP3    H2 7093   5.856   2.279   3.663  0.1601  0.6361  0.4178
 2363TIP3   OH2 7094   3.522   5.921   0.510 -0.0401 -0.5637 -0.1593
 2363TIP3    H1 7095   3.460   5.914   0.582 -2.3490 -1.7067 -2.1114
 2363TIP3    H2 7096   3.491   5.857   0.445  1.1711  1.1960 -2.6494
 2364TIP3   OH2 7097   4.631   4.501   3.794 -0.4374 -0.2624  1.0066
 2364TIP3    H1 7098   4.723   4.483   3.775  0.3267  2.9184  1.1261
 2364TIP3    H2 7099   4.618   4.469   3.884  0.6814 -0.3718  1.1428
 2365TIP3   OH2 7100   6.237   0.010   1.609 -0.2335  0.0387 -0.6456
 2365TIP3    H1 7101   6.197   0.019   1.523 -2.8820 -0.9770  0.3701
 2365TIP3    H2 7102   6.239   0.098   1.645 -0.9256  0.1963 -0.9935
 2366TIP3   OH2 7103   0.733   0.451   2.564 -0.0027  0.2613 -0.4749
 2366TIP3    H1 7104   0.690   0.536   2.569  0.8203  0.6829 -0.4310
 2366TIP3    H2 7105   0.806   0.457   2.625  0.1190 -0.4426 -0.5449
 2367TIP3   OH2 7106   1.596   3.234   1.026 -0.6335 -0.5838  0.6294
 2367TIP3    H1 7107   1.680   3.197   1.054 -0.1707  0.7951  1.1421
 2367TIP3    H2 7108   1.575   3.187   0.945  0.6039 -0.9772  0.5184
 2368TIP3   OH2 7109   1.140   3.306   3.313  0.8408  0.1328  0.2260
 2368TIP3    H1 7110   1.085   3.330   3.387 -0.7376 -1.7196 -0.2618
 2368TIP3    H2 7111   1.205   3.245   3.349 -0.4819 -1.4823  0.0114
 2369TIP3   OH2 7112   2.202   1.586   1.474 -0.1450 -0.7221  0.3361
 2369TIP3    H1 7113   2.260   1.553   1.542  2.3055  0.7978 -0.8620
 2369TIP3    H2 7114   2.234   1.545   1.393 -1.9379 -1.2301 -0.1605
 2370TIP3   OH2 7115   0.811   2.404   3.201 -0.2864  0.7575  0.6817
 2370TIP3    H1 7116   0.821   2.382   3.109  0.8753  0.1407  0.9387
 2370TIP3    H2 7117   0.718   2.387   3.220 -0.0326 -1.3776  0.2076
 2371TIP3   OH2 7118   4.940   4.326   0.172 -0.0745 -0.1198  0.1619
 2371TIP3    H1 7119   4.964   4.299   0.261 -0.6876  1.5746  0.9013
 2371TIP3    H2 7120   4.867   4.269   0.149  1.0481 -1.5880  0.1164
 2372TIP3   OH2 7121   4.214   4.587   2.109  0.0574 -0.2215 -0.1563
 2372TIP3    H1 7122   4.187   4.663   2.058  2.4827 -0.2214 -1.6206
 2372TIP3    H2 7123   4.310   4.587   2.102  0.1320 -3.8239 -0.8444
 2373TIP3   OH2 7124   0.133   2.577   3.521 -0.1369  0.2289 -0.6231
 2373TIP3    H1 7125   0.204   2.540   3.574 -0.6711 -2.4466 -1.6409
 2373TIP3    H2 7126   0.069   2.608   3.585  0.6368  0.0048  0.2890
 2374TIP3   OH2 7127   4.934   2.942   4.346  0.1047  0.0939 -0.3379
 2374TIP3    H1 7128   4.866   2.877   4.361 -0.9423  0.8202 -1.7666
 2374TIP3    H2 7129   4.949   2.982   4.431 -0.0112 -1.2438  0.3334
 2375TIP3   OH2 7130   2.189   5.237   1.212  0.0913  0.4895  0.4604
 2375TIP3    H1 7131   2.125   5.170   1.237  0.2740  0.3695  0.6117
 2375TIP3    H2 7132   2.167   5.313   1.266  0.5752  0.1820  1.1054
 2376TIP3   OH2 7133   5.124   1.104   2.910  0.1564 -0.0785 -0.6913
 2376TIP3    H1 7134   5.198   1.091   2.969 -1.1631 -1.3346  0.7588
 2376TIP3    H2 7135   5.071   1.172   2.953 -0.0044  0.1720 -1.2708
 2377TIP3   OH2 7136   2.634   5.550   3.234  0.3007  0.2527 -0.8887
 2377TIP3    H1 7137   2.646   5.474   3.177  0.1721 -1.4794  1.2614
 2377TIP3    H2 7138   2.714   5.601   3.223  0.8313 -0.7063 -1.6445
 2378TIP3   OH2 7139   3.286   4.862   1.434 -0.8162 -0.0287 -0.4933
 2378TIP3    H1 7140   3.368   4.853   1.483 -0.9034  0.6758 -0.2189
 2378TIP3    H2 7141   3.277   4.956   1.418 -1.0225 -0.1974 -1.4649
 2379TIP3   OH2 7142   2.587   4.958   1.067  0.3883 -0.2443  0.1079
 2379TIP3    H1 7143   2.631   4.890   1.017  0.0991 -0.3796  0.0341
 2379TIP3    H2 7144   2.502   4.921   1.089  0.7305 -0.4326  1.2221
 2380TIP3   OH2 7145   3.406   4.121   5.116  0.1066  0.1573  0.0840
 2380TIP3    H1 7146   3.355   4.133   5.196 -0.0065 -0.2768  0.0778
 2380TIP3    H2 7147   3.434   4.209   5.093  0.9885  0.1859  1.1569
 2381TIP3   OH2 7148   6.126   0.602   4.856  0.2383  0.4151  0.0720
 2381TIP3    H1 7149   6.062   0.668   4.831  0.0027  0.1365 -0.0699
 2381TIP3    H2 7150   6.167   0.637   4.936  0.7800  1.1640 -0.5103
 2382TIP3   OH2 7151   3.192   5.749   4.460 -0.1427  0.2677  0.0802
 2382TIP3    H1 7152   3.204   5.743   4.554  0.4910 -0.3578 -0.0346
 2382TIP3    H2 7153   3.281   5.752   4.424 -0.3714 -0.0094 -0.5233
 2383TIP3   OH2 7154   0.743   1.232   4.833  0.1320 -0.0683  0.4389
 2383TIP3    H1 7155   0.732   1.155   4.776 -0.9643  1.0509 -0.9749
 2383TIP3    H2 7156   0.675   1.222   4.899 -1.4690  0.6592 -0.9944
 2384TIP3   OH2 7157   4.194   2.976   3.996  0.7848  1.1695 -0.6047
 2384TIP3    H1 7158   4.251   3.039   3.952  0.4022 -0.1447 -3.1913
 2384TIP3    H2 7159   4.253   2.926   4.053  1.3796  2.6508  0.1410
 2385TIP3   OH2 7160   5.909   5.727   4.185  0.4374 -0.1754  0.1209
 2385TIP3    H1 7161   5.883   5.655   4.242  1.7904 -0.7493  0.0506
 2385TIP3    H2 7162   5.917   5.803   4.243 -1.1353 -0.0137  0.1706
 2386TIP3   OH2 7163   4.790   1.981   4.888  0.0677  0.3784  0.2665
 2386TIP3    H1 7164   4.734   1.939   4.822  1.4397  0.6186 -1.1024
 2386TIP3    H2 7165   4.859   2.024   4.838  1.0504  0.7616  1.8587
 2387TIP3   OH2 7166   2.292   5.612   3.958  0.1047  0.3060  0.4592
 2387TIP3    H1 7167   2.344   5.593   4.037 -0.1572  0.0087  0.5601
 2387TIP3    H2 7168   2.222   5.547   3.959  0.5351 -0.1889 -0.4350
 2388TIP3   OH2 7169   1.666   5.135   4.968 -0.0979 -0.1713 -0.3139
 2388TIP3    H1 7170   1.693   5.209   5.022 -1.4417 -1.0165  1.6714
 2388TIP3    H2 7171   1.581   5.109   5.004  0.4506 -2.8641 -0.6995
 2389TIP3   OH2 7172   5.675   2.835   0.794 -0.0749 -0.3744  0.1918
 2389TIP3    H1 7173   5.745   2.829   0.858  0.0900 -0.5352 -0.0017
 2389TIP3    H2 7174   5.596   2.810   0.841 -0.4258  2.1458  1.0869
 2390TIP3   OH2 7175   3.427   5.413   1.430  0.0872 -0.4169  0.2466
 2390TIP3    H1 7176   3.462   5.489   1.384 -0.9794 -1.2005 -2.0387
 2390TIP3    H2 7177   3.344   5.394   1.385  0.1833 -2.7388  0.9014
 2391TIP3   OH2 7178   3.194   5.698   2.498  0.2254  0.7047  0.6762
 2391TIP3    H1 7179   3.106   5.661   2.506  0.5386  0.2207  2.1938
 2391TIP3    H2 7180   3.182   5.777   2.445 -0.7636 -0.4732 -0.9385
 2392TIP3   OH2 7181   3.937   2.890   4.068  0.5298  0.1772 -0.8219
 2392TIP3    H1 7182   3.953   2.800   4.040  0.3308 -0.1825  0.1705
 2392TIP3    H2 7183   4.019   2.918   4.108 -0.6509 -1.1815  2.9835
 2393TIP3   OH2 7184   3.347   5.046   3.235  0.0435 -0.0728 -0.1654
 2393TIP3    H1 7185   3.383   4.974   3.182  1.6654  1.5644 -1.3894
 2393TIP3    H2 7186   3.285   5.003   3.294  1.7477 -2.6591 -0.0761
 2394TIP3   OH2 7187   2.931   4.005   3.034 -0.0691  0.1157  0.1294
 2394TIP3    H1 7188   2.896   3.939   3.094 -0.4415 -0.2896 -0.5243
 2394TIP3    H2 7189   2.952   3.957   2.955  0.8537  0.5670  0.0780
 2395TIP3   OH2 7190   0.349   4.849   2.587 -0.2235  0.0521  0.5117
 2395TIP3    H1 7191   0.270   4.798   2.606 -0.4029  0.2260  0.2297
 2395TIP3    H2 7192   0.380   4.815   2.503  0.7893 -0.9878  1.2602
 2396TIP3   OH2 7193   1.252   5.594   5.089 -0.6464  0.3446  0.3291
 2396TIP3    H1 7194   1.250   5.689   5.101 -1.6562  0.2354  1.2067
 2396TIP3    H2 7195   1.214   5.559   5.169 -0.6305 -0.7886 -0.1382
 2397TIP3   OH2 7196   5.621   5.934   4.331  0.5868  0.7476 -0.0735
 2397TIP3    H1 7197   5.631   5.843   4.358 -1.3127  0.1248 -1.2486
 2397TIP3    H2 7198   5.578   5.976   4.406  1.4311  0.6844  0.4562
 2398TIP3   OH2 7199   0.303   5.946   4.851 -0.8166 -0.2277  0.5932
 2398TIP3    H1 7200   0.384   5.898   4.865 -0.0006  0.8208 -0.3533
 2398TIP3    H2 7201   0.258   5.896   4.783 -1.4818 -1.3784  1.8279
 2399TIP3   OH2 7202   4.576   1.513   0.310  0.4256 -0.2396 -0.5896
 2399TIP3    H1 7203   4.547   1.466   0.232 -1.7207 -0.4500  0.2618
 2399TIP3    H2 7204   4.588   1.445   0.376 -0.0010  0.1192 -0.1283
 2400TIP3   OH2 7205   4.050   5.927   4.250  0.0706  0.5565 -0.0347
 2400TIP3    H1 7206   4.070   5.956   4.161  0.5037  2.6798  0.6810
 2400TIP3    H2 7207   4.028   5.835   4.241 -0.6964  0.9006 -2.4476
 2401TIP3   OH2 7208   0.651   2.530   2.605  0.3014  0.2590 -0.1469
 2401TIP3    H1 7209   0.686   2.571   2.526 -2.9872 -1.1902 -2.5597
 2401TIP3    H2 7210   0.569   2.575   2.622 -0.1180 -0.9127  1.1574
 2402TIP3   OH2 7211   5.591   2.641   3.454 -0.5317  0.2354 -0.4697
 2402TIP3    H1 7212   5.565   2.601   3.371  1.2187 -3.6437  0.5835
 2402TIP3    H2 7213   5.515   2.692   3.481 -2.8452 -1.8772 -2.4455
 2403TIP3   OH2 7214   5.712   4.606   1.813 -0.3798 -0.5299  0.3438
 2403TIP3    H1 7215   5.743   4.613   1.903  0.3193  1.0151  0.0142
 2403TIP3    H2 7216   5.638   4.545   1.818 -0.9104  0.1811  2.1144
 2404TIP3   OH2 7217   4.364   5.944   1.798 -0.2740 -0.4989  0.2369
 2404TIP3    H1 7218   4.307   5.937   1.875 -0.2442  0.3188  0.3409
 2404TIP3    H2 7219   4.305   5.958   1.725 -0.2522 -0.3932  0.2391
 2405TIP3   OH2 7220   5.110   1.541   3.942 -0.6628  0.0601 -0.0054
 2405TIP3    H1 7221   5.188   1.555   3.887 -1.1392  1.2326 -0.4292
 2405TIP3    H2 7222   5.067   1.465   3.903 -0.8459  0.7055 -1.1184
 2406TIP3   OH2 7223   3.323   0.758   1.522  0.1237 -0.4808 -0.1736
 2406TIP3    H1 7224   3.399   0.701   1.507  0.4144 -0.2486  0.3841
 2406TIP3    H2 7225   3.263   0.705   1.574 -0.9479 -1.3373 -2.1611
 2407TIP3   OH2 7226   2.793   4.615   0.969 -0.1035 -0.0424 -1.0382
 2407TIP3    H1 7227   2.764   4.557   0.898 -1.4113  0.1488 -0.6777
 2407TIP3    H2 7228   2.760   4.701   0.945 -2.2779 -0.3185  0.7325
 2408TIP3   OH2 7229   3.497   3.117   1.855 -0.3792 -0.6454  0.6671
 2408TIP3    H1 7230   3.550   3.141   1.779 -0.7857 -0.6521  0.3807
 2408TIP3    H2 7231   3.531   3.171   1.926 -0.7614  0.2162  0.2140
 2409TIP3   OH2 7232   5.878   1.156   2.377 -0.2275 -0.5648 -0.2596
 2409TIP3    H1 7233   5.867   1.242   2.417  2.4746  0.2868 -1.1968
 2409TIP3    H2 7234   5.844   1.095   2.442 -2.1691  1.1378  0.4458
 2410TIP3   OH2 7235   4.599   4.077   0.685  0.3708 -0.1826  0.0266
 2410TIP3    H1 7236   4.657   4.062   0.610 -1.8905 -1.5775 -1.5409
 2410TIP3    H2 7237   4.545   4.152   0.659  0.7916  0.5216  1.0892
 2411TIP3   OH2 7238   5.123   5.516   2.469  0.2442 -0.5208 -0.2201
 2411TIP3    H1 7239   5.072   5.490   2.392 -0.1652 -0.4298  0.0179
 2411TIP3    H2 7240   5.183   5.444   2.483 -0.3768 -1.0069 -0.0146
 2412TIP3   OH2 7241   1.509   2.453   4.925 -0.2262  0.7919  0.0672
 2412TIP3    H1 7242   1.536   2.521   4.987 -0.6632 -1.7152  3.2810
 2412TIP3    H2 7243   1.555   2.374   4.955 -0.8813 -0.6916 -2.5587
 2413TIP3   OH2 7244   0.946   5.534   1.822 -0.1019 -0.4798  0.0885
 2413TIP3    H1 7245   1.006   5.466   1.851  1.1762  0.9886  1.0102
 2413TIP3    H2 7246   0.961   5.540   1.727  1.6806  0.2634  0.3837
 2414TIP3   OH2 7247   3.485   4.188   4.262 -0.1896 -0.1039 -0.3391
 2414TIP3    H1 7248   3.481   4.193   4.358 -1.5568 -2.2414 -0.2195
 2414TIP3    H2 7249   3.514   4.275   4.235 -1.2116  1.0352  1.9377
 2415TIP3   OH2 7250   3.693   4.619   1.833  0.6756  0.5229 -0.3845
 2415TIP3    H1 7251   3.673   4.526   1.822  2.5323 -0.0004  0.1958
 2415TIP3    H2 7252   3.615   4.656   1.874  0.2438 -0.9731  0.2121
 2416TIP3   OH2 7253   1.050   0.222   0.582 -0.3066 -0.4358  0.7280
 2416TIP3    H1 7254   1.127   0.176   0.549 -0.7610  0.1213 -1.2323
 2416TIP3    H2 7255   1.036   0.185   0.670  2.5318 -0.1164  1.4241
 2417TIP3   OH2 7256   4.003   5.188   0.907  0.3492 -0.4535  0.2464
 2417TIP3    H1 7257   3.917   5.225   0.889 -0.1817 -0.1567  2.9818
 2417TIP3    H2 7258   4.064   5.259   0.890 -0.1900  0.1013  0.6025
 2418TIP3   OH2 7259   1.654   5.237   0.384  0.5863 -0.6382 -0.3914
 2418TIP3    H1 7260   1.673   5.299   0.455 -2.1171 -2.3446  2.0247
 2418TIP3    H2 7261   1.625   5.292   0.311 -0.6001  1.0692  1.2745
 2419TIP3   OH2 7262   1.220   1.975   3.432 -0.2051 -0.3327 -0.1824
 2419TIP3    H1 7263   1.132   1.939   3.425  0.6786 -2.5422 -0.5924
 2419TIP3    H2 7264   1.243   1.998   3.342 -0.2907  0.1022 -0.0958
 2420TIP3   OH2 7265   3.149   3.172   1.091  0.2208  0.7663 -0.4463
 2420TIP3    H1 7266   3.126   3.149   1.181  0.7227  1.1801 -0.2128
 2420TIP3    H2 7267   3.239   3.143   1.081 -0.0769  0.0152 -1.0646
 2421TIP3   OH2 7268   1.374   4.872   1.323  0.4044  0.1914  0.1725
 2421TIP3    H1 7269   1.370   4.900   1.232 -0.7250 -0.0493  0.1270
 2421TIP3    H2 7270   1.293   4.823   1.336  2.1724 -2.8872  0.3297
 2422TIP3   OH2 7271   4.923   4.907   3.865 -0.3493 -0.3525  0.2683
 2422TIP3    H1 7272   4.964   4.868   3.787 -1.1445  1.5675 -1.1859
 2422TIP3    H2 7273   4.843   4.857   3.877 -1.2523  0.5923 -1.4483
 2423TIP3   OH2 7274   3.140   1.294   4.041  0.1428  0.4779  0.4276
 2423TIP3    H1 7275   3.176   1.268   4.126  0.4605  2.4366  0.9243
 2423TIP3    H2 7276   3.216   1.303   3.984 -0.1542 -2.1712 -0.5329
 2424TIP3   OH2 7277   5.246   0.441   2.525  0.2675  0.2451  0.4046
 2424TIP3    H1 7278   5.180   0.372   2.516 -0.4927  0.7411  1.7979
 2424TIP3    H2 7279   5.260   0.447   2.620  1.4219  0.9970  0.1991
 2425TIP3   OH2 7280   3.157   3.050   4.956 -0.3332 -0.3719 -0.2931
 2425TIP3    H1 7281   3.179   3.012   4.871 -0.6529  2.0026 -1.5236
 2425TIP3    H2 7282   3.061   3.051   4.957 -0.3918 -2.6649  1.2304
 2426TIP3   OH2 7283   4.277   0.502   3.308  0.5865  0.2663  0.1190
 2426TIP3    H1 7284   4.232   0.421   3.331 -0.0121  1.0443  1.8431
 2426TIP3    H2 7285   4.333   0.479   3.233  0.5444 -1.7471  0.6738
 2427TIP3   OH2 7286   0.464   0.401   0.673  0.0517 -0.0239  0.7748
 2427TIP3    H1 7287   0.494   0.366   0.590  0.3256  1.4391  0.2222
 2427TIP3    H2 7288   0.441   0.492   0.654 -0.5916  0.1264  2.1354
 2428TIP3   OH2 7289   1.271   1.676   3.406 -0.1133  0.0998 -0.4039
 2428TIP3    H1 7290   1.358   1.638   3.392  0.2273  0.7020  0.0065
 2428TIP3    H2 7291   1.282   1.732   3.483 -1.3045 -1.1735  0.7488
 2429TIP3   OH2 7292   3.231   1.694   2.740 -0.0703  0.1945  0.5734
 2429TIP3    H1 7293   3.199   1.712   2.652  0.0387  0.6130  0.6142
 2429TIP3    H2 7294   3.325   1.680   2.729 -0.2312 -0.8366  0.4789
 2430TIP3   OH2 7295   4.701   2.793   0.076 -0.0802  0.1467  0.4318
 2430TIP3    H1 7296   4.757   2.858   0.034  0.0825  1.1130  2.0791
 2430TIP3    H2 7297   4.654   2.841   0.144 -1.7617 -0.9723  0.1376
 2431TIP3   OH2 7298   3.525   3.211   4.117 -0.3507 -0.0347 -0.2617
 2431TIP3    H1 7299   3.610   3.166   4.113  0.4679  1.4132  0.0979
 2431TIP3    H2 7300   3.461   3.140   4.110  0.8747 -1.1964 -0.3384
 2432TIP3   OH2 7301   3.546   1.993   3.508 -0.4004 -0.2055 -0.7904
 2432TIP3    H1 7302   3.605   1.950   3.447 -0.9788 -1.0885 -0.7511
 2432TIP3    H2 7303   3.481   2.036   3.452 -1.0027 -1.1194 -0.8098
 2433TIP3   OH2 7304   0.765   1.744   2.941  0.1448  0.2466 -0.4031
 2433TIP3    H1 7305   0.814   1.818   2.905 -1.6518  1.3332 -0.7733
 2433TIP3    H2 7306   0.817   1.667   2.919  0.7635  1.1692 -2.4127
 2434TIP3   OH2 7307   4.563   0.778   3.596 -0.5063  0.2713 -0.1195
 2434TIP3    H1 7308   4.483   0.775   3.543  0.0220 -1.2432 -0.8586
 2434TIP3    H2 7309   4.545   0.720   3.670 -0.4150  0.6284  0.1848
 2435TIP3   OH2 7310   4.733   0.866   0.406  0.1920 -0.0155 -0.1420
 2435TIP3    H1 7311   4.776   0.951   0.418  0.5415  0.1807 -2.3744
 2435TIP3    H2 7312   4.656   0.871   0.463  0.9723  1.2000  0.8812
 2436TIP3   OH2 7313   6.170   1.354   2.361  0.0570  0.2076  0.6372
 2436TIP3    H1 7314   6.160   1.283   2.424  0.3363 -1.1470 -0.7892
 2436TIP3    H2 7315   6.083   1.366   2.324  0.9200 -4.1006 -3.8936
 2437TIP3   OH2 7316   0.505   4.790   3.967  0.0723 -0.0676 -0.5097
 2437TIP3    H1 7317   0.496   4.860   3.901  0.4872 -1.1971 -1.8158
 2437TIP3    H2 7318   0.418   4.750   3.970  0.2690 -0.5331 -0.9758
 2438TIP3   OH2 7319   2.866   2.079   4.045 -0.1467  0.1361  0.4179
 2438TIP3    H1 7320   2.800   2.141   4.013 -0.9102 -0.7320  0.2758
 2438TIP3    H2 7321   2.828   1.993   4.028  1.5900 -0.4155 -0.8782
 2439TIP3   OH2 7322   0.498   4.465   1.886 -0.1752  0.0649 -0.3170
 2439TIP3    H1 7323   0.532   4.376   1.887 -2.6487 -0.9347 -0.1856
 2439TIP3    H2 7324   0.535   4.505   1.965 -0.1919 -1.3050  0.4185
 2440TIP3   OH2 7325   4.632   1.234   3.829  0.8356 -0.4336 -0.2643
 2440TIP3    H1 7326   4.539   1.213   3.833  0.5061  0.7148 -1.4395
 2440TIP3    H2 7327   4.676   1.149   3.832 -0.1891 -0.9526  1.2297
 2441TIP3   OH2 7328   2.347   0.871   2.351  0.7445  0.1765 -0.3843
 2441TIP3    H1 7329   2.412   0.801   2.339  1.4251  1.1354 -3.2392
 2441TIP3    H2 7330   2.263   0.826   2.341  0.9794 -0.7910  1.5681
 2442TIP3   OH2 7331   0.616   1.586   1.892  0.0692 -0.0157 -0.0096
 2442TIP3    H1 7332   0.625   1.679   1.910  0.4182  0.1852 -1.1154
 2442TIP3    H2 7333   0.641   1.543   1.973  0.7768  0.8368  0.2418
 2443TIP3   OH2 7334   3.935   4.540   0.540  1.0659  0.3735 -0.5044
 2443TIP3    H1 7335   3.861   4.526   0.598 -1.4492 -0.3971 -3.6407
 2443TIP3    H2 7336   3.981   4.616   0.577 -1.2269  0.8684  1.5850
 2444TIP3   OH2 7337   3.827   4.914   1.864  0.0813  0.1281  0.5357
 2444TIP3    H1 7338   3.845   5.003   1.893 -2.7344  0.6531  0.9206
 2444TIP3    H2 7339   3.772   4.877   1.933  1.0604 -1.8847  0.3029
 2445TIP3   OH2 7340   4.083   1.797   2.029  0.1629 -0.0214  0.3557
 2445TIP3    H1 7341   4.166   1.844   2.025 -0.5435  1.1894 -1.8156
 2445TIP3    H2 7342   4.040   1.831   2.108  0.0703  2.3757 -0.6531
 2446TIP3   OH2 7343   2.388   0.075   3.692 -0.6326  0.4341 -0.4925
 2446TIP3    H1 7344   2.457   0.030   3.740 -1.4596 -0.5292 -0.1565
 2446TIP3    H2 7345   2.407   0.168   3.703  0.5384  0.1915 -0.3279
 2447TIP3   OH2 7346   5.974   1.576   2.672 -0.0831  0.6469 -0.2205
 2447TIP3    H1 7347   5.986   1.572   2.767  1.5905  0.6939 -0.4022
 2447TIP3    H2 7348   6.022   1.500   2.639 -0.9238  0.4483 -1.0129
 2448TIP3   OH2 7349   5.155   4.935   5.005  0.0680  0.4071 -0.0080
 2448TIP3    H1 7350   5.101   4.999   5.051  0.2097  0.4855  0.0482
 2448TIP3    H2 7351   5.243   4.949   5.038  0.0923  0.1526  0.0353
 2449TIP3   OH2 7352   4.943   2.682   0.979  0.2110 -0.5199 -0.3792
 2449TIP3    H1 7353   4.976   2.600   0.942  0.3684 -0.3967 -0.5147
 2449TIP3    H2 7354   5.019   2.722   1.022  0.4858  0.1927 -1.4543
 2450TIP3   OH2 7355   5.775   2.728  -0.017 -0.1415  0.5250  1.1183
 2450TIP3    H1 7356   5.722   2.669   0.036 -0.3779  0.2472  0.5824
 2450TIP3    H2 7357   5.772   2.812   0.030 -1.3198  0.6043  0.9489
 2451TIP3   OH2 7358   1.288   4.143   2.063  0.9185  0.4596  0.4544
 2451TIP3    H1 7359   1.209   4.102   2.099  1.8700 -3.1078 -1.1259
 2451TIP3    H2 7360   1.358   4.116   2.122  1.5682 -0.1978 -0.5921
 2452TIP3   OH2 7361   1.208   0.649   2.206 -0.0336  0.5474  0.0004
 2452TIP3    H1 7362   1.209   0.740   2.236  2.8644  0.6211 -0.0598
 2452TIP3    H2 7363   1.166   0.653   2.120 -0.0488  1.8041  0.0409
 2453TIP3   OH2 7364   1.053   2.785   2.372 -0.0284 -0.1215 -0.1898
 2453TIP3    H1 7365   1.004   2.796   2.454  0.8137  1.4368  0.1347
 2453TIP3    H2 7366   1.104   2.705   2.386 -1.2969 -0.9209  0.0491
 2454TIP3   OH2 7367   3.910   3.415   1.722  0.7830  0.8520  0.1580
 2454TIP3    H1 7368   3.996   3.407   1.680  0.4721 -0.2513 -0.3138
 2454TIP3    H2 7369   3.855   3.458   1.656  1.2846  2.8121  0.9608
 2455TIP3   OH2 7370   4.103   3.209   4.845 -0.3409  0.0710 -1.0722
 2455TIP3    H1 7371   4.038   3.262   4.891  1.7041  2.7837 -1.0435
 2455TIP3    H2 7372   4.125   3.139   4.906 -2.2383 -0.1171 -0.5637
 2456TIP3   OH2 7373   5.488   1.883   2.966 -0.6158  0.6641 -0.1005
 2456TIP3    H1 7374   5.455   1.930   2.889  0.6982 -0.2715 -1.2849
 2456TIP3    H2 7375   5.483   1.791   2.942 -0.7216  0.3183  1.1803
 2457TIP3   OH2 7376   5.404   1.483   4.987  0.0467  0.4264 -0.5718
 2457TIP3    H1 7377   5.364   1.458   5.071  1.5833  1.0833  0.4161
 2457TIP3    H2 7378   5.465   1.413   4.967 -0.1813  0.3626 -1.0561
 2458TIP3   OH2 7379   2.249   4.525   5.070  0.0278 -0.0787  0.7278
 2458TIP3    H1 7380   2.267   4.598   5.128 -2.8451  0.9181  0.5026
 2458TIP3    H2 7381   2.228   4.565   4.986 -0.9363 -1.1935  0.4077
 2459TIP3   OH2 7382   4.615   2.321   2.890  0.1992 -0.2693  0.4248
 2459TIP3    H1 7383   4.634   2.346   2.800 -0.3912 -1.7105 -0.1365
 2459TIP3    H2 7384   4.521   2.339   2.900  0.5711  1.3747  1.2944
 2460TIP3   OH2 7385   4.163   5.610   4.413  0.6814 -0.1157  0.1595
 2460TIP3    H1 7386   4.133   5.525   4.446 -1.8680  0.7036  0.2502
 2460TIP3    H2 7387   4.176   5.662   4.492  1.0236 -0.0687  0.0707
 2461TIP3   OH2 7388   0.392   2.761   4.232 -0.3398 -0.0438 -0.2249
 2461TIP3    H1 7389   0.395   2.783   4.325  1.7917  1.9125 -0.6563
 2461TIP3    H2 7390   0.452   2.687   4.223 -0.1847  0.0658 -0.0994
 2462TIP3   OH2 7391   0.682   1.774   0.314  0.0539  0.1571  1.5799
 2462TIP3    H1 7392   0.760   1.719   0.308 -0.3392 -0.2312 -1.8476
 2462TIP3    H2 7393   0.609   1.712   0.319 -0.4273  0.0572 -2.7498
 2463TIP3   OH2 7394   1.926   1.051   2.554  0.0755 -0.0838  0.1211
 2463TIP3    H1 7395   1.837   1.034   2.522  0.5118 -1.4529 -0.4432
 2463TIP3    H2 7396   1.921   1.036   2.649  0.0994 -2.1264 -0.1546
 2464TIP3   OH2 7397   4.899   2.450   2.558  0.4984 -0.1251 -0.7395
 2464TIP3    H1 7398   4.821   2.498   2.585  0.0593 -0.9967 -0.4228
 2464TIP3    H2 7399   4.952   2.444   2.637  1.4135  1.3940 -1.1914
 2465TIP3   OH2 7400   5.772   3.768   2.372 -0.2627  0.3108  0.4016
 2465TIP3    H1 7401   5.692   3.744   2.326 -0.7115 -1.0571  1.7856
 2465TIP3    H2 7402   5.767   3.719   2.455  2.8541 -1.3526 -0.2314
 2466TIP3   OH2 7403   0.706   5.275   0.396  0.2327  0.6029 -0.2307
 2466TIP3    H1 7404   0.756   5.234   0.326 -1.1502 -0.8855 -0.4128
 2466TIP3    H2 7405   0.646   5.335   0.351 -0.6008 -0.2948 -0.3667
 2467TIP3   OH2 7406   1.982   0.257   3.647 -0.1087  0.3381 -0.6596
 2467TIP3    H1 7407   1.910   0.306   3.607 -0.5745 -0.4191 -0.7727
 2467TIP3    H2 7408   2.058   0.278   3.593 -0.2582  1.0808 -0.5904
 2468TIP3   OH2 7409   5.349   3.980   0.755  0.2626  0.6123 -0.6917
 2468TIP3    H1 7410   5.375   3.888   0.759 -0.6343  0.3570 -0.5036
 2468TIP3    H2 7411   5.402   4.023   0.822  1.5221  0.4548 -1.5620
 2469TIP3   OH2 7412   4.230   2.158   1.382 -0.0841 -0.9625  0.0029
 2469TIP3    H1 7413   4.300   2.218   1.356 -1.5494  1.3459  1.0157
 2469TIP3    H2 7414   4.244   2.144   1.476 -0.9658 -0.4294  0.2275
 2470TIP3   OH2 7415   0.309   4.908   1.240 -0.6618  0.1638 -0.1501
 2470TIP3    H1 7416   0.373   4.864   1.184  2.7943  1.9400  2.0528
 2470TIP3    H2 7417   0.297   4.994   1.200 -0.2011  0.5148  0.4672
 2471TIP3   OH2 7418   3.535   0.261   2.692  0.7126 -0.3874 -0.0056
 2471TIP3    H1 7419   3.449   0.276   2.732  0.4076  0.9137 -1.0918
 2471TIP3    H2 7420   3.594   0.250   2.767 -0.2962 -0.7895  0.7652
 2472TIP3   OH2 7421   4.872   3.779   1.782 -0.7217  0.0529 -0.0842
 2472TIP3    H1 7422   4.900   3.863   1.745  0.4018  0.0318  0.6763
 2472TIP3    H2 7423   4.777   3.788   1.793 -0.3461  2.1687  2.2336
 2473TIP3   OH2 7424   0.988   4.447   0.395 -0.5444 -0.8078 -0.0006
 2473TIP3    H1 7425   0.950   4.535   0.397 -2.0659 -1.4477  0.6187
 2473TIP3    H2 7426   1.080   4.461   0.414 -0.1411  0.9361 -2.7067
 2474TIP3   OH2 7427   0.692   2.962   1.467 -0.6593  0.3663  0.2791
 2474TIP3    H1 7428   0.757   3.021   1.506  0.4576 -0.3568 -0.3992
 2474TIP3    H2 7429   0.623   3.019   1.434  0.1779  1.2570  0.0323
 2475TIP3   OH2 7430   5.353   5.156   0.991 -0.4523 -0.2549 -0.0571
 2475TIP3    H1 7431   5.276   5.189   0.945 -0.7483  0.2087  0.7540
 2475TIP3    H2 7432   5.373   5.072   0.948 -2.1611 -0.9963  0.5223
 2476TIP3   OH2 7433   1.473   0.172   3.256 -0.1770 -0.1293  0.0914
 2476TIP3    H1 7434   1.463   0.172   3.352 -2.3418  0.2676 -0.0681
 2476TIP3    H2 7435   1.481   0.079   3.233 -0.0175 -0.2568  0.6438
 2477TIP3   OH2 7436   6.292   5.428   2.470  0.3856  0.2352  0.7983
 2477TIP3    H1 7437   6.248   5.366   2.529  0.0987 -1.1801 -0.8313
 2477TIP3    H2 7438   6.379   5.390   2.456  1.0803  1.4553  1.6109
 2478TIP3   OH2 7439   5.850   5.678   2.305  0.4919 -0.0457  0.7895
 2478TIP3    H1 7440   5.775   5.642   2.352  0.1925  1.6664  1.6697
 2478TIP3    H2 7441   5.926   5.653   2.358  0.7012 -2.4320 -0.4874
 2479TIP3   OH2 7442   0.566   2.403   5.110 -0.4552  0.3302  0.3274
 2479TIP3    H1 7443   0.532   2.390   5.198 -0.6373 -0.4410  0.1561
 2479TIP3    H2 7444   0.488   2.412   5.055 -0.3443  0.7396  0.2325
 2480TIP3   OH2 7445   3.218   2.838   2.579 -0.1333  0.5581  0.0738
 2480TIP3    H1 7446   3.135   2.818   2.536 -0.3773 -0.8954  1.1520
 2480TIP3    H2 7447   3.267   2.756   2.577  0.1289  0.6230  1.9148
 2481TIP3   OH2 7448   3.579   3.992   4.776 -0.0945 -0.2679  0.0164
 2481TIP3    H1 7449   3.607   3.904   4.800 -0.2275 -0.1627  0.5736
 2481TIP3    H2 7450   3.488   3.997   4.806 -0.3307 -0.1991 -0.7004
 2482TIP3   OH2 7451   0.248   1.187   1.235  0.3072  0.1250  0.2078
 2482TIP3    H1 7452   0.261   1.282   1.229 -1.1409  0.3978  0.9871
 2482TIP3    H2 7453   0.222   1.172   1.325 -0.0035 -0.9606 -0.0541
 2483TIP3   OH2 7454   3.669   1.588   3.049 -0.8781  0.2976 -0.5452
 2483TIP3    H1 7455   3.601   1.549   2.993 -0.1606 -2.6141  0.4235
 2483TIP3    H2 7456   3.633   1.581   3.137 -0.4121  1.2647 -0.2746
 2484TIP3   OH2 7457   0.298   0.739   2.365  0.2865 -0.2864 -0.0526
 2484TIP3    H1 7458   0.215   0.718   2.409  0.4308 -0.5234  0.1076
 2484TIP3    H2 7459   0.284   0.714   2.274  0.4489 -1.0749  0.1291
 2485TIP3   OH2 7460   6.053   2.647   4.848 -0.1200 -0.3198  0.3364
 2485TIP3    H1 7461   6.088   2.601   4.925  0.0904 -0.2082  0.3062
 2485TIP3    H2 7462   6.055   2.581   4.778  0.4261 -0.1863  0.2274
 2486TIP3   OH2 7463   1.717   1.778   3.054 -0.2879 -0.1740  0.1999
 2486TIP3    H1 7464   1.682   1.865   3.074 -0.7255 -0.4908  0.8538
 2486TIP3    H2 7465   1.783   1.763   3.121 -1.0127 -0.8049  0.7993
 2487TIP3   OH2 7466   0.588   4.201   0.826 -0.4673  0.0615  0.0894
 2487TIP3    H1 7467   0.496   4.187   0.803 -0.4636  0.2501 -0.0414
 2487TIP3    H2 7468   0.636   4.168   0.750 -0.4135 -0.3649  0.3076
 2488TIP3   OH2 7469   3.415   0.573   2.597 -0.3268 -0.4409  0.7803
 2488TIP3    H1 7470   3.480   0.631   2.637 -0.0132 -0.6007  0.5062
 2488TIP3    H2 7471   3.331   0.616   2.614 -0.1158 -0.0137  0.7632
 2489TIP3   OH2 7472   3.522   3.896   4.296  0.3822 -0.3439  0.2870
 2489TIP3    H1 7473   3.483   3.902   4.384  0.8603  0.5866  0.4408
 2489TIP3    H2 7474   3.527   3.986   4.265  1.4462 -0.5442 -0.1589
 2490TIP3   OH2 7475   5.370   0.897   2.416  0.1931 -0.1999 -0.4051
 2490TIP3    H1 7476   5.301   0.831   2.423  0.0858 -0.1692 -1.0316
 2490TIP3    H2 7477   5.443   0.851   2.373 -0.1140  0.2420 -1.4379
 2491TIP3   OH2 7478   3.428   4.880   2.286  0.1901  0.4417  0.8735
 2491TIP3    H1 7479   3.413   4.835   2.203  0.8039  1.6383  0.0783
 2491TIP3    H2 7480   3.372   4.834   2.349 -0.8468 -0.0406 -0.3542
 2492TIP3   OH2 7481   5.637   0.202   0.584 -0.5171 -0.1341 -0.1198
 2492TIP3    H1 7482   5.635   0.113   0.550  0.1346 -0.6017  1.0059
 2492TIP3    H2 7483   5.698   0.199   0.658 -2.0173  0.7563  1.2478
 2493TIP3   OH2 7484   1.273   0.774   0.975 -0.5153  0.5673 -0.0063
 2493TIP3    H1 7485   1.317   0.738   0.898 -0.3807 -0.5194  0.5484
 2493TIP3    H2 7486   1.309   0.724   1.048 -1.8117  0.4518  0.5854
 2494TIP3   OH2 7487   0.993   3.722   4.323 -0.1529  0.9828  0.8130
 2494TIP3    H1 7488   1.048   3.800   4.312 -1.6164  2.3244  2.4060
 2494TIP3    H2 7489   0.915   3.754   4.367 -1.5075 -1.1508  0.1212
 2495TIP3   OH2 7490   4.355   1.759   4.691 -0.2343  0.2982  0.5046
 2495TIP3    H1 7491   4.339   1.680   4.640  0.3057  0.1800  0.5120
 2495TIP3    H2 7492   4.400   1.818   4.631 -0.9487  0.7428  0.3922
 2496TIP3   OH2 7493   1.065   0.517   0.333 -0.4065 -0.1744 -0.3421
 2496TIP3    H1 7494   1.052   0.532   0.426 -2.1131 -0.4396 -0.4964
 2496TIP3    H2 7495   1.028   0.430   0.317 -0.8845  0.1998 -1.3855
 2497TIP3   OH2 7496   5.325   5.027   3.081 -0.0664 -0.1866 -0.3130
 2497TIP3    H1 7497   5.246   4.988   3.044  0.9818 -0.6864 -2.1261
 2497TIP3    H2 7498   5.365   4.956   3.131 -1.1506  0.3075  1.3429
 2498TIP3   OH2 7499   5.359   3.120   4.852 -0.3006 -0.2546  0.3035
 2498TIP3    H1 7500   5.309   3.042   4.876 -0.8916 -0.2711 -0.9067
 2498TIP3    H2 7501   5.376   3.165   4.935 -0.0407 -1.6038  1.0077
 2499TIP3   OH2 7502   0.720   3.187   2.307  0.3369  0.2011 -0.6275
 2499TIP3    H1 7503   0.751   3.153   2.392 -2.8787 -2.1317 -0.1904
 2499TIP3    H2 7504   0.713   3.281   2.320  1.2381  0.0725  1.2239
 2500TIP3   OH2 7505   0.795   3.100   2.822  0.4709 -0.0092 -0.2441
 2500TIP3    H1 7506   0.727   3.052   2.871 -0.1528 -0.5176 -1.5702
 2500TIP3    H2 7507   0.874   3.046   2.832  0.8880  0.8935  1.8206
 2501TIP3   OH2 7508   5.962   5.791   1.444 -0.5656 -0.2900 -0.2342
 2501TIP3    H1 7509   5.909   5.823   1.371  1.3823  1.1519 -1.1095
 2501TIP3    H2 7510   5.968   5.697   1.430 -1.9096 -0.3231 -0.7459
 2502TIP3   OH2 7511   4.307   2.985   1.861  0.1054 -0.3375 -0.6904
 2502TIP3    H1 7512   4.397   3.014   1.843  0.7546 -1.3708  0.7671
 2502TIP3    H2 7513   4.253   3.061   1.840  1.3290  0.3854 -1.3458
 2503TIP3   OH2 7514   0.537   0.678   3.836  0.2500 -0.1926  0.1297
 2503TIP3    H1 7515   0.520   0.594   3.879 -1.7453 -0.1133 -0.3881
 2503TIP3    H2 7516   0.451   0.721   3.833  0.7400  0.7852 -1.8807
 2504TIP3   OH2 7517   1.114   1.676   4.560 -0.0900 -0.3867 -0.4371
 2504TIP3    H1 7518   1.040   1.688   4.619  0.2450 -2.2063  0.4310
 2504TIP3    H2 7519   1.081   1.618   4.491 -0.0515  0.5020 -1.2151
 2505TIP3   OH2 7520   3.776   2.941   2.110  0.0016 -0.5445 -0.0109
 2505TIP3    H1 7521   3.844   2.913   2.171 -0.3351 -0.4368  0.4209
 2505TIP3    H2 7522   3.814   2.927   2.023  0.8685  0.2404  0.2287
 2506TIP3   OH2 7523   1.588   4.558   1.155 -0.3113  0.2724  0.3704
 2506TIP3    H1 7524   1.577   4.488   1.091  0.1197  0.8308 -0.3332
 2506TIP3    H2 7525   1.498   4.588   1.173 -0.4977 -0.4673  0.6990
 2507TIP3   OH2 7526   0.817   0.491   4.015 -0.2588 -0.3261 -0.1107
 2507TIP3    H1 7527   0.862   0.522   3.936  0.3243 -0.6227  0.1017
 2507TIP3    H2 7528   0.882   0.497   4.084 -1.3762  1.9237  0.8259
 2508TIP3   OH2 7529   0.930   0.642   2.968 -0.2834 -0.5255  0.5794
 2508TIP3    H1 7530   0.917   0.567   3.027  1.0919 -0.9798  0.3430
 2508TIP3    H2 7531   0.941   0.603   2.881  0.0710 -0.0345  0.3979
 2509TIP3   OH2 7532   0.293   3.133   1.120 -0.0937 -0.1559  0.1277
 2509TIP3    H1 7533   0.309   3.102   1.031 -0.2345 -1.0483  0.3939
 2509TIP3    H2 7534   0.202   3.108   1.138  0.3659 -1.3109  1.0182
 2510TIP3   OH2 7535   2.359   1.505   3.824 -0.5669 -0.3161 -0.4194
 2510TIP3    H1 7536   2.268   1.477   3.811  0.2037 -2.4871 -1.4851
 2510TIP3    H2 7537   2.392   1.447   3.893  0.7381 -1.3172 -1.8379
 2511TIP3   OH2 7538   1.785   3.428   4.489  0.0047  0.2315  0.1359
 2511TIP3    H1 7539   1.808   3.337   4.511  1.6988  0.4235 -0.6718
 2511TIP3    H2 7540   1.815   3.479   4.565  0.6219  0.2846 -0.1371
 2512TIP3   OH2 7541   6.287   4.486   3.709 -0.0684  0.0025  0.0483
 2512TIP3    H1 7542   6.203   4.460   3.746  0.5529 -0.4751  1.1889
 2512TIP3    H2 7543   6.347   4.415   3.734  0.7126  0.4281 -0.5707
 2513TIP3   OH2 7544   3.103   0.010   4.459  0.2977 -0.2527 -0.1493
 2513TIP3    H1 7545   3.195   0.026   4.478 -0.4427  1.3205  2.7184
 2513TIP3    H2 7546   3.073   0.090   4.416 -0.0324 -0.1204  0.3105
 2514TIP3   OH2 7547   1.014   3.535   0.054  0.1839  0.2114  0.0491
 2514TIP3    H1 7548   1.065   3.454   0.057  0.5650  0.3506 -1.5841
 2514TIP3    H2 7549   0.965   3.529  -0.028 -1.0968  0.8719  0.7420
 2515TIP3   OH2 7550   0.945   5.896   1.672  0.6143  0.0207 -0.2122
 2515TIP3    H1 7551   0.904   5.958   1.611 -0.7280  0.5882  1.2069
 2515TIP3    H2 7552   1.038   5.899   1.649  0.1075 -0.1583 -2.5318
 2516TIP3   OH2 7553   5.553   1.910   4.813 -0.3966 -0.6939 -0.3855
 2516TIP3    H1 7554   5.600   1.870   4.885  0.5692 -1.0788 -1.2111
 2516TIP3    H2 7555   5.560   1.847   4.741  0.0263  0.3601 -1.2986
 2517TIP3   OH2 7556   4.371   5.357   2.680 -0.3607  0.2230  0.1053
 2517TIP3    H1 7557   4.373   5.278   2.627  0.1960 -0.8587  1.6430
 2517TIP3    H2 7558   4.280   5.362   2.711 -0.3726  0.1312  0.0847
 2518TIP3   OH2 7559   4.481   1.752   3.946 -0.2091 -0.3005  0.1465
 2518TIP3    H1 7560   4.559   1.807   3.933 -0.1127 -0.3391  0.5444
 2518TIP3    H2 7561   4.484   1.689   3.874 -1.1895  1.1908 -1.2695
 2519TIP3   OH2 7562   3.194   4.014   1.975  0.0880 -0.0401  0.4106
 2519TIP3    H1 7563   3.185   3.929   2.020 -1.2258 -0.8532 -1.2648
 2519TIP3    H2 7564   3.105   4.048   1.971  0.3776  0.6624 -0.3351
 2520TIP3   OH2 7565   5.059   0.412   1.374 -0.3930 -0.4234  0.0292
 2520TIP3    H1 7566   5.104   0.327   1.376  0.6050 -0.0624 -2.4182
 2520TIP3    H2 7567   5.128   0.474   1.351 -1.5524  0.6604 -0.6147
 2521TIP3   OH2 7568   1.782   4.431   3.639  0.1434 -0.8014 -0.2896
 2521TIP3    H1 7569   1.692   4.421   3.608 -0.2908 -1.5492  1.1065
 2521TIP3    H2 7570   1.789   4.524   3.661  0.2929 -0.3752 -2.0169
 2522TIP3   OH2 7571   2.326   4.584  -0.018  0.5672 -0.3102  0.4073
 2522TIP3    H1 7572   2.255   4.534   0.022  0.3017  1.1006  1.8206
 2522TIP3    H2 7573   2.400   4.573   0.042  0.5899  0.7202  0.5929
 2523TIP3   OH2 7574   1.143   0.537   3.557 -0.4645 -0.5570  0.3731
 2523TIP3    H1 7575   1.110   0.455   3.594 -1.0366 -0.0906  0.9140
 2523TIP3    H2 7576   1.068   0.596   3.557 -0.7866 -0.7952 -2.4354
 2524TIP3   OH2 7577   4.606   2.043   1.484  0.7048  0.0667  0.1049
 2524TIP3    H1 7578   4.685   1.993   1.508  1.1536  0.0207 -1.3612
 2524TIP3    H2 7579   4.637   2.105   1.418 -0.5135  0.0262 -0.5112
 2525TIP3   OH2 7580   5.449   1.025   2.749  0.4180 -0.1919 -0.2903
 2525TIP3    H1 7581   5.373   0.971   2.724  0.3930 -0.0691 -0.4818
 2525TIP3    H2 7582   5.504   0.966   2.800 -0.2809 -0.0027  0.7055
 2526TIP3   OH2 7583   2.952   3.415   4.148  0.2881  0.3913  0.4830
 2526TIP3    H1 7584   3.027   3.471   4.127  0.0038  0.4134 -0.5378
 2526TIP3    H2 7585   2.970   3.333   4.103 -0.7829  0.7560 -0.6733
 2527TIP3   OH2 7586   5.078   4.663   2.415 -0.6477 -0.1352  0.4952
 2527TIP3    H1 7587   5.123   4.697   2.492  0.8496 -0.9884  0.0371
 2527TIP3    H2 7588   5.143   4.666   2.345 -1.7915  0.0591 -0.6045
 2528TIP3   OH2 7589   0.691   0.214   4.765 -0.5376  0.0155  0.0661
 2528TIP3    H1 7590   0.718   0.296   4.807 -1.1299  0.3230 -0.1468
 2528TIP3    H2 7591   0.771   0.161   4.765 -0.1597  0.5623  0.2640
 2529TIP3   OH2 7592   4.616   0.380   3.309  0.7702 -0.1275 -0.1269
 2529TIP3    H1 7593   4.583   0.343   3.227 -2.4047  0.1377  0.8686
 2529TIP3    H2 7594   4.628   0.473   3.291 -0.2461 -0.0049 -0.2674
 2530TIP3   OH2 7595   5.964   0.794   4.731 -0.1805 -0.1825  0.1814
 2530TIP3    H1 7596   5.926   0.793   4.643 -0.4530  1.7114  0.2338
 2530TIP3    H2 7597   5.889   0.810   4.788  0.4312  2.6368  0.3650
 2531TIP3   OH2 7598   0.086   1.863   4.401  0.6734 -0.1610  0.4409
 2531TIP3    H1 7599   0.078   1.769   4.420 -0.7106 -0.3192 -0.7824
 2531TIP3    H2 7600   0.034   1.905   4.469 -0.6440 -0.4508 -0.3537
 2532TIP3   OH2 7601   5.333   3.263   3.553 -0.4709 -0.1529 -0.4674
 2532TIP3    H1 7602   5.304   3.353   3.571  3.0838  1.0390 -0.0777
 2532TIP3    H2 7603   5.391   3.271   3.478 -0.5826 -2.2800 -0.8507
 2533TIP3   OH2 7604   1.748   2.431   1.223 -0.3080  0.1062  0.5004
 2533TIP3    H1 7605   1.714   2.342   1.236 -1.4923  0.3082 -1.0564
 2533TIP3    H2 7606   1.672   2.487   1.234 -0.0581  0.7418 -0.9362
 2534TIP3   OH2 7607   4.145   1.003   3.988  0.1568  0.3003  0.5170
 2534TIP3    H1 7608   4.185   0.955   3.915  0.7074  0.2412  0.8533
 2534TIP3    H2 7609   4.167   0.952   4.065 -0.2703  0.4636  0.7523
 2535TIP3   OH2 7610   4.892   5.031   2.781 -0.4198 -0.1005 -0.3437
 2535TIP3    H1 7611   4.874   4.960   2.720 -4.0616  0.8138 -0.5901
 2535TIP3    H2 7612   4.896   5.109   2.727  1.2300  0.2070  0.1652
 2536TIP3   OH2 7613   0.823   5.549   0.604  0.2948  0.0136  0.4203
 2536TIP3    H1 7614   0.906   5.501   0.607  0.0008 -0.5278  0.1099
 2536TIP3    H2 7615   0.820   5.597   0.686  0.3236 -0.9664  1.0102
 2537TIP3   OH2 7616   0.021   5.019   1.254 -0.6553 -0.1227 -0.7782
 2537TIP3    H1 7617   0.090   5.056   1.199 -0.1246  1.0911  0.6201
 2537TIP3    H2 7618   0.061   5.013   1.341 -1.7598 -1.0597 -0.3077
 2538TIP3   OH2 7619   5.775   3.224   0.571  0.8892 -0.2740  0.2635
 2538TIP3    H1 7620   5.836   3.167   0.616  0.5360 -0.1852  0.8699
 2538TIP3    H2 7621   5.741   3.282   0.639 -2.0634 -2.1751  0.6035
 2539TIP3   OH2 7622   1.908   2.236   3.248 -0.2707 -0.4743  0.2168
 2539TIP3    H1 7623   1.845   2.165   3.260 -0.7882  0.1448  1.3468
 2539TIP3    H2 7624   1.938   2.227   3.158 -1.5607 -1.1236 -0.1736
 2540TIP3   OH2 7625   2.279   0.826   4.808  0.2247 -0.3733  0.0458
 2540TIP3    H1 7626   2.185   0.809   4.811  0.6383 -2.9112  1.7569
 2540TIP3    H2 7627   2.286   0.922   4.810 -2.2876 -0.0725 -1.4182
 2541TIP3   OH2 7628   1.274   1.181   2.071  0.6584 -0.7948  0.0183
 2541TIP3    H1 7629   1.364   1.173   2.040  0.1983 -0.2070 -1.5676
 2541TIP3    H2 7630   1.259   1.275   2.078 -0.0819 -0.8644 -0.5305
 2542TIP3   OH2 7631   1.744   2.790   4.241 -0.2681 -0.7592  0.0282
 2542TIP3    H1 7632   1.664   2.823   4.200 -0.9589 -0.9199  1.1846
 2542TIP3    H2 7633   1.812   2.802   4.175 -0.9024  1.0011 -0.3712
 2543TIP3   OH2 7634   1.766   2.894   0.559 -0.1592  0.3725 -0.1074
 2543TIP3    H1 7635   1.739   2.938   0.640  0.0757 -1.0612  0.7995
 2543TIP3    H2 7636   1.745   2.801   0.575 -1.4276  0.2220 -2.2619
 2544TIP3   OH2 7637   3.647   4.155   1.461 -0.1691 -0.4932  0.2901
 2544TIP3    H1 7638   3.680   4.162   1.372 -0.8734 -0.1826  0.0468
 2544TIP3    H2 7639   3.705   4.092   1.504  0.4090 -0.3490 -0.2730
 2545TIP3   OH2 7640   5.906   2.986   3.216 -0.5008 -0.0982 -0.2156
 2545TIP3    H1 7641   5.944   3.008   3.131 -1.4403  1.4506 -0.2762
 2545TIP3    H2 7642   5.953   2.907   3.244  0.8436  0.2074 -1.4889
 2546TIP3   OH2 7643   5.666   2.310   3.941 -0.1914 -0.1242  0.1656
 2546TIP3    H1 7644   5.679   2.385   3.882 -3.2556 -0.3864 -1.0172
 2546TIP3    H2 7645   5.710   2.237   3.897  0.4688  0.3948 -0.0586
 2547TIP3   OH2 7646   3.192   5.192   2.553 -0.4704  0.4948 -0.0760
 2547TIP3    H1 7647   3.266   5.240   2.516 -1.3411  1.9285 -0.0403
 2547TIP3    H2 7648   3.148   5.255   2.611 -2.3421  0.0607 -0.9313
 2548TIP3   OH2 7649   0.244   0.283   4.717 -0.2338 -0.0222  0.0112
 2548TIP3    H1 7650   0.233   0.352   4.651 -0.5383  0.7052  0.8008
 2548TIP3    H2 7651   0.295   0.215   4.673  0.1017  0.7253 -0.7784
 2549TIP3   OH2 7652   3.898   4.371   5.002 -0.3608 -0.3212  0.8227
 2549TIP3    H1 7653   3.806   4.349   4.987 -0.0051 -0.5165 -1.2724
 2549TIP3    H2 7654   3.939   4.289   5.028 -0.8230 -0.1495  2.1883
 2550TIP3   OH2 7655   3.974   5.801   3.624 -0.1817 -0.0780 -0.5022
 2550TIP3    H1 7656   4.023   5.879   3.597 -0.0131 -0.4300 -1.2384
 2550TIP3    H2 7657   4.002   5.786   3.715  2.1460 -1.0328 -1.2927
 2551TIP3   OH2 7658   1.488   0.210   3.533  0.3914 -0.1665  0.0911
 2551TIP3    H1 7659   1.436   0.281   3.569 -1.8887 -2.8291  2.6015
 2551TIP3    H2 7660   1.504   0.152   3.608  1.8971 -2.4147 -1.8199
 2552TIP3   OH2 7661   4.424   5.833   0.847 -0.1055  0.6052 -0.0071
 2552TIP3    H1 7662   4.472   5.897   0.900  0.9084 -0.1618  0.0370
 2552TIP3    H2 7663   4.485   5.811   0.777 -1.0773  0.9003 -0.9724
 2553TIP3   OH2 7664   6.088   1.684   0.658  0.1199  0.1486 -0.0506
 2553TIP3    H1 7665   5.997   1.675   0.628  0.5872  0.5444 -1.6855
 2553TIP3    H2 7666   6.140   1.675   0.578  1.6066 -1.2774  1.0300
 2554TIP3   OH2 7667   0.767   0.858   0.428  0.4408  0.1092 -0.2468
 2554TIP3    H1 7668   0.834   0.845   0.360  0.9798  0.0481  0.2844
 2554TIP3    H2 7669   0.807   0.921   0.488  1.2247 -2.0083  1.6056
 2555TIP3   OH2 7670   3.740   3.230   1.132 -0.1283 -0.0025  1.0800
 2555TIP3    H1 7671   3.663   3.251   1.079 -0.5077 -1.3972  1.0458
 2555TIP3    H2 7672   3.814   3.262   1.080 -0.5878 -0.1206  0.3429
 2556TIP3   OH2 7673   4.694   2.779   4.391  0.1071  0.0718  0.5340
 2556TIP3    H1 7674   4.609   2.785   4.435 -0.6650  0.8100 -0.9765
 2556TIP3    H2 7675   4.708   2.685   4.381 -0.9218 -0.0565  0.1215
 2557TIP3   OH2 7676   0.151   5.446   3.683 -0.0908  0.0123 -0.0033
 2557TIP3    H1 7677   0.244   5.426   3.667 -0.1843 -1.0550  0.7292
 2557TIP3    H2 7678   0.118   5.474   3.597  0.6426 -0.6911 -0.5318
 2558TIP3   OH2 7679   2.797   3.785   4.745  0.1361  0.0131 -0.3031
 2558TIP3    H1 7680   2.847   3.782   4.827 -0.5992  1.6886  0.2398
 2558TIP3    H2 7681   2.862   3.769   4.677  0.7000 -1.8059  0.5834
 2559TIP3   OH2 7682   2.474   2.885   0.944 -0.2362  0.2713  0.4921
 2559TIP3    H1 7683   2.564   2.915   0.931 -0.8349  1.8519 -0.1715
 2559TIP3    H2 7684   2.451   2.842   0.862 -0.3378  0.5493  0.3734
 2560TIP3   OH2 7685   5.438   3.422   4.658 -0.2431  0.5993 -0.5505
 2560TIP3    H1 7686   5.473   3.487   4.597 -2.6608  0.9983 -1.6273
 2560TIP3    H2 7687   5.344   3.421   4.641 -0.5098 -2.0443  0.5747
 2561TIP3   OH2 7688   3.761   0.524   5.012 -0.1343 -0.4338 -0.2314
 2561TIP3    H1 7689   3.676   0.549   4.975 -1.0994 -1.0418  1.4253
 2561TIP3    H2 7690   3.780   0.592   5.076  1.1421  0.2142 -1.2637
 2562TIP3   OH2 7691   6.173   3.572   3.613 -0.2678 -0.3108  0.1540
 2562TIP3    H1 7692   6.159   3.543   3.522 -2.8030  0.5367  0.2195
 2562TIP3    H2 7693   6.222   3.654   3.604 -0.5588 -0.1931 -0.4639
 2563TIP3   OH2 7694   2.912   4.643   3.586 -0.1883 -0.9157  0.0351
 2563TIP3    H1 7695   2.995   4.691   3.587  1.5822 -3.6682  2.5653
 2563TIP3    H2 7696   2.907   4.605   3.498  1.7099 -1.3350  0.0634
 2564TIP3   OH2 7697   2.092   2.720   2.772 -0.3278  0.3113 -0.1053
 2564TIP3    H1 7698   2.120   2.689   2.686  0.9826  0.6632  0.1718
 2564TIP3    H2 7699   2.134   2.661   2.834 -0.7603  0.4411  0.3201
 2565TIP3   OH2 7700   5.897   3.043   4.934  0.5226  0.5381 -0.1068
 2565TIP3    H1 7701   5.859   3.100   5.000 -0.7451  0.3814 -0.6748
 2565TIP3    H2 7702   5.867   2.955   4.958 -1.4945  0.6620 -1.8370
 2566TIP3   OH2 7703   6.063   0.771   4.217 -0.5458 -0.2465 -0.2650
 2566TIP3    H1 7704   6.098   0.696   4.266  0.3555  1.0270  1.1430
 2566TIP3    H2 7705   5.976   0.743   4.190 -0.0842 -1.9420 -0.1417
 2567TIP3   OH2 7706   2.282   4.561   0.563  0.1800 -0.4255 -0.1270
 2567TIP3    H1 7707   2.254   4.585   0.475  1.1413 -0.8548 -0.5649
 2567TIP3    H2 7708   2.218   4.603   0.621 -0.2430  0.1732 -1.0061
 2568TIP3   OH2 7709   1.191   3.302   0.243  0.3845 -0.2074  0.3676
 2568TIP3    H1 7710   1.245   3.311   0.322  2.3720 -0.5447 -0.8709
 2568TIP3    H2 7711   1.254   3.304   0.171 -1.2781 -0.8435 -1.1790
 2569TIP3   OH2 7712   6.200   3.880   4.385  0.4034 -0.3537  0.0155
 2569TIP3    H1 7713   6.140   3.872   4.312 -0.4550  0.4937  0.6038
 2569TIP3    H2 7714   6.202   3.793   4.425 -0.9638 -0.2293  0.3857
 2570TIP3   OH2 7715   4.939   3.467   3.054 -0.2261  0.5751  0.3963
 2570TIP3    H1 7716   4.936   3.463   3.149 -1.3798  0.7100  0.3799
 2570TIP3    H2 7717   5.012   3.526   3.034  0.9522 -0.5544  1.1436
 2571TIP3   OH2 7718   2.562   0.048   2.349 -0.9541  0.2171 -0.5765
 2571TIP3    H1 7719   2.479   0.014   2.381 -0.1938 -1.2170 -0.0419
 2571TIP3    H2 7720   2.608  -0.029   2.316  0.5737  0.8048  0.0879
 2572TIP3   OH2 7721   1.166   1.066   0.221 -0.3011 -0.4222 -0.1032
 2572TIP3    H1 7722   1.137   1.152   0.191 -1.2335 -0.5884  0.2767
 2572TIP3    H2 7723   1.171   1.074   0.317  1.7675 -0.1575 -0.1910
 2573TIP3   OH2 7724   5.138   5.148   2.546  0.1331 -0.9496 -0.1192
 2573TIP3    H1 7725   5.059   5.151   2.492  1.7350  1.4314 -2.5444
 2573TIP3    H2 7726   5.110   5.184   2.630 -1.4329 -0.4562 -0.8127
 2574TIP3   OH2 7727   3.896   5.677   0.494  0.3216 -0.6109 -0.8903
 2574TIP3    H1 7728   3.976   5.650   0.540 -0.1967 -0.4319  0.1462
 2574TIP3    H2 7729   3.856   5.742   0.551 -0.2161 -0.1809 -1.7349
 2575TIP3   OH2 7730   5.086   0.918   3.145  0.1000 -0.6475 -0.5116
 2575TIP3    H1 7731   5.094   0.859   3.070 -0.7799 -1.6454  0.1613
 2575TIP3    H2 7732   5.144   0.991   3.123  1.2878 -1.7753 -1.3354
 2576TIP3   OH2 7733   0.251   4.063   1.902  0.2376  0.4394  0.2710
 2576TIP3    H1 7734   0.230   4.070   1.809  0.0617 -0.0779  0.2720
 2576TIP3    H2 7735   0.275   3.971   1.915  1.4972  0.7720  0.4800
 2577TIP3   OH2 7736   4.949   3.404   3.349  0.6671  0.2632  0.5205
 2577TIP3    H1 7737   4.859   3.419   3.379  0.3336  0.5507 -0.6055
 2577TIP3    H2 7738   4.968   3.315   3.378  0.0109  0.1850  0.7388
 2578TIP3   OH2 7739   5.404   3.850   4.533  0.2640  0.4325 -0.1992
 2578TIP3    H1 7740   5.415   3.935   4.491 -3.4528  1.7020  0.9759
 2578TIP3    H2 7741   5.440   3.861   4.621  2.5972 -0.2977 -1.0078
 2579TIP3   OH2 7742   1.418   3.364   0.465  0.1897 -0.1690  0.7337
 2579TIP3    H1 7743   1.485   3.296   0.451  0.9147  0.7092 -0.2057
 2579TIP3    H2 7744   1.467   3.446   0.465 -0.8229  0.4507  0.7207
 2580TIP3   OH2 7745   2.009   0.271   4.545  0.3951 -0.1205 -0.0253
 2580TIP3    H1 7746   2.104   0.266   4.535  0.3573 -0.3311 -0.3091
 2580TIP3    H2 7747   1.981   0.181   4.561  0.2712 -0.0194  0.3280
 2581TIP3   OH2 7748   3.450   0.292   1.911  0.2805 -0.7767 -0.2878
 2581TIP3    H1 7749   3.401   0.210   1.916 -0.1014 -0.5824 -0.7829
 2581TIP3    H2 7750   3.445   0.317   1.819  1.0296 -0.5796 -0.2799
 2582TIP3   OH2 7751   0.103   0.209   1.215 -0.2302 -0.2104  0.1208
 2582TIP3    H1 7752   0.108   0.293   1.168 -1.3476 -0.1784  0.0223
 2582TIP3    H2 7753   0.155   0.149   1.162 -0.2809  0.1795 -0.3856
 2583TIP3   OH2 7754   0.860   0.476   3.343  0.3188 -0.3771 -0.5094
 2583TIP3    H1 7755   0.889   0.433   3.262 -0.3097  0.3659 -1.1492
 2583TIP3    H2 7756   0.877   0.569   3.328  0.5730 -0.2681  0.3899
 2584TIP3   OH2 7757   4.460   0.878   1.925 -0.0879 -0.2395 -0.2941
 2584TIP3    H1 7758   4.397   0.821   1.880 -2.0240  0.4476  1.3755
 2584TIP3    H2 7759   4.500   0.823   1.992  2.7816 -1.2575 -2.6394
 2585TIP3   OH2 7760   0.884   0.632   4.817  0.1062  0.7789 -0.2528
 2585TIP3    H1 7761   0.828   0.676   4.882  1.6520  2.0188  0.2979
 2585TIP3    H2 7762   0.967   0.679   4.822  1.0544 -0.7170 -1.3883
 2586TIP3   OH2 7763   2.012   2.295   3.676  0.5209  0.2787  0.4361
 2586TIP3    H1 7764   2.067   2.232   3.631 -0.9364 -0.4299 -0.4166
 2586TIP3    H2 7765   1.999   2.365   3.612 -0.4744 -0.1015  0.2069
 2587TIP3   OH2 7766   2.931   5.350   1.807  0.2462  0.3508  0.6902
 2587TIP3    H1 7767   2.979   5.359   1.725  0.4101 -0.5980  0.6791
 2587TIP3    H2 7768   2.976   5.279   1.853  0.7644  1.4827  2.0196
 2588TIP3   OH2 7769   2.515   1.074   4.116  0.1114 -0.6050 -0.0156
 2588TIP3    H1 7770   2.590   1.015   4.122  0.4650 -0.0451  2.8497
 2588TIP3    H2 7771   2.445   1.022   4.077  1.4988 -1.6644 -1.1447
 2589TIP3   OH2 7772   1.924   4.279   2.470  0.0006 -0.1965 -0.6423
 2589TIP3    H1 7773   1.883   4.289   2.556 -0.1090 -0.9822 -0.5998
 2589TIP3    H2 7774   1.988   4.209   2.481  1.6845  1.2832 -0.6020
 2590TIP3   OH2 7775   1.385   3.741   3.563  0.3840  0.6617 -0.2560
 2590TIP3    H1 7776   1.330   3.667   3.538  0.3360  0.7613 -0.4510
 2590TIP3    H2 7777   1.409   3.724   3.654 -1.5948  1.5930  0.5050
 2591TIP3   OH2 7778   6.120   5.593   3.766 -0.3233  0.0571 -0.6038
 2591TIP3    H1 7779   6.067   5.638   3.832 -0.8017 -0.6142 -0.5229
 2591TIP3    H2 7780   6.072   5.513   3.747  0.3116 -0.2271 -1.0474
 2592TIP3   OH2 7781   1.794   1.524   3.853 -0.3951 -0.2034 -0.1146
 2592TIP3    H1 7782   1.733   1.481   3.914  0.5198 -0.2033  0.8202
 2592TIP3    H2 7783   1.846   1.582   3.908 -0.5575  0.9541 -1.1277
 2593TIP3   OH2 7784   1.074   0.063   3.338  0.0525  0.5237 -0.2203
 2593TIP3    H1 7785   0.982   0.078   3.361  0.8432  0.0747  3.8876
 2593TIP3    H2 7786   1.104   0.148   3.305 -1.6677  0.7865 -1.2608
 2594TIP3   OH2 7787   4.066   1.997   3.631  0.2116  0.0356 -0.2067
 2594TIP3    H1 7788   4.123   2.057   3.583  1.1716  2.0358  3.0923
 2594TIP3    H2 7789   4.126   1.940   3.679 -0.6281 -0.5397  0.1746
 2595TIP3   OH2 7790   5.888   0.538   4.427 -0.2885 -0.1193 -0.6249
 2595TIP3    H1 7791   5.977   0.572   4.433 -0.5244  0.2606  1.4219
 2595TIP3    H2 7792   5.888   0.461   4.485 -1.4964  0.4033  0.1047
 2596TIP3   OH2 7793   3.242   1.648   2.086 -0.0098 -0.0385 -0.6462
 2596TIP3    H1 7794   3.225   1.558   2.115 -1.9507  1.0971  2.2175
 2596TIP3    H2 7795   3.180   1.663   2.015 -1.0225 -0.4169  0.1401
 2597TIP3   OH2 7796   0.928   5.725   2.042  0.2759 -0.1023  0.2916
 2597TIP3    H1 7797   0.919   5.669   2.119 -1.9924 -0.7566 -0.3762
 2597TIP3    H2 7798   0.930   5.664   1.968 -1.5696  0.5950 -0.3980
 2598TIP3   OH2 7799   1.009   5.910   0.842  0.1394  0.1473  0.4858
 2598TIP3    H1 7800   1.060   5.885   0.765  0.9056  2.4661  0.1771
 2598TIP3    H2 7801   1.066   5.889   0.916  0.8880  1.1550  0.2185
 2599TIP3   OH2 7802   3.926   5.189   3.517  0.1692  0.0708 -0.9235
 2599TIP3    H1 7803   4.007   5.157   3.478  0.7618  0.4659 -0.0392
 2599TIP3    H2 7804   3.880   5.233   3.445  0.8068 -0.0075 -1.3853
 2600TIP3   OH2 7805   2.297   0.444   4.828 -0.4730  0.2674 -0.0518
 2600TIP3    H1 7806   2.362   0.513   4.821 -0.9277  0.6858 -0.2041
 2600TIP3    H2 7807   2.213   0.488   4.816 -0.8370 -0.1532  0.8604
 2601TIP3   OH2 7808   4.133   2.679   4.992 -0.3250 -0.3935 -0.1384
 2601TIP3    H1 7809   4.053   2.640   4.957 -1.0568  0.3880  0.6125
 2601TIP3    H2 7810   4.130   2.657   5.086 -0.1662  0.4833  0.0740
 2602TIP3   OH2 7811   4.898   5.801   1.167 -0.2268  0.6691  0.5712
 2602TIP3    H1 7812   4.933   5.881   1.205  0.5848  1.0730 -0.9438
 2602TIP3    H2 7813   4.954   5.784   1.091 -2.2617  0.3981 -0.9572
 2603TIP3   OH2 7814   0.752   3.740   1.966 -0.1152  0.1372 -0.6766
 2603TIP3    H1 7815   0.846   3.734   1.984 -0.7771  0.0805  3.7860
 2603TIP3    H2 7816   0.724   3.649   1.952 -0.1305 -0.5422  2.9166
 2604TIP3   OH2 7817   3.842   4.757   1.632  0.0912  0.3319 -0.1571
 2604TIP3    H1 7818   3.828   4.797   1.718  1.8177  0.2713  0.1838
 2604TIP3    H2 7819   3.825   4.664   1.646 -0.8606  0.4886 -0.2006
 2605TIP3   OH2 7820   5.183   0.425   1.662 -0.0635 -0.1280 -0.4170
 2605TIP3    H1 7821   5.105   0.465   1.623  0.2214  0.5924 -0.2644
 2605TIP3    H2 7822   5.176   0.445   1.756 -0.6108 -1.6217 -0.1121
 2606TIP3   OH2 7823   3.582   1.280   2.252  0.0882  0.3793  0.0771
 2606TIP3    H1 7824   3.636   1.250   2.326 -0.3482  2.3511  1.2611
 2606TIP3    H2 7825   3.537   1.201   2.223  2.4131 -1.0369  0.0133
 2607TIP3   OH2 7826   6.348   2.913   4.271  0.0128 -0.0560  0.3651
 2607TIP3    H1 7827   6.262   2.929   4.232 -1.0962  1.6681  3.2637
 2607TIP3    H2 7828   6.409   2.931   4.200 -1.9298  0.8886 -1.1800
 2608TIP3   OH2 7829   3.795   3.984   1.653  0.1126 -0.1026  0.1890
 2608TIP3    H1 7830   3.751   3.899   1.661 -1.2717  0.6799  1.5816
 2608TIP3    H2 7831   3.838   3.996   1.738 -2.3121  1.9022  1.2500
 2609TIP3   OH2 7832   4.448   0.226   4.049 -0.0304  0.2896  0.4368
 2609TIP3    H1 7833   4.438   0.132   4.034  1.1119 -0.1914  2.3403
 2609TIP3    H2 7834   4.369   0.251   4.097 -0.8050  0.5446 -0.9258
 2610TIP3   OH2 7835   2.637   0.873   2.055  0.2312  0.1670  0.2090
 2610TIP3    H1 7836   2.705   0.812   2.083 -0.2338  0.9973  3.6511
 2610TIP3    H2 7837   2.555   0.835   2.086 -0.2186  1.7041  1.0734
 2611TIP3   OH2 7838   1.379   0.785   4.757  0.4266  0.2510 -0.0355
 2611TIP3    H1 7839   1.458   0.759   4.803  2.3127 -0.6251 -3.4727
 2611TIP3    H2 7840   1.398   0.873   4.725  0.1329 -0.0711 -1.1232
 2612TIP3   OH2 7841   6.308   2.011   0.455 -0.0442  0.2995 -0.4254
 2612TIP3    H1 7842   6.372   2.002   0.525 -1.8292 -2.1561  1.0413
 2612TIP3    H2 7843   6.331   1.941   0.393  0.2366  1.0886 -1.2274
 2613TIP3   OH2 7844   6.283   2.941   3.925  0.1143 -0.5254  0.0282
 2613TIP3    H1 7845   6.354   2.905   3.977  1.0281  0.0864 -0.7577
 2613TIP3    H2 7846   6.274   2.881   3.851  0.0898 -0.3879 -0.0824
 2614TIP3   OH2 7847   4.714   5.967   4.376  0.3225  0.0439 -0.2197
 2614TIP3    H1 7848   4.799   5.924   4.367  0.4882  0.0075  1.3502
 2614TIP3    H2 7849   4.734   6.051   4.416 -0.3123  0.3588 -0.5491
 2615TIP3   OH2 7850   2.701   3.052   2.121  0.3214  0.0684 -0.1845
 2615TIP3    H1 7851   2.655   3.121   2.073  0.8421 -0.1158 -0.9622
 2615TIP3    H2 7852   2.723   2.987   2.054 -0.3576 -0.9632  0.5662
 2616TIP3   OH2 7853   6.186   0.872   1.388 -0.2074  0.1397 -0.2905
 2616TIP3    H1 7854   6.208   0.867   1.295 -1.8274  2.1463 -0.8604
 2616TIP3    H2 7855   6.256   0.824   1.431 -0.2155 -2.1800 -2.6135
 2617TIP3   OH2 7856   2.848   2.833   2.050 -0.3264  0.1256 -0.8115
 2617TIP3    H1 7857   2.826   2.793   2.134 -0.1603 -1.0358 -1.2970
 2617TIP3    H2 7858   2.905   2.906   2.072 -2.0059  1.1767  0.2271
 2618TIP3   OH2 7859   5.308   2.603   0.212  0.3629  0.2963  0.3509
 2618TIP3    H1 7860   5.252   2.561   0.277 -1.6350 -0.1035 -1.5463
 2618TIP3    H2 7861   5.290   2.697   0.223 -1.9537  0.1107 -1.2404
 2619TIP3   OH2 7862   1.442   4.795   2.988  0.1667  0.0877  0.4055
 2619TIP3    H1 7863   1.536   4.784   2.979  0.3868  1.3520  0.9331
 2619TIP3    H2 7864   1.407   4.706   2.981  1.0976 -0.1456 -2.6820
 2620TIP3   OH2 7865   1.691   4.179   0.820  0.3020  0.7571  0.1846
 2620TIP3    H1 7866   1.756   4.146   0.758  0.3655 -1.4962  1.3712
 2620TIP3    H2 7867   1.636   4.103   0.839 -0.7661  1.8431  1.5805
 2621TIP3   OH2 7868   1.010   5.084   3.842  0.6177  0.4211 -0.5861
 2621TIP3    H1 7869   0.964   5.093   3.758 -1.4358  0.1114  0.4521
 2621TIP3    H2 7870   0.941   5.090   3.908  1.8745 -1.5994  1.0122
 2622TIP3   OH2 7871   1.010   5.379   4.693  0.0926 -0.4266 -0.2347
 2622TIP3    H1 7872   0.950   5.306   4.676  1.0353 -1.3683  0.3303
 2622TIP3    H2 7873   0.994   5.404   4.783  0.5523 -0.7078 -0.0679
 2623TIP3   OH2 7874   2.445   2.475   0.109  0.4956 -0.3062 -0.1669
 2623TIP3    H1 7875   2.436   2.531   0.032 -1.1463  0.0422  0.2365
 2623TIP3    H2 7876   2.461   2.536   0.181 -1.2290 -0.3082  0.2626
 2624TIP3   OH2 7877   4.650   0.212   3.023  0.5663  0.1836 -0.1252
 2624TIP3    H1 7878   4.724   0.246   2.972  0.7589  0.7349  0.5191
 2624TIP3    H2 7879   4.688   0.145   3.079  0.1642 -1.2846 -1.5061
 2625TIP3   OH2 7880   4.123   1.246   3.756 -0.2227 -0.6127  0.2835
 2625TIP3    H1 7881   4.114   1.263   3.850  0.1997  0.3940  0.1524
 2625TIP3    H2 7882   4.042   1.200   3.732 -0.0248 -1.5121  1.2700
 2626TIP3   OH2 7883   5.792   2.687   1.434 -0.5510  0.1507 -0.0919
 2626TIP3    H1 7884   5.703   2.656   1.449 -0.4046 -0.5117 -0.5468
 2626TIP3    H2 7885   5.845   2.638   1.497 -0.3199 -0.5304 -0.8025
 2627TIP3   OH2 7886   1.205   0.126   1.307  0.7411 -0.3204  0.0199
 2627TIP3    H1 7887   1.296   0.122   1.338  1.5323  1.0121 -1.9657
 2627TIP3    H2 7888   1.177   0.215   1.326 -0.4586 -0.9156  1.2587
 2628TIP3   OH2 7889   1.336   3.911   1.063  0.2656 -0.6952 -0.2037
 2628TIP3    H1 7890   1.426   3.885   1.086  0.6550 -0.7657 -1.7062
 2628TIP3    H2 7891   1.311   3.849   0.994 -0.5916 -0.0835 -0.4475
 2629TIP3   OH2 7892   0.507   2.542   0.477 -0.1483 -0.1652 -0.6392
 2629TIP3    H1 7893   0.419   2.517   0.450 -0.4512  0.4470 -0.2475
 2629TIP3    H2 7894   0.512   2.637   0.461  0.2859 -0.1178 -0.2672
 2630TIP3   OH2 7895   4.891   2.212   1.953  0.6220  0.1885 -0.3936
 2630TIP3    H1 7896   4.978   2.173   1.942  0.2122 -0.7927 -0.2220
 2630TIP3    H2 7897   4.837   2.142   1.988 -0.0297  1.0449  0.3546
 2631TIP3   OH2 7898   2.806   5.108   1.157 -0.2572  0.7628 -0.3334
 2631TIP3    H1 7899   2.716   5.094   1.127 -0.0752  0.7105 -0.8623
 2631TIP3    H2 7900   2.859   5.107   1.077 -0.0908  3.5093 -0.3403
 2632TIP3   OH2 7901   4.380   3.632   0.902  0.4524 -0.1000 -0.0085
 2632TIP3    H1 7902   4.395   3.718   0.863 -1.6150  0.0135 -0.6345
 2632TIP3    H2 7903   4.368   3.650   0.995 -0.4589  0.3564 -0.2096
 2633TIP3   OH2 7904   3.493  -0.001   0.610  0.1501  0.2106 -0.2374
 2633TIP3    H1 7905   3.400  -0.013   0.589  0.0110  1.1449 -0.1792
 2633TIP3    H2 7906   3.495   0.077   0.665  0.9865  0.2414 -0.3067
 2634TIP3   OH2 7907   2.166   2.915   0.402  0.3148 -0.0535 -0.0833
 2634TIP3    H1 7908   2.255   2.890   0.375  0.8717  1.5578  0.1205
 2634TIP3    H2 7909   2.109   2.880   0.334  1.1619 -0.6409 -0.5113
 2635TIP3   OH2 7910   1.795   0.617   1.037 -0.4720 -0.9848  0.3498
 2635TIP3    H1 7911   1.840   0.702   1.037 -2.3352  0.0658  0.4739
 2635TIP3    H2 7912   1.865   0.553   1.024  0.9151  0.6092 -0.5333
 2636TIP3   OH2 7913   1.544   0.826   5.063 -0.3202 -0.6410  0.3834
 2636TIP3    H1 7914   1.517   0.796   5.150 -1.2294  0.6410  0.5724
 2636TIP3    H2 7915   1.569   0.746   5.017 -1.1255 -1.4943  1.3776
 2637TIP3   OH2 7916   0.728   0.839   2.999  0.2218  0.2368  0.4495
 2637TIP3    H1 7917   0.660   0.787   3.041  0.4935 -0.9774 -0.5562
 2637TIP3    H2 7918   0.754   0.788   2.922  0.1894  2.0461 -0.8553
 2638TIP3   OH2 7919   1.045   5.609   0.335 -0.4441  0.3161  0.2132
 2638TIP3    H1 7920   1.033   5.571   0.249 -0.3174 -0.6256  0.6039
 2638TIP3    H2 7921   0.957   5.636   0.362 -0.7025 -0.6519  0.3612
 2639TIP3   OH2 7922   4.815   5.705   4.944 -0.1583 -0.5387  0.7117
 2639TIP3    H1 7923   4.905   5.739   4.946  0.2025 -1.3143 -0.8142
 2639TIP3    H2 7924   4.826   5.610   4.948 -0.7693 -0.7366 -1.4451
 2640TIP3   OH2 7925   6.139   0.841   4.530 -0.0883  0.2296 -0.0535
 2640TIP3    H1 7926   6.118   0.761   4.483  0.6434  0.0955 -0.1750
 2640TIP3    H2 7927   6.067   0.854   4.591 -0.2217 -0.5067 -0.0510
 2641TIP3   OH2 7928   1.776   3.985   2.579 -0.1813 -0.1871  0.5177
 2641TIP3    H1 7929   1.837   3.978   2.505 -0.2321  0.1757  0.4398
 2641TIP3    H2 7930   1.690   3.972   2.541 -0.2269  0.2472  0.4728
 2642TIP3   OH2 7931  -0.024   5.754   1.791 -0.0421 -0.8283 -0.4573
 2642TIP3    H1 7932   0.022   5.790   1.715  1.5530 -1.3172  0.2237
 2642TIP3    H2 7933   0.041   5.699   1.834 -0.4814  0.4246  1.9621
 2643TIP3   OH2 7934   5.516   3.630   2.461 -0.3157 -0.5905 -0.2800
 2643TIP3    H1 7935   5.438   3.586   2.429 -0.5096 -0.1490 -0.4137
 2643TIP3    H2 7936   5.484   3.709   2.504  0.0109 -0.7096  0.1921
 2644TIP3   OH2 7937   0.050   0.023   2.308 -0.2576  0.0224 -0.5262
 2644TIP3    H1 7938  -0.031  -0.027   2.298  0.5080 -1.0388 -1.8104
 2644TIP3    H2 7939   0.048   0.055   2.398 -1.2637 -1.5019  0.0296
 2645TIP3   OH2 7940   5.589   1.653   1.256  0.3662 -0.2466  0.0776
 2645TIP3    H1 7941   5.558   1.733   1.213  1.1149 -0.0417 -0.0999
 2645TIP3    H2 7942   5.674   1.677   1.292 -0.1757 -0.4625  1.5585
 2646TIP3   OH2 7943   3.137   2.318   2.665 -0.5731 -0.8835 -0.3831
 2646TIP3    H1 7944   3.198   2.342   2.735 -0.0298 -0.6521 -0.9251
 2646TIP3    H2 7945   3.052   2.351   2.695 -0.3857 -0.9629  0.2516
 2647TIP3   OH2 7946   2.251   5.547   4.863 -0.2795 -0.3848  0.0069
 2647TIP3    H1 7947   2.307   5.594   4.925 -1.4402 -0.1945  0.9467
 2647TIP3    H2 7948   2.278   5.455   4.872 -0.9863 -0.4782  1.4313
 2648TIP3   OH2 7949   2.992   4.070   0.750  1.0311  0.2173 -0.1706
 2648TIP3    H1 7950   3.067   4.088   0.693 -0.2707 -0.1068 -2.0853
 2648TIP3    H2 7951   3.031   4.039   0.832  2.9909  0.9577 -0.7541
 2649TIP3   OH2 7952   6.051   2.748   3.222  0.4864  0.2665 -0.5366
 2649TIP3    H1 7953   6.024   2.679   3.161 -0.1286 -0.7690  0.8421
 2649TIP3    H2 7954   6.129   2.714   3.265  0.0238  0.2873  0.3522
 2650TIP3   OH2 7955   6.345   0.346   0.805 -0.6632 -0.6885 -0.1384
 2650TIP3    H1 7956   6.321   0.350   0.898 -0.0410 -0.6317  0.0251
 2650TIP3    H2 7957   6.329   0.434   0.772  2.9520  0.5045  0.9063
 2651TIP3   OH2 7958   0.401   4.153   4.588  0.4206 -0.4061  0.5637
 2651TIP3    H1 7959   0.353   4.076   4.558 -1.1259  0.9136 -0.5228
 2651TIP3    H2 7960   0.477   4.158   4.529  0.2806 -0.8156  0.3428
 2652TIP3   OH2 7961   2.339   3.376   1.102 -0.5426 -0.1473  0.2289
 2652TIP3    H1 7962   2.391   3.301   1.133 -0.3466  0.0028  0.2670
 2652TIP3    H2 7963   2.332   3.363   1.007 -1.0155 -0.5283  0.3134
 2653TIP3   OH2 7964   0.808   2.892   1.949 -0.7899  0.7856 -0.0603
 2653TIP3    H1 7965   0.754   2.938   1.885  1.8721 -0.7144 -3.7597
 2653TIP3    H2 7966   0.897   2.903   1.917  0.7112 -0.6710  3.1430
 2654TIP3   OH2 7967   5.659   5.536   4.210 -1.0465  0.2890 -0.6145
 2654TIP3    H1 7968   5.709   5.455   4.202 -0.1211  0.9008 -1.3746
 2654TIP3    H2 7969   5.591   5.529   4.143 -0.9946  0.1254 -0.6500
 2655TIP3   OH2 7970   3.974   1.543   1.161 -0.1611 -0.1858  0.0641
 2655TIP3    H1 7971   3.997   1.453   1.136 -2.1713 -0.5559 -0.6835
 2655TIP3    H2 7972   3.879   1.548   1.146 -0.4247  1.4953  1.8962
 2656TIP3   OH2 7973   5.463   3.332   0.546 -0.2146 -0.0735 -0.0631
 2656TIP3    H1 7974   5.512   3.341   0.628  0.9371  1.7919 -0.9094
 2656TIP3    H2 7975   5.416   3.415   0.537  2.6652  1.4516 -3.1013
 2657TIP3   OH2 7976   1.911   3.195   2.004 -0.4323 -0.0228  0.2897
 2657TIP3    H1 7977   1.852   3.145   1.948 -0.8811  1.1357 -0.3045
 2657TIP3    H2 7978   1.858   3.220   2.080 -0.2047 -0.4559  0.5943
 2658TIP3   OH2 7979   1.606   5.420   2.804 -0.4880 -0.0863 -0.0255
 2658TIP3    H1 7980   1.639   5.345   2.754  2.5158  2.3369 -2.0787
 2658TIP3    H2 7981   1.537   5.457   2.749 -1.1227 -0.6263  0.3995
 2659TIP3   OH2 7982   5.700   5.416   2.863  0.3259 -0.1326  0.0013
 2659TIP3    H1 7983   5.792   5.390   2.868  0.1484 -0.6745  0.4280
 2659TIP3    H2 7984   5.651   5.334   2.862 -0.1822  0.1618  0.3308
 2660TIP3   OH2 7985   6.037   4.520   1.054  0.2062  0.2151 -0.1291
 2660TIP3    H1 7986   5.962   4.549   1.106 -0.1989 -3.0895  1.3835
 2660TIP3    H2 7987   6.112   4.531   1.112  0.2517 -0.3366 -0.0755
 2661TIP3   OH2 7988   6.218   5.735   3.081 -0.5060  0.1377  0.0626
 2661TIP3    H1 7989   6.208   5.815   3.132 -0.6947  0.9153 -1.1567
 2661TIP3    H2 7990   6.157   5.673   3.120  1.2582 -0.2284  2.4978
 2662TIP3   OH2 7991   0.224   3.319   1.307 -0.1209 -0.1986 -0.0725
 2662TIP3    H1 7992   0.214   3.414   1.298  2.1379  0.3946  2.2953
 2662TIP3    H2 7993   0.253   3.290   1.220 -0.5873  1.3263 -0.7704
 2663TIP3   OH2 7994   2.839   4.940   1.659  0.1575 -0.1506  0.7456
 2663TIP3    H1 7995   2.780   4.995   1.710  0.9332  0.7051  0.7476
 2663TIP3    H2 7996   2.826   4.968   1.569  1.0811  0.5649  0.8231
 2664TIP3   OH2 7997   2.691   3.429   4.447  0.3406 -0.2670 -0.0207
 2664TIP3    H1 7998   2.694   3.520   4.477  0.9653 -0.7721  1.5020
 2664TIP3    H2 7999   2.600   3.402   4.461 -0.3891  0.6796 -2.3474
 2665TIP3   OH2 8000   1.948   3.570   0.499  0.0790  0.5752  0.4797
 2665TIP3    H1 8001   1.856   3.558   0.521 -0.1498  1.8089  0.2544
 2665TIP3    H2 8002   1.953   3.659   0.464  1.0953  0.0022 -0.8971
 2666TIP3   OH2 8003   1.697   0.811   2.988 -0.2095  0.7352  0.5532
 2666TIP3    H1 8004   1.737   0.758   3.056 -0.7022  1.7013  1.6309
 2666TIP3    H2 8005   1.614   0.767   2.968  0.5490 -0.2958 -0.4206
 2667TIP3   OH2 8006   3.889   0.605   1.220  0.4915  0.4306 -0.1670
 2667TIP3    H1 8007   3.896   0.537   1.287  1.8927  1.0925  0.3825
 2667TIP3    H2 8008   3.813   0.657   1.248  1.4003  1.0433  1.2514
 2668TIP3   OH2 8009   0.835   2.320   2.943  0.1254  0.0490  0.6409
 2668TIP3    H1 8010   0.898   2.258   2.908 -0.8434 -0.6509  0.0803
 2668TIP3    H2 8011   0.758   2.311   2.886  1.0996  4.2809 -1.7742
 2669TIP3   OH2 8012   1.030   2.290   4.330  0.8442 -0.2203 -0.1436
 2669TIP3    H1 8013   1.102   2.228   4.344  1.6285  0.3032 -1.5773
 2669TIP3    H2 8014   0.994   2.265   4.244 -0.5447 -0.3086  0.4397
 2670TIP3   OH2 8015   2.547   2.010   4.911 -0.0887  0.1795 -0.2499
 2670TIP3    H1 8016   2.566   1.919   4.890 -0.4884 -0.0233  0.2341
 2670TIP3    H2 8017   2.548   2.055   4.827  0.0251 -0.2900 -0.5020
 2671TIP3   OH2 8018   5.151   1.995   0.599  0.0531  0.6258 -0.1589
 2671TIP3    H1 8019   5.166   1.942   0.521 -1.0087  0.6494 -0.3896
 2671TIP3    H2 8020   5.063   2.032   0.588  0.4052  1.7044  0.4263
 2672TIP3   OH2 8021   2.884   5.337   4.833  0.4471  0.1471  0.0993
 2672TIP3    H1 8022   2.846   5.340   4.745 -0.0218 -1.7133  0.1792
 2672TIP3    H2 8023   2.817   5.376   4.889  1.3983  2.8091 -0.5057
 2673TIP3   OH2 8024   5.324   4.283   3.977 -0.5505  0.6143 -0.3393
 2673TIP3    H1 8025   5.365   4.369   3.975 -0.8649  0.7620 -2.7689
 2673TIP3    H2 8026   5.282   4.279   4.063 -0.0296  2.6356  0.0577
 2674TIP3   OH2 8027   5.102   0.452   3.365  0.1458 -0.7889  0.5622
 2674TIP3    H1 8028   5.138   0.472   3.452 -2.2827 -2.2682  2.0242
 2674TIP3    H2 8029   5.021   0.404   3.383 -1.7415  0.9255 -2.4910
 2675TIP3   OH2 8030   4.585   4.780   2.352 -0.4341  0.2019 -0.0657
 2675TIP3    H1 8031   4.639   4.856   2.373 -1.1810  0.5093  0.8419
 2675TIP3    H2 8032   4.608   4.715   2.418 -0.4758 -0.0231 -0.2696
 2676TIP3   OH2 8033   0.231   0.615   1.538  0.0023  0.1757  0.3625
 2676TIP3    H1 8034   0.320   0.617   1.500  0.0592 -2.1424  0.2263
 2676TIP3    H2 8035   0.214   0.706   1.563  2.6791  0.6024  1.0068
 2677TIP3   OH2 8036   1.610   0.931   3.533 -0.6760 -0.1712  0.3876
 2677TIP3    H1 8037   1.537   0.926   3.594 -1.2332  1.0962 -0.1355
 2677TIP3    H2 8038   1.676   0.985   3.577 -0.9788  0.5416 -0.0205
 2678TIP3   OH2 8039   1.661   2.644   0.657 -0.2853 -0.2545 -0.6244
 2678TIP3    H1 8040   1.569   2.625   0.673 -0.0654 -1.0607 -0.2677
 2678TIP3    H2 8041   1.707   2.564   0.681  0.7764  0.9198  1.5636
 2679TIP3   OH2 8042   1.582   3.991   0.507  0.3486 -0.2117  0.3261
 2679TIP3    H1 8043   1.501   3.993   0.457  1.0137 -1.4831 -0.8558
 2679TIP3    H2 8044   1.600   4.083   0.527  0.7714  0.5355 -2.9886
 2680TIP3   OH2 8045   3.420   1.952   1.339 -0.1908  0.0957 -0.4688
 2680TIP3    H1 8046   3.468   1.927   1.260  0.4689 -3.4247  0.8538
 2680TIP3    H2 8047   3.486   1.992   1.395 -0.5858  2.2772 -1.4607
 2681TIP3   OH2 8048   0.905   3.360   2.950 -0.0287  0.2225  0.0641
 2681TIP3    H1 8049   0.885   3.275   2.910  3.1921  0.1844 -1.8664
 2681TIP3    H2 8050   0.820   3.394   2.977 -1.6551 -2.8065 -0.7098
 2682TIP3   OH2 8051   6.033   5.872   1.044  0.3185 -0.6139  0.1189
 2682TIP3    H1 8052   6.037   5.793   0.990  2.1707 -0.1730 -0.4638
 2682TIP3    H2 8053   6.066   5.942   0.988 -0.1874  0.3636  1.0025
 2683TIP3   OH2 8054   5.662   4.487   0.249  0.4413 -0.4673  0.1794
 2683TIP3    H1 8055   5.689   4.513   0.337  1.4621 -1.4659  0.1826
 2683TIP3    H2 8056   5.739   4.502   0.194 -0.9339  2.6085 -1.1433
 2684TIP3   OH2 8057   1.338   3.856   3.171  0.0145 -0.2107  0.5291
 2684TIP3    H1 8058   1.418   3.828   3.127  0.7299  2.4906 -0.0314
 2684TIP3    H2 8059   1.274   3.868   3.101 -0.0606  0.2690  0.6801
 2685TIP3   OH2 8060   3.957   1.345   3.974  0.1289 -0.8374 -0.2885
 2685TIP3    H1 8061   3.956   1.418   4.036 -0.1996 -1.6143  0.6320
 2685TIP3    H2 8062   3.950   1.388   3.888 -0.7754  0.1845  0.2638
 2686TIP3   OH2 8063  -0.024   2.477   2.361  0.3320  0.8017 -0.8266
 2686TIP3    H1 8064  -0.025   2.382   2.348  0.5896  0.6174  0.4389
 2686TIP3    H2 8065   0.069   2.499   2.369  0.2485  1.0851 -0.6035
 2687TIP3   OH2 8066   5.720   0.439   0.965 -0.0568 -0.0547 -0.1867
 2687TIP3    H1 8067   5.786   0.502   0.936 -0.7746  1.2401  0.8714
 2687TIP3    H2 8068   5.682   0.479   1.043 -1.6588 -1.0610 -0.4112
 2688TIP3   OH2 8069   5.882   1.088   3.100 -0.0071 -0.1255 -0.0325
 2688TIP3    H1 8070   5.836   1.138   3.033 -1.6726 -0.7019  0.6489
 2688TIP3    H2 8071   5.919   1.154   3.158  1.1589  0.3701 -1.2893
 2689TIP3   OH2 8072   4.514   1.142   1.825 -0.0949 -0.2963 -0.1779
 2689TIP3    H1 8073   4.493   1.126   1.917  0.9572  2.0553  0.5480
 2689TIP3    H2 8074   4.520   1.055   1.786 -0.1900 -1.3730  2.0690
 2690TIP3   OH2 8075   1.037   2.656   1.464  0.4501 -0.3138 -0.2231
 2690TIP3    H1 8076   1.044   2.576   1.517 -1.2413 -1.5151 -1.6963
 2690TIP3    H2 8077   1.098   2.642   1.392  1.5267  0.5943  0.4713
 2691TIP3   OH2 8078   2.903   5.352   2.149  0.1323  0.2151 -0.4437
 2691TIP3    H1 8079   2.920   5.266   2.111 -0.1272 -0.4033  0.8028
 2691TIP3    H2 8080   2.812   5.371   2.126  0.2576  0.2778 -0.9128
 2692TIP3   OH2 8081   0.918   5.145   4.924  0.6193  0.6360  0.2288
 2692TIP3    H1 8082   0.996   5.189   4.959  0.7897 -0.2709  1.0426
 2692TIP3    H2 8083   0.852   5.155   4.992  0.6293 -0.2462  0.3906
 2693TIP3   OH2 8084   0.892   4.805   3.802  0.0274  0.0949 -0.5118
 2693TIP3    H1 8085   0.827   4.735   3.792  0.7388 -0.6627 -0.0153
 2693TIP3    H2 8086   0.882   4.833   3.893 -0.9187  1.3400 -0.9720
 2694TIP3   OH2 8087   0.000   0.015   0.487 -0.1588 -0.3907 -0.3472
 2694TIP3    H1 8088   0.090   0.040   0.467 -0.6218  1.3619 -0.3529
 2694TIP3    H2 8089  -0.034  -0.021   0.405  0.5331 -1.1308 -0.3242
 2695TIP3   OH2 8090   4.183   3.301   2.855 -0.1602  0.2646  0.1832
 2695TIP3    H1 8091   4.173   3.386   2.812 -2.8124  0.9249  1.8886
 2695TIP3    H2 8092   4.100   3.256   2.838  1.1244 -1.9810 -0.5583
 2696TIP3   OH2 8093   6.100   2.598   2.232  0.1453  0.3281 -0.3294
 2696TIP3    H1 8094   6.194   2.600   2.247  0.3579  0.8649 -1.5924
 2696TIP3    H2 8095   6.081   2.679   2.184 -1.0430  0.4645  0.3249
 2697TIP3   OH2 8096   3.686   5.234   2.198  0.1485 -0.2093  0.3492
 2697TIP3    H1 8097   3.691   5.166   2.265  1.6066 -0.5385 -0.0475
 2697TIP3    H2 8098   3.617   5.205   2.139  0.0691 -0.8277  0.7327
 2698TIP3   OH2 8099   3.054   3.429   3.218  0.2802  0.6269 -0.1531
 2698TIP3    H1 8100   3.043   3.430   3.313  0.8425  0.7452 -0.0839
 2698TIP3    H2 8101   3.077   3.519   3.195  1.2474  0.3715 -0.2529
 2699TIP3   OH2 8102   2.111   3.674   4.592  0.3340  0.2660 -0.3493
 2699TIP3    H1 8103   2.060   3.730   4.534 -0.1558  0.7564  0.5337
 2699TIP3    H2 8104   2.171   3.627   4.534  1.6753  2.6508 -0.9911
 2700TIP3   OH2 8105   3.610   2.045   3.777  0.2067  0.2210  0.2263
 2700TIP3    H1 8106   3.535   2.052   3.835  0.3633  1.0507  0.3454
 2700TIP3    H2 8107   3.573   2.020   3.692 -0.3780  1.8552 -0.0415
 2701TIP3   OH2 8108   0.580   4.956   4.212 -0.3783  0.3826  0.1483
 2701TIP3    H1 8109   0.488   4.961   4.190 -0.6666  0.5433  1.2963
 2701TIP3    H2 8110   0.591   4.868   4.249  0.0790  0.1135 -0.6223
 2702TIP3   OH2 8111   4.502   4.178   1.031  0.0139  0.2375  0.2259
 2702TIP3    H1 8112   4.417   4.161   0.989  0.9411  0.4059 -1.8536
 2702TIP3    H2 8113   4.532   4.259   0.991  1.6203 -0.3569  0.1528
 2703TIP3   OH2 8114   0.599   5.884   2.930 -0.2084  0.5263  0.4071
 2703TIP3    H1 8115   0.528   5.944   2.907 -0.1006 -0.0848 -1.7581
 2703TIP3    H2 8116   0.562   5.825   2.995 -1.3789  0.8432  0.0447
 2704TIP3   OH2 8117   3.360   2.604   2.600 -0.3116 -0.4621 -0.4934
 2704TIP3    H1 8118   3.385   2.537   2.536  0.9758 -1.9052  1.3631
 2704TIP3    H2 8119   3.343   2.554   2.680  1.2563  1.4413  1.1354
 2705TIP3   OH2 8120   2.610   4.416   4.182 -0.0485  0.4184 -0.3255
 2705TIP3    H1 8121   2.692   4.382   4.148  0.2191 -0.0592  0.7652
 2705TIP3    H2 8122   2.633   4.459   4.264 -0.9881 -0.4031  0.3932
 2706TIP3   OH2 8123   0.245   2.233   4.554 -0.1269  0.4647  0.0943
 2706TIP3    H1 8124   0.277   2.143   4.567  1.4134  1.1167  1.0987
 2706TIP3    H2 8125   0.243   2.243   4.459 -0.5059 -0.6957 -0.0394
 2707TIP3   OH2 8126   2.628   2.599   2.476  0.2782 -0.0272  0.4417
 2707TIP3    H1 8127   2.579   2.516   2.481 -0.1091  0.1711  0.0047
 2707TIP3    H2 8128   2.629   2.630   2.567 -0.8706  0.2184  0.3942
 2708TIP3   OH2 8129   4.396   0.478   3.065 -0.4491  0.0409 -0.2052
 2708TIP3    H1 8130   4.465   0.527   3.019 -0.3074 -0.8578 -0.9747
 2708TIP3    H2 8131   4.359   0.420   2.999 -0.0079 -1.5432  0.8794
 2709TIP3   OH2 8132   1.928   0.632   3.642 -0.4472 -0.1276  0.0380
 2709TIP3    H1 8133   1.982   0.642   3.564 -0.8211 -1.6788 -0.4820
 2709TIP3    H2 8134   1.844   0.671   3.618  0.5381  2.9074  1.0886
 2710TIP3   OH2 8135   2.060   5.288   3.277 -0.5958 -0.0198  0.7394
 2710TIP3    H1 8136   2.060   5.384   3.284 -0.9220  0.0373  0.0777
 2710TIP3    H2 8137   1.998   5.270   3.206  0.2024 -0.6703  0.1975
 2711TIP3   OH2 8138   5.046   0.873   0.358  0.4823  0.2394  0.1119
 2711TIP3    H1 8139   4.994   0.823   0.295 -0.7106  0.4901  0.8534
 2711TIP3    H2 8140   5.006   0.960   0.358 -0.1530 -0.0027  1.8526
 2712TIP3   OH2 8141   1.806   3.942   3.574  0.4000  0.2265 -0.1316
 2712TIP3    H1 8142   1.861   3.912   3.502  0.7597  0.5653 -0.0042
 2712TIP3    H2 8143   1.732   3.882   3.575  1.1258 -0.6891  0.1574
 2713TIP3   OH2 8144   3.305   5.044   1.141 -0.4580 -0.1625  0.0411
 2713TIP3    H1 8145   3.266   5.076   1.060  0.3345 -0.3719 -0.4396
 2713TIP3    H2 8146   3.395   5.022   1.117  0.2108  1.0753  1.2870
 2714TIP3   OH2 8147   3.201   3.714   1.118  0.1568 -0.1188 -0.6741
 2714TIP3    H1 8148   3.178   3.740   1.207 -1.1234 -0.7213 -0.8088
 2714TIP3    H2 8149   3.279   3.766   1.097  0.5643 -0.0692  0.8317
 2715TIP3   OH2 8150   1.078   5.261   3.342  0.0979 -0.6923  0.1141
 2715TIP3    H1 8151   1.107   5.288   3.429  0.0784  1.4773 -0.4764
 2715TIP3    H2 8152   1.021   5.332   3.313  0.8631 -0.8773 -2.0402
 2716TIP3   OH2 8153   0.861   0.259   1.804 -0.6599  0.4595 -0.0685
 2716TIP3    H1 8154   0.790   0.304   1.851  0.0043  0.8639  0.5692
 2716TIP3    H2 8155   0.917   0.224   1.873  0.8790  1.9243 -0.5200
 2717TIP3   OH2 8156   2.596   0.314   2.566 -0.0625 -1.0401 -0.3152
 2717TIP3    H1 8157   2.524   0.321   2.504  0.8757 -1.4040 -1.4953
 2717TIP3    H2 8158   2.554   0.299   2.650 -1.4122  0.2962 -0.7002
 2718TIP3   OH2 8159   4.012   5.852   2.382  0.5575 -0.2892 -0.1467
 2718TIP3    H1 8160   3.981   5.843   2.472 -0.2158 -0.1508 -0.3863
 2718TIP3    H2 8161   3.986   5.941   2.357 -1.5871 -1.1802 -1.3436
 2719TIP3   OH2 8162   5.811   2.530   5.090  0.3994 -0.1867 -0.0587
 2719TIP3    H1 8163   5.859   2.457   5.129  1.8468 -0.0315 -1.4731
 2719TIP3    H2 8164   5.784   2.498   5.004  0.7153  0.7958 -0.5393
 2720TIP3   OH2 8165   5.246   1.416   2.980  0.4634 -0.1190  0.0472
 2720TIP3    H1 8166   5.179   1.409   2.912  0.6063  0.3315 -0.1449
 2720TIP3    H2 8167   5.197   1.425   3.062  0.2910 -0.3327 -0.0329
 2721TIP3   OH2 8168   4.894   5.286   2.692  0.1251 -0.5852 -0.6536
 2721TIP3    H1 8169   4.907   5.367   2.742 -1.2644 -1.6066  1.5202
 2721TIP3    H2 8170   4.822   5.305   2.633 -1.0639 -0.5351  0.7402
 2722TIP3   OH2 8171   5.144   0.851   1.174 -0.2565 -0.6796 -0.0282
 2722TIP3    H1 8172   5.132   0.849   1.079 -2.4850 -2.5216  0.2013
 2722TIP3    H2 8173   5.120   0.940   1.200 -1.1770 -0.6195 -1.0308
 2723TIP3   OH2 8174   2.795   0.691   2.148  0.5252 -0.0784 -0.2195
 2723TIP3    H1 8175   2.757   0.615   2.105 -1.3668  0.5393  0.2624
 2723TIP3    H2 8176   2.868   0.656   2.199 -2.7765 -2.3956  3.4409
 2724TIP3   OH2 8177   3.590   4.767   0.118 -0.2250 -0.4845  0.1332
 2724TIP3    H1 8178   3.670   4.722   0.089 -0.8966 -3.5677  2.5420
 2724TIP3    H2 8179   3.621   4.834   0.179  0.7313  1.9799 -2.7974
 2725TIP3   OH2 8180   2.401   3.181   3.884 -0.2127 -0.4987 -0.0848
 2725TIP3    H1 8181   2.317   3.192   3.930 -1.1294 -2.8594 -1.0332
 2725TIP3    H2 8182   2.454   3.128   3.944 -0.2892 -1.0263 -0.4822
 2726TIP3   OH2 8183   5.998   1.619   5.200 -0.2285  0.1727  0.1502
 2726TIP3    H1 8184   6.074   1.629   5.143 -0.4091 -1.7451 -0.5094
 2726TIP3    H2 8185   5.973   1.527   5.190 -3.6506  1.0721 -0.9405
 2727TIP3   OH2 8186   1.466   5.953   0.046  0.0510  0.4151  1.1481
 2727TIP3    H1 8187   1.464   6.026  -0.017 -0.0183  1.1310  1.9590
 2727TIP3    H2 8188   1.557   5.923   0.044 -0.6066 -1.8223 -1.7631
 2728TIP3   OH2 8189   3.191   3.861   1.752  0.0991 -0.3312 -0.0492
 2728TIP3    H1 8190   3.114   3.815   1.720  0.8145 -0.9887 -0.8828
 2728TIP3    H2 8191   3.163   3.900   1.835 -1.0272 -0.8161 -0.1798
 2729TIP3   OH2 8192   5.379   2.890   4.288 -0.3668  0.5153  0.5627
 2729TIP3    H1 8193   5.345   2.961   4.232 -1.4996 -0.5281 -0.1261
 2729TIP3    H2 8194   5.414   2.826   4.226 -0.0956  0.0975  1.1409
 2730TIP3   OH2 8195   2.951   2.169   4.895  0.1521 -0.2005 -0.1558
 2730TIP3    H1 8196   2.935   2.219   4.975 -1.5486  2.1329 -1.8239
 2730TIP3    H2 8197   2.927   2.079   4.917  0.0746  0.3024  2.0164
 2731TIP3   OH2 8198   2.085   4.375   1.684 -0.3813  0.2955 -0.3793
 2731TIP3    H1 8199   2.064   4.338   1.598  1.3992  1.6736 -1.4694
 2731TIP3    H2 8200   2.177   4.352   1.698 -0.6109  0.2147  1.1031
 2732TIP3   OH2 8201   1.104   2.446   4.876  0.5433  0.8726  0.2349
 2732TIP3    H1 8202   1.063   2.463   4.791 -1.2168  1.7066  1.2030
 2732TIP3    H2 8203   1.128   2.353   4.873  0.0513  0.7675 -0.9646
 2733TIP3   OH2 8204   1.820   4.893   3.179  0.2466  0.8078  0.1333
 2733TIP3    H1 8205   1.776   4.819   3.137 -0.7823  1.1155  0.6509
 2733TIP3    H2 8206   1.750   4.953   3.202  0.8242  0.8974  1.8092
 2734TIP3   OH2 8207   3.994   0.557   0.947  0.0564  0.2361 -0.0088
 2734TIP3    H1 8208   3.942   0.583   1.023 -1.4956 -0.5891 -0.7281
 2734TIP3    H2 8209   4.054   0.490   0.980  0.0263  0.5411  0.6712
 2735TIP3   OH2 8210   2.704   3.037   1.779  0.5072  0.0901  0.0870
 2735TIP3    H1 8211   2.736   2.956   1.740 -0.4250 -1.3057  2.0446
 2735TIP3    H2 8212   2.779   3.071   1.828  0.8976  0.4491 -0.7303
 2736TIP3   OH2 8213   5.893   0.065   3.588 -0.6169  0.1000  0.8420
 2736TIP3    H1 8214   5.897  -0.025   3.556  0.6785  0.8612 -1.3897
 2736TIP3    H2 8215   5.804   0.093   3.567 -0.5976 -0.2406  0.2704
 2737TIP3   OH2 8216   2.121   5.376   4.035  0.0464  0.0783  0.0845
 2737TIP3    H1 8217   2.092   5.433   4.106  0.3308  1.1858 -0.6543
 2737TIP3    H2 8218   2.214   5.362   4.052 -0.2706 -1.1554  0.9077
 2738TIP3   OH2 8219   2.626   0.977   4.920 -0.4845  0.2632  0.4420
 2738TIP3    H1 8220   2.678   0.995   4.842 -0.1573 -1.5634  0.2020
 2738TIP3    H2 8221   2.556   1.043   4.918 -0.6229  0.1066 -1.5208
 2739TIP3   OH2 8222   2.362   1.917   0.069  0.1138  0.5278  0.0214
 2739TIP3    H1 8223   2.291   1.883   0.124 -1.0572  1.7803 -0.6589
 2739TIP3    H2 8224   2.428   1.847   0.069 -1.1160 -0.6806  0.6600
 2740TIP3   OH2 8225   2.067   2.741   3.613  0.3207 -0.3594  0.5761
 2740TIP3    H1 8226   1.976   2.725   3.637 -0.0118  1.9035  1.0128
 2740TIP3    H2 8227   2.116   2.729   3.694  0.1625  0.1612  0.7530
 2741TIP3   OH2 8228   2.464   5.892   1.927 -0.2432 -0.7099 -0.3191
 2741TIP3    H1 8229   2.484   5.961   1.863  1.3557  2.4166  3.1824
 2741TIP3    H2 8230   2.546   5.843   1.935  0.3038  0.3557  0.8686
 2742TIP3   OH2 8231   5.132   1.324   1.506  0.2895 -0.0823  0.3602
 2742TIP3    H1 8232   5.085   1.289   1.582  0.7008  0.1556  0.7290
 2742TIP3    H2 8233   5.094   1.410   1.490  1.2195  0.5163  1.2472
 2743TIP3   OH2 8234   1.841   2.509   4.867  0.2729  0.2498 -0.5979
 2743TIP3    H1 8235   1.756   2.466   4.863  0.6321 -0.4102 -3.5721
 2743TIP3    H2 8236   1.821   2.602   4.875 -0.6628 -0.0062  0.2106
 2744TIP3   OH2 8237   0.784   2.805   3.285 -0.4593 -0.0296  0.0911
 2744TIP3    H1 8238   0.735   2.818   3.367  0.5947  1.9520  0.4474
 2744TIP3    H2 8239   0.720   2.764   3.226 -1.4817 -0.7454  1.6187
 2745TIP3   OH2 8240   3.985   2.802   1.326 -0.4608 -0.0229  0.4453
 2745TIP3    H1 8241   3.995   2.726   1.269 -0.9094 -0.5733  1.0852
 2745TIP3    H2 8242   3.938   2.866   1.273  2.3813  0.9338 -1.0876
 2746TIP3   OH2 8243   2.641   2.635   0.416 -0.6090  0.1995  0.3645
 2746TIP3    H1 8244   2.606   2.683   0.340 -0.6227 -0.2848  0.0554
 2746TIP3    H2 8245   2.573   2.570   0.435 -1.3727  1.3832  1.8508
 2747TIP3   OH2 8246   1.820   3.595   4.802  0.0516  0.0135  0.2075
 2747TIP3    H1 8247   1.899   3.618   4.851 -0.4913  0.5437  0.8469
 2747TIP3    H2 8248   1.805   3.670   4.745  0.5668 -0.5155 -0.6502
 2748TIP3   OH2 8249   0.649   4.395   1.039 -0.3059 -0.3972  0.0566
 2748TIP3    H1 8250   0.643   4.323   0.977 -0.1296 -0.0225 -0.4022
 2748TIP3    H2 8251   0.706   4.459   0.996  0.1697 -0.3193  0.7907
 2749TIP3   OH2 8252   4.995   0.365   2.219 -0.0482 -0.5224  0.2202
 2749TIP3    H1 8253   5.072   0.414   2.190 -0.2809 -0.0218  0.4341
 2749TIP3    H2 8254   4.960   0.325   2.140 -0.2861  0.2744 -0.0861
 2750TIP3   OH2 8255   3.244   1.744   0.756 -0.3724 -0.0916  0.3509
 2750TIP3    H1 8256   3.233   1.657   0.718  0.0105  0.0798 -0.1659
 2750TIP3    H2 8257   3.252   1.729   0.850 -1.4717 -0.5092  0.3824
 2751TIP3   OH2 8258   0.965   5.356   2.111  0.3269 -0.5134 -0.3096
 2751TIP3    H1 8259   0.892   5.412   2.138 -0.1459 -1.8799  1.4491
 2751TIP3    H2 8260   0.930   5.305   2.038  0.6333  1.0920 -1.6601
 2752TIP3   OH2 8261   5.349   4.729   4.732 -0.4154 -0.5872 -0.1994
 2752TIP3    H1 8262   5.385   4.673   4.664  1.0399 -1.5577  1.3036
 2752TIP3    H2 8263   5.267   4.763   4.694 -0.5255 -2.4294 -1.7545
 2753TIP3   OH2 8264   6.060   1.187   1.083 -0.4238 -0.2538 -0.2637
 2753TIP3    H1 8265   5.984   1.160   1.032 -0.9867  2.1872 -0.8874
 2753TIP3    H2 8266   6.028   1.194   1.172 -0.0082 -2.3976  0.1106
 2754TIP3   OH2 8267   1.823   4.105   1.392 -0.3734  0.0223  0.3574
 2754TIP3    H1 8268   1.907   4.139   1.421 -0.0126 -0.2621 -0.3375
 2754TIP3    H2 8269   1.788   4.171   1.333  0.9469 -1.3281 -2.0738
 2755TIP3   OH2 8270   4.152   0.308   0.848 -0.0949  0.1827  0.5142
 2755TIP3    H1 8271   4.204   0.233   0.878  0.8146 -0.5021 -2.4922
 2755TIP3    H2 8272   4.217   0.371   0.818 -0.8930 -0.0867 -1.9619
 2756TIP3   OH2 8273   4.730   2.996   2.094  0.0844  1.0744 -0.7226
 2756TIP3    H1 8274   4.645   2.960   2.119  0.6655 -0.0770 -0.3247
 2756TIP3    H2 8275   4.763   2.935   2.027  1.1142  0.8060  0.0062
 2757TIP3   OH2 8276   6.256   2.064   3.444 -0.3887  0.0592 -0.5764
 2757TIP3    H1 8277   6.323   2.121   3.480 -0.2557 -0.8122  0.6067
 2757TIP3    H2 8278   6.301   1.980   3.429 -0.8518 -0.0894 -1.1924
 2758TIP3   OH2 8279   5.264   0.997   4.789 -0.0180 -0.4976 -0.0684
 2758TIP3    H1 8280   5.279   1.074   4.735  1.4023 -0.8940 -0.2868
 2758TIP3    H2 8281   5.230   1.032   4.872 -0.7523  0.2268 -0.6543
 2759TIP3   OH2 8282   3.515   5.845   3.307 -0.0080 -0.3567 -0.1497
 2759TIP3    H1 8283   3.487   5.857   3.216 -0.3773 -2.0102 -0.2767
 2759TIP3    H2 8284   3.487   5.757   3.330  0.2054 -0.0242  1.5388
 2760TIP3   OH2 8285   0.780   1.316   4.585  0.2902  0.3537 -0.0453
 2760TIP3    H1 8286   0.785   1.411   4.579  0.2712  0.3787  0.2988
 2760TIP3    H2 8287   0.764   1.299   4.678  1.8719 -0.0488  0.1845
 2761TIP3   OH2 8288   2.943   1.846   0.272  0.2146  0.1680 -0.4597
 2761TIP3    H1 8289   2.879   1.829   0.202 -0.4762  1.2231 -0.1032
 2761TIP3    H2 8290   2.973   1.935   0.257 -0.1560  0.5209  0.7403
 2762TIP3   OH2 8291   5.090   4.875   4.080 -0.2112 -0.0126 -0.6790
 2762TIP3    H1 8292   5.027   4.910   4.016  0.2284  1.9970 -0.0965
 2762TIP3    H2 8293   5.173   4.918   4.057  0.1803 -0.0406  0.6075
 2763TIP3   OH2 8294   1.123   4.032   3.822 -0.3435 -0.5781 -0.1387
 2763TIP3    H1 8295   1.168   3.994   3.897  0.2384 -0.7291 -0.5561
 2763TIP3    H2 8296   1.097   3.957   3.769 -0.2669 -0.4436 -0.3649
 2764TIP3   OH2 8297   5.341   2.182   4.996  0.1087 -0.2470  0.1333
 2764TIP3    H1 8298   5.426   2.212   5.028  1.3488 -3.5845  0.3843
 2764TIP3    H2 8299   5.350   2.179   4.901 -0.5422  1.4028 -0.0151
 2765TIP3   OH2 8300   2.069   2.793   0.931 -0.4211  0.2847  0.3627
 2765TIP3    H1 8301   2.089   2.774   0.839 -1.0474  1.9563 -0.1693
 2765TIP3    H2 8302   2.117   2.728   0.981 -0.1185 -0.7012 -1.1588
 2766TIP3   OH2 8303   1.388   5.280   3.261  0.2692 -0.2873 -0.6375
 2766TIP3    H1 8304   1.383   5.214   3.192  3.0551 -2.1220  0.7708
 2766TIP3    H2 8305   1.339   5.243   3.334 -1.2596  0.9311 -0.9649
 2767TIP3   OH2 8306   4.950   3.748   1.261 -0.0336 -0.4668  0.6774
 2767TIP3    H1 8307   4.959   3.821   1.322 -0.2347  1.3359 -1.3213
 2767TIP3    H2 8308   4.870   3.703   1.289 -0.0006  0.1624  1.8570
 2768TIP3   OH2 8309   5.525   0.353   1.427 -0.1326 -0.2863 -0.4247
 2768TIP3    H1 8310   5.474   0.295   1.484 -1.0490 -0.9705 -1.8769
 2768TIP3    H2 8311   5.597   0.299   1.396  1.0636  0.4373  0.9603
 2769TIP3   OH2 8312   1.922   5.276   4.505  0.1478  0.1229  0.1757
 2769TIP3    H1 8313   1.938   5.204   4.565  0.5060 -0.3123 -0.4248
 2769TIP3    H2 8314   1.898   5.234   4.422  1.3906  0.6334 -0.4887
 2770TIP3   OH2 8315   3.628   1.065   2.436  0.6483  0.0603  0.0424
 2770TIP3    H1 8316   3.666   0.980   2.457  1.0367 -0.6075 -2.9647
 2770TIP3    H2 8317   3.547   1.068   2.488 -0.9947 -3.5374 -1.9112
 2771TIP3   OH2 8318   0.197   4.904   2.008 -0.1523 -0.4019  0.4957
 2771TIP3    H1 8319   0.289   4.917   1.985 -0.2721  1.2897  0.8554
 2771TIP3    H2 8320   0.186   4.809   2.012  0.7856 -0.7694 -2.7752
 2772TIP3   OH2 8321   4.956   1.191   4.585  0.6937 -0.0315  0.5697
 2772TIP3    H1 8322   5.048   1.174   4.605  0.6647 -0.6518  0.2082
 2772TIP3    H2 8323   4.949   1.180   4.490  0.4051  0.8035  0.4877
 2773TIP3   OH2 8324   4.988   0.490   0.405  0.2885  0.1095  0.3660
 2773TIP3    H1 8325   5.009   0.406   0.363 -0.6057 -0.1183  0.3539
 2773TIP3    H2 8326   4.975   0.550   0.332  1.2806  0.3575  0.3807
 2774TIP3   OH2 8327   1.839   3.483   1.339  0.3252  0.0913  0.3363
 2774TIP3    H1 8328   1.803   3.473   1.426  0.7138  1.6590  0.7239
 2774TIP3    H2 8329   1.929   3.453   1.346 -0.0739 -1.2057  0.0737
 2775TIP3   OH2 8330   4.892   3.136   1.243  0.0924 -0.1796 -0.2275
 2775TIP3    H1 8331   4.972   3.168   1.201 -0.9113 -0.6024 -2.6392
 2775TIP3    H2 8332   4.831   3.121   1.170 -1.6545 -1.3848  1.3869
 2776TIP3   OH2 8333   5.442   1.216   3.597 -0.2719 -0.1943 -0.3072
 2776TIP3    H1 8334   5.456   1.268   3.677 -3.3575  0.9354 -0.3471
 2776TIP3    H2 8335   5.462   1.277   3.526  0.5119 -0.5447 -0.3882
 2777TIP3   OH2 8336   6.176   2.842   5.158 -0.1640 -0.0147  0.1143
 2777TIP3    H1 8337   6.158   2.858   5.065  1.6440  0.8595 -0.1254
 2777TIP3    H2 8338   6.230   2.763   5.158  1.5055  1.0716  0.2019
 2778TIP3   OH2 8339   0.782   0.316   1.077  0.5482  0.3618  0.1088
 2778TIP3    H1 8340   0.715   0.351   1.136  0.5228 -1.8324  1.5198
 2778TIP3    H2 8341   0.738   0.308   0.993 -0.1659  1.3334  0.3770
 2779TIP3   OH2 8342   2.697   4.298   1.816  0.2943  0.4377 -0.7091
 2779TIP3    H1 8343   2.771   4.261   1.769 -0.6723  1.2139 -3.0038
 2779TIP3    H2 8344   2.640   4.223   1.835  1.1791 -0.0233  0.2327
 2780TIP3   OH2 8345   4.749   5.228   5.023 -0.4434 -0.5024 -0.0413
 2780TIP3    H1 8346   4.786   5.270   4.945 -0.5792  0.4241  0.3804
 2780TIP3    H2 8347   4.695   5.156   4.988 -1.3480  0.5395 -0.8820
 2781TIP3   OH2 8348   0.186   1.127   4.267 -0.2537 -0.1512 -0.6831
 2781TIP3    H1 8349   0.166   1.114   4.175 -1.6035 -0.8077 -0.3348
 2781TIP3    H2 8350   0.113   1.083   4.313  0.0703  0.6857  0.6719
 2782TIP3   OH2 8351   0.918   5.258   1.571 -0.4606  0.2875 -0.2537
 2782TIP3    H1 8352   0.858   5.332   1.564 -1.4044  0.0528  3.3331
 2782TIP3    H2 8353   0.863   5.186   1.603  1.1665 -0.8329  0.1351
 2783TIP3   OH2 8354   1.593   3.522   0.994 -0.0353 -0.1085  0.1703
 2783TIP3    H1 8355   1.564   3.546   1.082 -1.8797 -2.0047  0.1602
 2783TIP3    H2 8356   1.606   3.427   0.998 -1.5609 -0.4814 -1.9231
 2784TIP3   OH2 8357   1.215   0.287   4.135  0.2760  0.2317 -0.0555
 2784TIP3    H1 8358   1.262   0.213   4.096  1.7513  0.3870  1.3353
 2784TIP3    H2 8359   1.167   0.249   4.209  1.1827  0.6609  0.7731
 2785TIP3   OH2 8360   4.338   0.723   3.456  0.3983 -0.1412  0.4750
 2785TIP3    H1 8361   4.284   0.783   3.404  1.9666  1.4471  0.5559
 2785TIP3    H2 8362   4.320   0.637   3.420 -0.2290  0.6507 -1.2028
 2786TIP3   OH2 8363   0.254   3.439   4.910  0.1507 -0.4795 -0.5185
 2786TIP3    H1 8364   0.213   3.422   4.995 -1.0431  1.5359 -0.6131
 2786TIP3    H2 8365   0.331   3.382   4.908  1.4013  0.8603  2.8173
 2787TIP3   OH2 8366   6.096   3.131   4.763  0.0823 -0.1355 -0.9098
 2787TIP3    H1 8367   6.028   3.117   4.829  1.3612 -0.2035  0.4553
 2787TIP3    H2 8368   6.056   3.190   4.699 -1.0240  0.4065  0.2338
 2788TIP3   OH2 8369   3.604   2.103   2.995 -0.5874 -0.3546  0.2859
 2788TIP3    H1 8370   3.632   2.061   3.076  0.6933  0.6518  0.4033
 2788TIP3    H2 8371   3.520   2.143   3.017  0.0059  0.3901  1.3237
 2789TIP3   OH2 8372   6.363   3.059   1.108 -0.5291  0.5785 -0.2473
 2789TIP3    H1 8373   6.331   2.974   1.140  1.3707 -0.0550  0.1131
 2789TIP3    H2 8374   6.284   3.110   1.094 -1.7394 -1.2337 -0.4295
 2790TIP3   OH2 8375   2.849   2.450   0.487  0.1258 -0.0790  0.4005
 2790TIP3    H1 8376   2.801   2.530   0.465 -0.5557 -1.0994 -2.0770
 2790TIP3    H2 8377   2.805   2.417   0.566 -1.2619  0.6210 -0.0586
 2791TIP3   OH2 8378   4.355   4.673   5.022  0.1690 -0.0456 -0.4430
 2791TIP3    H1 8379   4.330   4.589   5.059  0.3304  0.1085  0.0233
 2791TIP3    H2 8380   4.321   4.671   4.932  0.5605 -0.7859 -0.5845
 2792TIP3   OH2 8381   5.948   4.317   2.859 -0.2307  0.0770 -0.4596
 2792TIP3    H1 8382   5.890   4.269   2.918  2.1828 -1.9933  0.3926
 2792TIP3    H2 8383   5.919   4.293   2.771  0.0692 -1.9927 -0.0472
 2793TIP3   OH2 8384   0.407   0.361   3.431 -0.3200 -0.2879  0.0373
 2793TIP3    H1 8385   0.408   0.457   3.435  1.2194 -0.3097  1.7981
 2793TIP3    H2 8386   0.367   0.334   3.514 -0.1522 -1.1590 -0.1577
 2794TIP3   OH2 8387   4.739   4.484   1.653 -0.5846  0.3295  0.7881
 2794TIP3    H1 8388   4.686   4.556   1.687 -0.9454  0.1520  0.6004
 2794TIP3    H2 8389   4.687   4.447   1.582 -0.6997 -0.5453  1.3146
 2795TIP3   OH2 8390   1.365   4.337   3.334 -0.0600 -0.5366  0.0303
 2795TIP3    H1 8391   1.411   4.276   3.277 -2.1000 -1.0393 -1.1782
 2795TIP3    H2 8392   1.343   4.411   3.277  0.8506  0.5530  1.0486
 2796TIP3   OH2 8393   5.065   4.229   3.919  0.3004 -0.2528  0.1766
 2796TIP3    H1 8394   5.048   4.288   3.845 -0.5126  0.1886  0.6963
 2796TIP3    H2 8395   5.153   4.252   3.948 -0.0441  0.8170  0.4450
 2797TIP3   OH2 8396   4.546   3.398   3.683 -0.1432  0.2124 -0.6776
 2797TIP3    H1 8397   4.470   3.396   3.626 -0.0165  1.5361 -0.9196
 2797TIP3    H2 8398   4.563   3.491   3.698  0.6258 -0.0822  0.4426
 2798TIP3   OH2 8399   4.469   2.942   2.130 -0.3125 -0.2979 -0.0801
 2798TIP3    H1 8400   4.387   2.897   2.148  0.3447 -1.0484  1.2061
 2798TIP3    H2 8401   4.443   3.029   2.100 -1.5941 -1.1955 -1.7437
 2799TIP3   OH2 8402   3.633   4.459   4.160  0.3528 -0.0335 -0.7090
 2799TIP3    H1 8403   3.649   4.540   4.111  2.4094 -0.4877 -0.8827
 2799TIP3    H2 8404   3.628   4.486   4.251  0.2597  0.3818 -0.8365
 2800TIP3   OH2 8405   4.743   4.889   3.048  0.6370  0.1692 -0.1709
 2800TIP3    H1 8406   4.738   4.876   2.953 -0.4413  1.0052 -0.2561
 2800TIP3    H2 8407   4.655   4.868   3.080 -0.0235  3.0324  0.1762
 2801TIP3   OH2 8408   6.040   2.255   0.916  0.2525 -0.6070 -0.4511
 2801TIP3    H1 8409   6.116   2.296   0.956 -1.3696 -0.4444  2.7835
 2801TIP3    H2 8410   6.044   2.164   0.945 -0.4959 -0.7312 -0.7065
 2802TIP3   OH2 8411   5.327   3.126   2.633  0.5364  0.0790 -0.2050
 2802TIP3    H1 8412   5.250   3.097   2.682  1.1492 -0.1940  0.6049
 2802TIP3    H2 8413   5.391   3.055   2.645  1.7530  1.3480  1.0841
 2803TIP3   OH2 8414   2.517   1.151   4.635 -0.3798  0.2985 -0.3730
 2803TIP3    H1 8415   2.533   1.057   4.628  1.4877  0.7024 -2.8796
 2803TIP3    H2 8416   2.512   1.182   4.545 -0.1566  2.7379  0.3531
 2804TIP3   OH2 8417   0.176   0.386   2.306 -0.5945 -0.5206  0.2872
 2804TIP3    H1 8418   0.258   0.363   2.261  0.2380  2.8661 -0.1987
 2804TIP3    H2 8419   0.203   0.409   2.395 -0.7227  1.7813 -0.2086
 2805TIP3   OH2 8420   1.422   2.534   4.364  0.0463  0.0798 -0.3090
 2805TIP3    H1 8421   1.437   2.535   4.458 -1.0325  1.4662 -0.1239
 2805TIP3    H2 8422   1.398   2.624   4.342  2.6665  0.4374 -2.3243
 2806TIP3   OH2 8423   0.501   0.122   3.326  0.1131  0.0186 -0.2631
 2806TIP3    H1 8424   0.484   0.203   3.373  1.9820  0.6343 -0.5459
 2806TIP3    H2 8425   0.506   0.149   3.234  2.7337  0.0312 -0.1997
 2807TIP3   OH2 8426   1.809   5.828   5.009 -0.0623 -0.0194 -0.5862
 2807TIP3    H1 8427   1.814   5.821   4.914  0.4816 -0.9105 -0.4994
 2807TIP3    H2 8428   1.727   5.783   5.032 -1.6719  2.5634 -0.8304
 2808TIP3   OH2 8429   3.805   0.289   1.876  0.2476 -0.2913  0.3342
 2808TIP3    H1 8430   3.782   0.285   1.969 -0.4456 -0.6998  0.1550
 2808TIP3    H2 8431   3.883   0.345   1.873  0.1566 -0.1033  1.1346
 2809TIP3   OH2 8432   3.691   1.727   3.365 -0.2260 -0.0786  0.9492
 2809TIP3    H1 8433   3.765   1.787   3.358 -0.1761 -0.1962  0.4615
 2809TIP3    H2 8434   3.639   1.743   3.286  1.4502 -2.8909 -0.9077
 2810TIP3   OH2 8435   3.370   5.984   2.743  0.1200 -0.4625 -0.4019
 2810TIP3    H1 8436   3.339   5.895   2.760 -1.0564 -0.2527 -1.3188
 2810TIP3    H2 8437   3.293   6.031   2.713  0.8031  0.7878 -0.2656
 2811TIP3   OH2 8438   4.404   2.600   4.869  0.4934 -0.0470 -0.5912
 2811TIP3    H1 8439   4.343   2.526   4.867 -0.9800  1.0881 -0.1778
 2811TIP3    H2 8440   4.417   2.616   4.963  0.4681  0.4724 -0.6772
 2812TIP3   OH2 8441   4.972   1.615   3.382  0.4531  0.3217 -0.2155
 2812TIP3    H1 8442   4.979   1.709   3.366 -1.4940  0.5172 -0.2111
 2812TIP3    H2 8443   5.034   1.598   3.453  1.1207  1.5287 -0.4875
 2813TIP3   OH2 8444   1.828   1.885   4.623  0.2327  0.2591  0.4602
 2813TIP3    H1 8445   1.850   1.977   4.639  1.4709 -0.1347  1.1986
 2813TIP3    H2 8446   1.902   1.836   4.661  0.3815 -0.9792 -1.3109
 2814TIP3   OH2 8447   0.628   3.568   4.264  0.5587 -0.0303 -0.0036
 2814TIP3    H1 8448   0.552   3.517   4.238 -0.0341  1.6631 -1.8044
 2814TIP3    H2 8449   0.593   3.639   4.318  0.7428  1.0699 -1.2802
 2815TIP3   OH2 8450   1.472   1.391   1.677 -0.2751  0.8177 -0.1269
 2815TIP3    H1 8451   1.555   1.403   1.631  0.9643 -2.0762  1.0846
 2815TIP3    H2 8452   1.493   1.409   1.769 -1.1290  0.5753  0.1241
 2816TIP3   OH2 8453   1.468   3.780   1.755 -0.0036 -0.4989  0.1280
 2816TIP3    H1 8454   1.546   3.730   1.779  0.3596 -0.2698 -0.5595
 2816TIP3    H2 8455   1.396   3.718   1.765  0.3759 -0.9858 -0.1210
 2817TIP3   OH2 8456   0.647   0.342   3.216 -0.1536 -0.0563  0.3732
 2817TIP3    H1 8457   0.672   0.421   3.264 -0.8409 -1.2848  2.9192
 2817TIP3    H2 8458   0.720   0.327   3.155 -0.0151  2.4876 -0.1822
 2818TIP3   OH2 8459   4.253   1.643   4.010 -0.0362 -0.5890  0.1405
 2818TIP3    H1 8460   4.326   1.691   3.970  0.9617 -0.8934  1.5412
 2818TIP3    H2 8461   4.180   1.704   4.006  1.3305  1.3373  2.3660
 2819TIP3   OH2 8462   1.867   5.691   0.259  0.1254  0.2909  0.1896
 2819TIP3    H1 8463   1.852   5.621   0.195 -1.0928  0.8778 -0.1878
 2819TIP3    H2 8464   1.953   5.671   0.296 -0.4450 -1.7848  0.5504
 2820TIP3   OH2 8465   5.732   0.379   2.452 -0.4299  0.3937 -0.2038
 2820TIP3    H1 8466   5.786   0.456   2.441  1.2247 -0.6694  0.1654
 2820TIP3    H2 8467   5.645   0.405   2.420  0.2654  2.1544 -0.7319
 2821TIP3   OH2 8468   4.724   1.836   0.003  0.1253 -0.0957  0.7523
 2821TIP3    H1 8469   4.659   1.774  -0.030 -0.5356  0.0514  1.7212
 2821TIP3    H2 8470   4.740   1.808   0.093  0.4727  0.6208  0.9167
 2822TIP3   OH2 8471   4.218   0.539   0.744  0.2766  0.3209  0.0488
 2822TIP3    H1 8472   4.263   0.591   0.810  0.6980  1.1349 -0.8497
 2822TIP3    H2 8473   4.141   0.591   0.721 -1.0981 -0.9859  1.4648
 2823TIP3   OH2 8474   1.135   4.512   3.717 -0.1830  0.1076  0.2028
 2823TIP3    H1 8475   1.109   4.565   3.641 -0.3548 -1.2268 -0.6903
 2823TIP3    H2 8476   1.184   4.439   3.680  1.5885  0.5288  1.5554
 2824TIP3   OH2 8477   6.163   0.478   3.831 -0.4583  0.0369  0.2343
 2824TIP3    H1 8478   6.106   0.523   3.769  0.0360 -1.3672 -1.2938
 2824TIP3    H2 8479   6.103   0.440   3.895 -1.1894 -0.6209 -0.8130
 2825TIP3   OH2 8480   4.662   2.501   4.421 -0.2202  0.4648 -0.6987
 2825TIP3    H1 8481   4.724   2.461   4.481  0.6545  2.1306 -0.4247
 2825TIP3    H2 8482   4.688   2.471   4.334  0.0245 -0.0466 -0.4480
 2826TIP3   OH2 8483   5.316   5.919   1.790  0.2184  0.4895  0.5185
 2826TIP3    H1 8484   5.291   5.919   1.698 -0.0536  0.8265  0.5926
 2826TIP3    H2 8485   5.353   6.005   1.805 -1.4242  1.1261  1.1714
 2827TIP3   OH2 8486   1.664   5.886   3.046 -0.1219  0.1405  0.1361
 2827TIP3    H1 8487   1.758   5.879   3.031  0.1249  0.8925  1.1772
 2827TIP3    H2 8488   1.645   5.819   3.112 -0.2320  0.2786  0.2458
 2828TIP3   OH2 8489   1.347   5.556   3.281  0.1032 -0.0350  0.0411
 2828TIP3    H1 8490   1.316   5.569   3.370 -0.1523  0.8040 -0.1699
 2828TIP3    H2 8491   1.333   5.462   3.265  0.1182 -0.1868  0.8606
 2829TIP3   OH2 8492   4.714   5.743   0.786 -0.1474 -0.4398 -0.6100
 2829TIP3    H1 8493   4.797   5.789   0.777  0.8004 -2.0189 -0.2894
 2829TIP3    H2 8494   4.684   5.730   0.696 -0.3451  0.5766 -0.7142
 2830TIP3   OH2 8495   1.144   0.289   3.232  0.5142  0.5007  0.2282
 2830TIP3    H1 8496   1.154   0.382   3.251  2.2058  0.1391  1.2314
 2830TIP3    H2 8497   1.233   0.256   3.224  0.0062 -0.4230 -3.4836
 2831TIP3   OH2 8498   6.012   0.492   3.018  0.1518 -0.6318 -0.2863
 2831TIP3    H1 8499   5.959   0.412   3.015 -1.1291  0.1623  0.2349
 2831TIP3    H2 8500   5.974   0.548   2.951 -0.8448  0.6276  1.2676
 2832TIP3   OH2 8501   3.590   3.802   1.709  1.1083 -0.0270  0.0866
 2832TIP3    H1 8502   3.593   3.858   1.786 -1.5307 -0.3792  0.5335
 2832TIP3    H2 8503   3.559   3.718   1.742 -1.5195  0.2147 -1.4449
 2833TIP3   OH2 8504   0.472   0.114   3.018 -0.3198 -0.2123 -0.5181
 2833TIP3    H1 8505   0.539   0.064   2.971 -1.2804  0.3662 -2.5813
 2833TIP3    H2 8506   0.469   0.199   2.974 -2.6340 -0.3412 -0.7429
 2834TIP3   OH2 8507   1.130   3.963   2.992  0.0897  0.0638  0.3971
 2834TIP3    H1 8508   1.078   3.885   2.976 -0.2838  0.1078  1.3330
 2834TIP3    H2 8509   1.130   3.973   3.087  0.4663  0.9725  0.3148
 2835TIP3   OH2 8510   1.833   2.016   1.380  0.1643  0.0012 -0.1738
 2835TIP3    H1 8511   1.783   2.085   1.335  0.1710 -0.9544 -1.7348
 2835TIP3    H2 8512   1.923   2.049   1.382 -0.0559  0.6057  0.3236
 2836TIP3   OH2 8513   3.883   0.090   3.300 -0.2810  0.1957  0.5188
 2836TIP3    H1 8514   3.815   0.042   3.253 -1.1399  2.9352 -1.2864
 2836TIP3    H2 8515   3.909   0.032   3.371 -2.1786 -2.2916 -0.6673
 2837TIP3   OH2 8516   2.695   5.488   1.838 -0.4247  0.2119  0.4163
 2837TIP3    H1 8517   2.728   5.563   1.788  0.2512 -1.1200 -1.2249
 2837TIP3    H2 8518   2.745   5.413   1.805 -1.7488 -1.1227  1.3189
 2838TIP3   OH2 8519   4.790   0.852   3.125  0.4018  0.1780  0.5504
 2838TIP3    H1 8520   4.825   0.934   3.092  2.1343 -0.2536  1.2247
 2838TIP3    H2 8521   4.866   0.804   3.158 -0.8561 -0.5657  2.6189
 2839TIP3   OH2 8522   4.190   1.988   0.253  0.2924 -0.1099  0.1542
 2839TIP3    H1 8523   4.267   1.988   0.310 -1.3589 -2.5705  2.6291
 2839TIP3    H2 8524   4.119   2.018   0.309 -0.7097  1.9807 -2.0289
 2840TIP3   OH2 8525   0.589   0.153   0.770  0.0410  0.3815  0.3930
 2840TIP3    H1 8526   0.498   0.183   0.782 -0.0798  0.9536 -1.6634
 2840TIP3    H2 8527   0.640   0.234   0.762  0.3042  0.0763 -1.2424
 2841TIP3   OH2 8528   4.002   3.568   2.921 -0.6311  0.3425  0.2566
 2841TIP3    H1 8529   3.908   3.563   2.905 -0.6243 -1.3418  0.6312
 2841TIP3    H2 8530   4.042   3.560   2.834 -0.7807 -2.5092  0.3510
 2842TIP3   OH2 8531   1.029   5.273   2.997  0.0837  0.2094 -0.3389
 2842TIP3    H1 8532   0.933   5.276   3.006 -0.2043  0.9113 -3.0047
 2842TIP3    H2 8533   1.061   5.333   3.064 -1.1656 -1.3655  1.8142
 2843TIP3   OH2 8534   3.308   0.025   1.613  0.3199 -0.2209  0.3666
 2843TIP3    H1 8535   3.321   0.068   1.697  0.3609 -0.4153  0.4598
 2843TIP3    H2 8536   3.379  -0.039   1.607  0.5379  0.0503  0.0160
 2844TIP3   OH2 8537   3.096   5.948   0.407 -0.5184 -0.1105  0.8720
 2844TIP3    H1 8538   3.100   5.998   0.489  0.6336 -0.0164  0.7783
 2844TIP3    H2 8539   3.173   5.978   0.357 -2.7771  2.1044 -1.5806
 2845TIP3   OH2 8540   0.709   0.079   1.284 -0.5496  0.2313  0.6652
 2845TIP3    H1 8541   0.779   0.121   1.235 -0.8070 -1.1868 -1.0277
 2845TIP3    H2 8542   0.737   0.082   1.375  1.6969 -0.2811  0.0305
 2846TIP3   OH2 8543   1.731   1.382   0.124  0.1979  0.5495  0.4547
 2846TIP3    H1 8544   1.799   1.345   0.069 -0.6070 -0.3252  0.0127
 2846TIP3    H2 8545   1.758   1.473   0.139 -0.5892  1.5271 -3.1773
 2847TIP3   OH2 8546   2.323   4.941   1.473 -0.1232 -0.0590  0.0641
 2847TIP3    H1 8547   2.247   4.999   1.472 -0.0325  0.0628 -1.3768
 2847TIP3    H2 8548   2.311   4.888   1.552  0.3675  2.6073  2.0629
 2848TIP3   OH2 8549   5.702   3.413   3.830  0.8124 -0.0573 -0.2401
 2848TIP3    H1 8550   5.753   3.461   3.895  0.2678  0.4680 -0.1957
 2848TIP3    H2 8551   5.758   3.413   3.752  1.3618 -0.4837  0.1457
 2849TIP3   OH2 8552   4.011   5.300   1.280 -0.2839 -0.2758  0.1740
 2849TIP3    H1 8553   3.969   5.368   1.333  0.5461 -0.0657  0.5907
 2849TIP3    H2 8554   3.978   5.313   1.192  0.0711  0.8519  0.1937
 2850TIP3   OH2 8555   4.362   3.744   0.433  0.3387 -0.1166 -0.0809
 2850TIP3    H1 8556   4.430   3.810   0.419  0.5335 -0.4042 -0.5369
 2850TIP3    H2 8557   4.329   3.761   0.521 -0.1254  1.0355 -0.4666
 2851TIP3   OH2 8558   6.255   4.941   1.537 -0.2309  0.6504 -0.1276
 2851TIP3    H1 8559   6.224   4.879   1.471  0.4389 -1.3103  1.2891
 2851TIP3    H2 8560   6.346   4.914   1.554 -0.0662  1.7601  0.8579
 2852TIP3   OH2 8561   2.375   5.695   4.588  0.1093 -0.0207  0.3500
 2852TIP3    H1 8562   2.428   5.651   4.521 -1.0953 -0.1156 -0.5644
 2852TIP3    H2 8563   2.299   5.728   4.541 -0.7583 -0.0629  1.6773
 2853TIP3   OH2 8564   6.038   5.911   0.095 -0.0813  0.4343 -0.0544
 2853TIP3    H1 8565   6.013   5.907   0.002 -1.4088  1.1500  0.2433
 2853TIP3    H2 8566   6.006   5.829   0.131  0.5573  0.0950 -0.2519
 2854TIP3   OH2 8567   3.920   1.083   3.682  0.0858  0.6642  0.5312
 2854TIP3    H1 8568   3.896   0.994   3.708  0.2207  1.0407  2.0227
 2854TIP3    H2 8569   3.844   1.115   3.633  0.0451 -0.2636 -0.0354
 2855TIP3   OH2 8570   1.662   2.807   1.763 -0.0929  0.3165 -0.1714
 2855TIP3    H1 8571   1.726   2.878   1.766  0.4875 -0.1963 -0.3886
 2855TIP3    H2 8572   1.693   2.750   1.693 -0.5075 -0.2064  0.0698
 2856TIP3   OH2 8573   1.795   0.930   4.892 -0.2597 -0.2465  0.0100
 2856TIP3    H1 8574   1.801   0.950   4.986  0.8762  0.0728 -0.1166
 2856TIP3    H2 8575   1.701   0.923   4.875 -0.4549 -1.8401  1.4878
 2857TIP3   OH2 8576   2.371   2.749   0.307 -0.0263  0.4845 -0.0835
 2857TIP3    H1 8577   2.298   2.687   0.309  0.4979 -0.2179 -1.4841
 2857TIP3    H2 8578   2.408   2.745   0.395 -0.3008 -0.8506 -0.0024
 2858TIP3   OH2 8579   2.605   5.501   3.903 -0.2696 -0.3048  0.2533
 2858TIP3    H1 8580   2.647   5.575   3.947  1.2702 -0.9935 -0.0111
 2858TIP3    H2 8581   2.563   5.539   3.826  1.6424  0.1410 -0.6152
 2859TIP3   OH2 8582   2.341   2.204   4.970 -0.5732  0.0035 -0.1083
 2859TIP3    H1 8583   2.410   2.166   4.916 -1.3491 -0.1328 -1.0386
 2859TIP3    H2 8584   2.380   2.283   5.007 -0.2483  0.5431 -1.5264
 2860TIP3   OH2 8585   2.362   2.918   3.363  0.4874  0.2298  0.2791
 2860TIP3    H1 8586   2.320   2.882   3.285 -1.3600  0.9346  0.9009
 2860TIP3    H2 8587   2.352   3.012   3.355 -0.9043  0.2734  1.9605
 2861TIP3   OH2 8588   0.972   2.137   0.996  0.4152  0.5889 -0.5911
 2861TIP3    H1 8589   0.972   2.041   0.997  1.3112  0.5579 -1.7615
 2861TIP3    H2 8590   0.881   2.160   0.978 -0.1389  0.0189  1.2225
 2862TIP3   OH2 8591   5.911   1.554   1.003 -0.6491  0.9642 -0.5552
 2862TIP3    H1 8592   5.984   1.498   1.030 -1.5687  0.6989  1.5378
 2862TIP3    H2 8593   5.942   1.643   1.019 -0.9123  0.8374  0.7331
 2863TIP3   OH2 8594   1.686   5.366   3.325  0.3041  0.8143  0.4736
 2863TIP3    H1 8595   1.592   5.348   3.315  0.7321 -0.9144 -1.1937
 2863TIP3    H2 8596   1.711   5.407   3.242  1.4912 -1.3785 -0.3615
 2864TIP3   OH2 8597   4.133   3.646   3.287  0.2778 -0.1346 -0.0910
 2864TIP3    H1 8598   4.092   3.730   3.266 -0.2010 -0.7913 -1.9849
 2864TIP3    H2 8599   4.069   3.600   3.340 -0.1791  0.0396 -0.4830
 2865TIP3   OH2 8600   4.904   3.118   1.646  0.0606  0.3199  0.1817
 2865TIP3    H1 8601   4.949   3.039   1.673 -0.7534 -0.3579 -0.4031
 2865TIP3    H2 8602   4.905   3.174   1.723 -0.6587 -0.8526  1.0661
 2866TIP3   OH2 8603   1.653   4.966   4.213  0.0089  0.3161 -0.1784
 2866TIP3    H1 8604   1.566   4.937   4.185 -0.6874  2.4575 -0.3873
 2866TIP3    H2 8605   1.706   4.963   4.133 -0.4119  0.9007 -0.4823
 2867TIP3   OH2 8606   1.399   4.701   2.343  0.2134 -0.1845  0.1090
 2867TIP3    H1 8607   1.427   4.785   2.305  0.0299 -0.0705  0.2206
 2867TIP3    H2 8608   1.440   4.700   2.430 -2.0572  1.1114  1.2832
 2868TIP3   OH2 8609   2.453   0.728   0.783 -0.1531 -0.2016  0.1853
 2868TIP3    H1 8610   2.527   0.686   0.826 -0.6361 -1.7275 -0.4063
 2868TIP3    H2 8611   2.465   0.709   0.690 -0.0795  1.5102 -0.1944
 2869TIP3   OH2 8612   1.811   4.698   0.987  0.1541 -0.3420  0.4906
 2869TIP3    H1 8613   1.821   4.793   0.974  1.1242 -0.5519 -0.4980
 2869TIP3    H2 8614   1.721   4.688   1.018 -0.7546  0.7302 -1.5318
 2870TIP3   OH2 8615   2.299   4.083   1.507 -0.2438 -0.4903 -0.3521
 2870TIP3    H1 8616   2.244   4.027   1.452 -0.5659 -0.7645  0.2360
 2870TIP3    H2 8617   2.342   4.022   1.567 -0.6553 -0.1064  0.3455
 2871TIP3   OH2 8618   4.777   4.211   0.879  0.0884  0.0517 -0.0468
 2871TIP3    H1 8619   4.771   4.148   0.951 -3.2918  1.0760  0.7415
 2871TIP3    H2 8620   4.698   4.195   0.827 -1.1826  3.7764  0.4241
 2872TIP3   OH2 8621   5.706   0.617   1.490  0.6927 -0.3946 -0.1064
 2872TIP3    H1 8622   5.778   0.676   1.508 -0.3921  0.6460  1.0140
 2872TIP3    H2 8623   5.747   0.534   1.467  2.2341  0.5007 -0.6904
 2873TIP3   OH2 8624   4.311   3.887   4.957  0.0251 -0.2384 -1.0073
 2873TIP3    H1 8625   4.393   3.873   5.003  0.1998  0.1649 -1.1922
 2873TIP3    H2 8626   4.260   3.807   4.973 -0.2129  0.1747  0.4819
 2874TIP3   OH2 8627   0.173   5.755   4.665 -0.0306 -0.2676 -0.0969
 2874TIP3    H1 8628   0.249   5.706   4.633  1.8869  1.5726  1.3492
 2874TIP3    H2 8629   0.165   5.829   4.606 -0.6583 -0.4061 -0.1894
 2875TIP3   OH2 8630   2.101   0.343   3.393  0.0988  0.6219 -0.2524
 2875TIP3    H1 8631   2.130   0.251   3.392 -1.4094  0.0822 -2.8228
 2875TIP3    H2 8632   2.130   0.379   3.310  0.1764  2.3638  0.4822
 2876TIP3   OH2 8633   5.469   2.078   3.402 -0.3715  0.2258  0.2202
 2876TIP3    H1 8634   5.507   1.994   3.428  1.0316  1.0003  0.8260
 2876TIP3    H2 8635   5.395   2.055   3.347 -1.1033 -1.4395  1.7856
 2877TIP3   OH2 8636   2.949   0.850   0.798  0.9487 -0.4080  0.0908
 2877TIP3    H1 8637   2.971   0.846   0.704 -0.1928  1.6228 -0.3062
 2877TIP3    H2 8638   3.031   0.827   0.842  2.2606  1.1099 -1.4040
 2878TIP3   OH2 8639   5.180   0.666   3.817  0.5180 -0.3262  0.1057
 2878TIP3    H1 8640   5.148   0.716   3.892 -2.1913  0.9258 -1.7281
 2878TIP3    H2 8641   5.220   0.731   3.759  3.4464 -1.4026  0.7484
 2879TIP3   OH2 8642   5.795   5.583   3.071  0.3463  0.1287 -0.1363
 2879TIP3    H1 8643   5.755   5.628   2.997  0.4782  0.1195 -0.2125
 2879TIP3    H2 8644   5.753   5.496   3.072  1.0460 -0.2267 -0.7928
 2880TIP3   OH2 8645   4.265   0.700   1.887 -0.4525  0.2364  0.4590
 2880TIP3    H1 8646   4.233   0.667   1.971 -0.2142 -2.3651 -0.3933
 2880TIP3    H2 8647   4.186   0.716   1.836 -0.5779 -1.1215  0.1786
 2881TIP3   OH2 8648   3.465   2.756   2.374 -0.0835 -0.2913 -0.1882
 2881TIP3    H1 8649   3.447   2.714   2.458 -0.0902 -0.8425 -0.4622
 2881TIP3    H2 8650   3.560   2.752   2.364 -0.0333  0.2669  0.0451
 2882TIP3   OH2 8651   1.361   2.332   3.589  0.7811  0.1122 -0.0403
 2882TIP3    H1 8652   1.451   2.300   3.586  0.9564  0.6799 -1.2601
 2882TIP3    H2 8653   1.326   2.314   3.502 -0.2616  0.0031  0.3828
 2883TIP3   OH2 8654   1.673   0.588   0.779  0.3992 -0.0574  0.0599
 2883TIP3    H1 8655   1.710   0.608   0.865 -0.4248 -0.7330  0.5882
 2883TIP3    H2 8656   1.720   0.509   0.750  0.3732 -0.0846  0.0916
 2884TIP3   OH2 8657   1.913   1.040   2.848  0.0627  0.2928  0.1875
 2884TIP3    H1 8658   1.873   1.101   2.911 -0.0738  0.0872  0.3024
 2884TIP3    H2 8659   1.916   0.957   2.895  0.8229  0.3503  0.2586
 2885TIP3   OH2 8660   6.240   3.536   1.387  0.1808 -0.0309  0.1156
 2885TIP3    H1 8661   6.248   3.461   1.446  1.8120  0.7222  0.9138
 2885TIP3    H2 8662   6.225   3.611   1.444 -0.0193  0.4625 -0.5673
 2886TIP3   OH2 8663   0.780   4.236   0.383  0.4442  0.0067  0.2993
 2886TIP3    H1 8664   0.788   4.189   0.300 -2.1403  1.3733 -0.8557
 2886TIP3    H2 8665   0.860   4.288   0.390  1.5174 -1.4861 -0.3872
 2887TIP3   OH2 8666   4.462   5.079   2.074 -0.1452 -0.5899  0.2150
 2887TIP3    H1 8667   4.460   5.165   2.117 -0.9166  0.2336 -1.4035
 2887TIP3    H2 8668   4.549   5.074   2.034  0.5011 -1.2762  1.6333
 2888TIP3   OH2 8669   0.352   4.725   3.355  0.5344  0.6589  0.4466
 2888TIP3    H1 8670   0.369   4.695   3.445 -0.2062 -1.0356  0.0647
 2888TIP3    H2 8671   0.366   4.819   3.358 -1.3194  0.9347  2.8049
 2889TIP3   OH2 8672   5.649   4.980   0.269 -0.2299  0.0446  0.1552
 2889TIP3    H1 8673   5.629   4.953   0.359 -1.6582 -1.5900 -0.6056
 2889TIP3    H2 8674   5.694   4.905   0.231 -2.8672 -0.7975 -1.5425
 2890TIP3   OH2 8675   0.909   0.669   3.564  0.1140 -0.2731  0.2405
 2890TIP3    H1 8676   0.826   0.651   3.521  0.5285 -1.0346 -0.2505
 2890TIP3    H2 8677   0.895   0.753   3.609 -0.8576 -0.3138  0.0293
 2891TIP3   OH2 8678   1.314   4.986   4.670  0.1831 -0.2297 -0.3028
 2891TIP3    H1 8679   1.286   5.077   4.661  1.1188  0.0197 -0.8570
 2891TIP3    H2 8680   1.292   4.962   4.760 -1.0403  0.2026 -0.4789
 2892TIP3   OH2 8681   5.561   2.476   4.380  0.0870  0.0547  0.1049
 2892TIP3    H1 8682   5.537   2.390   4.414 -0.9960 -0.0370 -0.8227
 2892TIP3    H2 8683   5.617   2.458   4.304 -1.5535  0.0700 -1.1652
 2893TIP3   OH2 8684   3.065   1.830   3.703 -0.0899  0.5851  0.1312
 2893TIP3    H1 8685   3.107   1.827   3.789  1.2804  0.9919 -0.4917
 2893TIP3    H2 8686   3.033   1.920   3.696  0.1215  0.6565  0.0731
 2894TIP3   OH2 8687   2.000   4.492   0.994  0.1856 -0.3831  0.0660
 2894TIP3    H1 8688   1.926   4.552   0.988  0.7803  0.3595  0.0436
 2894TIP3    H2 8689   2.035   4.506   1.082 -0.9174 -2.2112  0.8598
 2895TIP3   OH2 8690   4.281   3.929   2.633 -0.4937  0.0195  0.1584
 2895TIP3    H1 8691   4.187   3.938   2.613 -0.2668  3.0626  0.0070
 2895TIP3    H2 8692   4.325   3.953   2.552  0.4253 -0.4962  0.4983
 2896TIP3   OH2 8693   3.014   4.721   1.737 -0.0750  0.3173 -0.3986
 2896TIP3    H1 8694   2.948   4.667   1.781  0.1075 -0.9038 -1.5627
 2896TIP3    H2 8695   2.964   4.794   1.699 -0.4113  0.6674  0.6792
 2897TIP3   OH2 8696   5.412   1.647   4.108 -0.3935 -0.3791 -0.0722
 2897TIP3    H1 8697   5.475   1.606   4.049 -0.2636  0.8494 -0.8272
 2897TIP3    H2 8698   5.445   1.736   4.121 -2.1337  0.4188 -0.7823
 2898TIP3   OH2 8699   5.377   1.556   4.717  0.1782 -0.4091  0.0086
 2898TIP3    H1 8700   5.290   1.517   4.720  1.6494 -3.9466  0.6688
 2898TIP3    H2 8701   5.403   1.564   4.808  1.1209 -0.8488 -0.2109
 2899TIP3   OH2 8702   2.929   1.127   3.920 -0.2916 -0.0758 -0.5390
 2899TIP3    H1 8703   3.008   1.075   3.904 -0.4918 -0.2108 -1.1076
 2899TIP3    H2 8704   2.962   1.210   3.954  0.0055 -0.7704  0.9711
 2900TIP3   OH2 8705   3.638   4.325   1.836  0.6740 -0.1231  0.4977
 2900TIP3    H1 8706   3.682   4.247   1.870  0.6323  0.4076  1.7985
 2900TIP3    H2 8707   3.563   4.291   1.787  2.0985 -1.0149 -1.1762
 2901TIP3   OH2 8708   2.083   1.873   1.472  0.0534 -0.0015 -0.4112
 2901TIP3    H1 8709   2.099   1.904   1.383 -0.1305 -1.1653 -0.8739
 2901TIP3    H2 8710   2.121   1.785   1.474  2.5212  0.9778  1.4871
 2902TIP3   OH2 8711   5.666   3.512   3.521  0.0521 -0.1911  0.1097
 2902TIP3    H1 8712   5.625   3.575   3.580 -0.0451  0.5551 -0.7225
 2902TIP3    H2 8713   5.742   3.480   3.569  0.2957  0.8255  0.4308
 2903TIP3   OH2 8714   2.758   3.110   1.091 -0.1107  0.2647 -0.2580
 2903TIP3    H1 8715   2.716   3.025   1.103 -0.3437  0.2835 -0.9478
 2903TIP3    H2 8716   2.838   3.104   1.144 -1.4599  0.6050  1.9696
 2904TIP3   OH2 8717   6.297   4.785   2.287 -0.1113 -0.5210 -0.1464
 2904TIP3    H1 8718   6.388   4.756   2.290  0.0007 -0.2863 -0.9590
 2904TIP3    H2 8719   6.246   4.706   2.268  0.1249 -0.3383 -1.6579
 2905TIP3   OH2 8720   4.413   2.483   3.543  0.8135  0.1710 -0.0438
 2905TIP3    H1 8721   4.465   2.491   3.624  2.2312 -1.6743 -0.6919
 2905TIP3    H2 8722   4.373   2.569   3.532  2.4965  1.2185  1.3487
 2906TIP3   OH2 8723   1.340   0.698   1.661 -0.0957 -0.2999 -0.1065
 2906TIP3    H1 8724   1.360   0.771   1.720  0.9945 -0.4200 -0.3172
 2906TIP3    H2 8725   1.401   0.629   1.686  0.3993 -0.3468 -1.3868
 2907TIP3   OH2 8726   2.712   0.115   3.212  0.4540  0.2332  0.4145
 2907TIP3    H1 8727   2.655   0.152   3.280 -0.3279  0.1048 -0.1501
 2907TIP3    H2 8728   2.684   0.024   3.203  0.3533  0.3186 -0.2596
 2908TIP3   OH2 8729   5.979   4.883   2.105 -0.1110 -0.4741 -0.5742
 2908TIP3    H1 8730   5.989   4.827   2.181  0.2043 -1.0456 -1.0249
 2908TIP3    H2 8731   6.017   4.832   2.033  0.3922  0.4080 -0.9504
 2909TIP3   OH2 8732   0.082   1.132   2.011  0.0163 -0.3137 -0.0550
 2909TIP3    H1 8733   0.075   1.194   2.084  0.5937 -0.6106  0.2697
 2909TIP3    H2 8734   0.039   1.053   2.043 -1.4076  0.1493 -0.7607
 2910TIP3   OH2 8735   5.519   4.068   4.387 -0.4815 -0.3190  0.1230
 2910TIP3    H1 8736   5.430   4.103   4.390 -0.3574  0.2679 -1.7607
 2910TIP3    H2 8737   5.575   4.145   4.383  0.0184 -0.6959 -0.2830
 2911TIP3   OH2 8738   3.594   2.721   3.766 -0.2818 -0.2285  0.6623
 2911TIP3    H1 8739   3.683   2.713   3.799  0.2732  1.2735 -0.3951
 2911TIP3    H2 8740   3.568   2.811   3.786 -0.7837 -0.0092 -0.8773
 2912TIP3   OH2 8741   4.437   3.117   4.549 -0.5124 -0.0712 -0.0415
 2912TIP3    H1 8742   4.438   3.210   4.572  1.6530  0.1503 -0.8492
 2912TIP3    H2 8743   4.381   3.077   4.616 -2.3806  1.9304 -0.3022
 2913TIP3   OH2 8744   6.211   1.741   2.889  0.0480  0.6480  0.0693
 2913TIP3    H1 8745   6.133   1.796   2.893  0.8046  1.8189 -0.4595
 2913TIP3    H2 8746   6.284   1.804   2.890  0.9373 -0.3304 -0.9768
 2914TIP3   OH2 8747   4.052   3.389   3.648  0.3595 -0.7213 -0.1076
 2914TIP3    H1 8748   4.114   3.451   3.686  0.3570 -0.3036 -0.7586
 2914TIP3    H2 8749   3.980   3.386   3.710  0.5052 -0.3130  0.0895
 2915TIP3   OH2 8750   6.159   1.319   0.432  0.5416  0.2617 -0.4048
 2915TIP3    H1 8751   6.134   1.311   0.524 -1.5151 -3.2016 -1.0923
 2915TIP3    H2 8752   6.245   1.276   0.427  0.0572 -0.7672 -0.2507
 2916TIP3   OH2 8753   4.310   3.290   0.228 -0.1720  0.0975 -0.2383
 2916TIP3    H1 8754   4.316   3.329   0.141 -2.3585  1.7677  0.2989
 2916TIP3    H2 8755   4.268   3.205   0.213 -1.8068  0.9578 -0.7076
 2917TIP3   OH2 8756   1.583   2.650   5.083  0.2079 -0.4340 -0.4119
 2917TIP3    H1 8757   1.574   2.599   5.164 -1.9965 -1.0446 -0.9645
 2917TIP3    H2 8758   1.631   2.728   5.110  1.1461 -1.4649  1.0802
 2918TIP3   OH2 8759   1.567   4.404   0.084  0.6983  0.3315  0.4981
 2918TIP3    H1 8760   1.483   4.436   0.117  0.9359  0.1601  1.2907
 2918TIP3    H2 8761   1.554   4.311   0.067  0.4764  0.4934 -0.2358
 2919TIP3   OH2 8762   3.067   1.659   1.843  0.3868  0.3855 -0.8489
 2919TIP3    H1 8763   3.137   1.682   1.782  1.6702 -1.3643 -0.1315
 2919TIP3    H2 8764   3.033   1.575   1.810 -0.8526  0.8219 -0.7319
 2920TIP3   OH2 8765   1.161   3.302   3.033 -0.5157 -0.2871 -0.3649
 2920TIP3    H1 8766   1.142   3.289   3.126 -0.1052  1.5537  0.0052
 2920TIP3    H2 8767   1.079   3.333   2.995  0.0777  1.9869  0.0590
 2921TIP3   OH2 8768   0.317   5.001   3.389 -0.2169  0.8629  0.2022
 2921TIP3    H1 8769   0.374   5.065   3.431 -0.6275  0.6817  1.0803
 2921TIP3    H2 8770   0.230   5.021   3.424 -0.9860  2.0564 -2.1831
 2922TIP3   OH2 8771   0.621   0.135   5.177 -0.3733 -0.0405  0.2216
 2922TIP3    H1 8772   0.704   0.123   5.130 -0.4433  0.8923 -0.1734
 2922TIP3    H2 8773   0.566   0.062   5.148 -0.2656  0.2811 -0.8345
 2923TIP3   OH2 8774   2.207   2.352   4.140 -0.4670 -0.2482  0.0995
 2923TIP3    H1 8775   2.182   2.434   4.182 -1.6249 -0.2242 -0.5867
 2923TIP3    H2 8776   2.209   2.372   4.047  0.3253 -0.7427 -0.0050
 2924TIP3   OH2 8777   5.855   5.945   4.584 -0.8719 -0.1044 -0.2391
 2924TIP3    H1 8778   5.899   5.920   4.666  0.3053  0.9209 -0.5134
 2924TIP3    H2 8779   5.766   5.911   4.593 -1.0440  0.7241  1.8508
 2925TIP3   OH2 8780   5.346   5.796   2.277 -0.3862  0.2398 -0.0377
 2925TIP3    H1 8781   5.385   5.712   2.301 -0.1672  0.0418 -1.0401
 2925TIP3    H2 8782   5.314   5.782   2.188 -0.1067  1.3121 -0.3084
 2926TIP3   OH2 8783   6.047   5.574   1.290 -0.4875 -1.1211  0.1728
 2926TIP3    H1 8784   6.093   5.618   1.218 -0.4608 -1.8135 -0.2499
 2926TIP3    H2 8785   6.117   5.537   1.344 -0.4686  0.4023  1.2323
 2927TIP3   OH2 8786   2.157   4.133   0.452  0.5302 -0.0227  0.0216
 2927TIP3    H1 8787   2.237   4.186   0.459  0.0651  0.4656  3.0311
 2927TIP3    H2 8788   2.175   4.055   0.503 -0.8506  0.0137  0.6035
 2928TIP3   OH2 8789   1.797   4.184   3.716  0.0745 -0.1824 -0.5515
 2928TIP3    H1 8790   1.798   4.120   3.645 -2.3067 -0.5605 -0.3400
 2928TIP3    H2 8791   1.808   4.269   3.673 -1.3275 -0.4023 -1.4262
 2929TIP3   OH2 8792   0.009   1.719   1.905  0.1376  0.3081 -0.1182
 2929TIP3    H1 8793   0.097   1.748   1.881 -0.5939  2.6904 -0.2376
 2929TIP3    H2 8794  -0.047   1.752   1.834 -1.0724  0.6328  0.9395
 2930TIP3   OH2 8795   0.737   1.553   4.168  0.0054  1.1812 -0.1746
 2930TIP3    H1 8796   0.796   1.586   4.101 -0.0966  1.2423 -0.2347
 2930TIP3    H2 8797   0.790   1.492   4.219 -0.6796 -1.1832 -2.1356
 2931TIP3   OH2 8798   3.227   0.963   1.190 -0.0897  1.0043  0.1684
 2931TIP3    H1 8799   3.169   1.032   1.223 -0.9299 -0.3135  1.6149
 2931TIP3    H2 8800   3.211   0.888   1.248  1.9027  0.0635 -0.3857
 2932TIP3   OH2 8801   5.521   4.792   4.347 -0.1608 -0.5726 -0.0304
 2932TIP3    H1 8802   5.431   4.801   4.379  0.0828  0.2171  0.4819
 2932TIP3    H2 8803   5.512   4.782   4.252 -0.8129 -1.0915  0.0819
 2933TIP3   OH2 8804   1.414   1.227   3.828 -0.2580 -0.3352  0.2563
 2933TIP3    H1 8805   1.384   1.221   3.919  0.5705 -0.7930  0.5156
 2933TIP3    H2 8806   1.337   1.209   3.776 -0.9959  0.9810  0.8420
 2934TIP3   OH2 8807   5.092   5.011   4.310 -0.0503 -0.8005  0.4885
 2934TIP3    H1 8808   5.020   5.075   4.310  0.4876 -0.0898 -1.7652
 2934TIP3    H2 8809   5.074   4.956   4.234  1.5675 -0.8596  0.1222
 2935TIP3   OH2 8810   1.460   0.710   3.241  0.0812  0.5384  0.4507
 2935TIP3    H1 8811   1.537   0.653   3.241  0.8554  1.5590  0.1589
 2935TIP3    H2 8812   1.418   0.693   3.157  1.1891  1.5186 -0.3449
 2936TIP3   OH2 8813   4.922   0.796   4.530 -0.4111  0.3537  0.0717
 2936TIP3    H1 8814   4.883   0.713   4.558 -0.6330 -0.2237 -1.8308
 2936TIP3    H2 8815   5.000   0.806   4.585 -1.2072 -0.3259  1.3675
 2937TIP3   OH2 8816   5.472   3.891   0.087  0.0953 -0.0208  0.2880
 2937TIP3    H1 8817   5.396   3.919   0.036  0.1048 -0.4136  0.0593
 2937TIP3    H2 8818   5.530   3.850   0.023  1.7171  2.5875 -0.0751
 2938TIP3   OH2 8819   0.831   1.752   5.197 -0.3723  0.0209  0.6358
 2938TIP3    H1 8820   0.792   1.755   5.110  0.6907  1.3908  0.1782
 2938TIP3    H2 8821   0.884   1.672   5.196 -1.4365 -0.7110  0.5394
 2939TIP3   OH2 8822   3.690   1.562   0.664  0.0814 -0.1666  0.0067
 2939TIP3    H1 8823   3.666   1.649   0.696 -0.8534 -0.1293 -0.7423
 2939TIP3    H2 8824   3.707   1.574   0.571 -0.5170 -0.8559 -0.2050
 2940TIP3   OH2 8825   3.242   2.492   4.812  0.2465  0.5231 -0.6249
 2940TIP3    H1 8826   3.241   2.570   4.867 -2.3824 -0.4706  0.9136
 2940TIP3    H2 8827   3.295   2.429   4.861  0.8509  0.7416 -0.9858
 2941TIP3   OH2 8828   2.118   1.415   2.706  0.2495  0.1773 -0.0758
 2941TIP3    H1 8829   2.129   1.330   2.748 -0.2104  0.2063  0.1079
 2941TIP3    H2 8830   2.086   1.395   2.618 -0.8398  0.1967  0.3114
 2942TIP3   OH2 8831   0.220   0.385   1.643 -0.0155  0.2187  0.5397
 2942TIP3    H1 8832   0.224   0.317   1.576  0.4432 -0.1655  0.9556
 2942TIP3    H2 8833   0.246   0.465   1.597 -2.1422  0.4538 -0.3716
 2943TIP3   OH2 8834   2.142   1.778   3.503  0.7836  0.5124 -0.3333
 2943TIP3    H1 8835   2.086   1.776   3.425 -0.2048  3.0715  0.2271
 2943TIP3    H2 8836   2.229   1.801   3.469  0.7071  0.1517 -0.8031
 2944TIP3   OH2 8837   2.893   1.770   3.972  0.2712 -0.3513  0.0658
 2944TIP3    H1 8838   2.940   1.687   3.973 -0.7576 -0.9339  0.7447
 2944TIP3    H2 8839   2.825   1.761   4.038  0.2964  1.1252  0.3401
 2945TIP3   OH2 8840   1.177   5.907   5.199  0.0213 -0.5160 -0.4459
 2945TIP3    H1 8841   1.109   5.908   5.133  0.5918  0.4257 -1.0477
 2945TIP3    H2 8842   1.229   5.985   5.181  0.3250 -0.3634  0.9764
 2946TIP3   OH2 8843   2.131   0.918   1.577 -0.0032  0.8444 -0.2268
 2946TIP3    H1 8844   2.219   0.950   1.556  0.6816 -0.6439  0.2059
 2946TIP3    H2 8845   2.141   0.822   1.577 -1.1292  0.6934  1.8697
 2947TIP3   OH2 8846   5.254   3.064   0.787 -0.9100 -0.6249 -0.0417
 2947TIP3    H1 8847   5.297   3.057   0.872 -3.1550 -0.9192  1.1526
 2947TIP3    H2 8848   5.264   3.156   0.762  2.0517 -1.0547 -0.8325
 2948TIP3   OH2 8849   1.807   1.265   0.979  0.2807  0.2908 -0.0768
 2948TIP3    H1 8850   1.756   1.206   1.034  2.3224 -0.4775  1.0944
 2948TIP3    H2 8851   1.761   1.264   0.895 -1.3890 -0.6361  0.7833
 2949TIP3   OH2 8852   4.192   4.741   1.016  0.6498 -0.0137  0.3585
 2949TIP3    H1 8853   4.285   4.719   1.013  0.6962  0.2094  0.0999
 2949TIP3    H2 8854   4.189   4.824   1.065  0.3100 -1.4422  2.9374
 2950TIP3   OH2 8855   4.527   0.442   2.202 -0.1151  0.0450  0.2753
 2950TIP3    H1 8856   4.588   0.472   2.269  0.4197 -1.6416  0.5853
 2950TIP3    H2 8857   4.562   0.357   2.173 -1.4732 -0.2393 -0.6438
 2951TIP3   OH2 8858   5.053   3.729   3.876  0.0702 -0.0346 -0.1986
 2951TIP3    H1 8859   5.118   3.665   3.905 -0.3201 -0.4476 -0.2209
 2951TIP3    H2 8860   5.098   3.813   3.881 -0.3905  0.1351  2.9957
 2952TIP3   OH2 8861   0.372   3.943   3.309 -0.0722  0.1972 -0.4905
 2952TIP3    H1 8862   0.463   3.915   3.295  0.1068  0.3224  0.3491
 2952TIP3    H2 8863   0.337   3.956   3.221  0.8172  0.4410 -0.8221
 2953TIP3   OH2 8864   0.326   5.047   4.128  0.4761  0.1692 -0.2762
 2953TIP3    H1 8865   0.365   5.130   4.100  0.2832  0.0835 -0.8180
 2953TIP3    H2 8866   0.279   5.016   4.051  0.9981 -0.7101 -0.2547
 2954TIP3   OH2 8867   0.466   3.879   2.816 -0.4470 -0.0820 -0.0400
 2954TIP3    H1 8868   0.544   3.829   2.790 -2.0685 -2.0160 -1.5291
 2954TIP3    H2 8869   0.395   3.842   2.763 -2.5794  0.9553  1.8964
 2955TIP3   OH2 8870   5.203   4.116   3.423 -0.6692  0.0300  0.5633
 2955TIP3    H1 8871   5.150   4.181   3.377 -0.2685 -1.3509 -2.0137
 2955TIP3    H2 8872   5.140   4.051   3.453 -0.8278  0.4584  1.1870
 2956TIP3   OH2 8873   4.846   5.450   0.751 -0.0445 -0.0039 -0.2807
 2956TIP3    H1 8874   4.792   5.459   0.829 -1.6775  2.0773 -1.5541
 2956TIP3    H2 8875   4.833   5.532   0.703  4.2327  0.6622 -0.7356
 2957TIP3   OH2 8876   3.466   4.476   0.339  0.2336  0.0953 -0.4762
 2957TIP3    H1 8877   3.458   4.413   0.268  0.1419 -0.4048 -0.0336
 2957TIP3    H2 8878   3.560   4.476   0.361  0.0793 -0.7492  0.2709
 2958TIP3   OH2 8879   5.744   1.684   5.009 -0.0597  0.0181 -0.5564
 2958TIP3    H1 8880   5.777   1.644   5.090 -0.4420  2.8049  1.1198
 2958TIP3    H2 8881   5.818   1.735   4.976 -0.5843  0.7758 -0.6006
 2959TIP3   OH2 8882   6.046   0.069   0.403 -0.0896  0.2907  0.2199
 2959TIP3    H1 8883   6.035   0.164   0.398 -0.2960  0.1941 -2.2565
 2959TIP3    H2 8884   6.124   0.050   0.351 -1.5133 -1.0897 -1.5443
 2960TIP3   OH2 8885   1.686   3.497   2.947  0.3057  0.3853  0.0480
 2960TIP3    H1 8886   1.697   3.563   3.014  1.4001  1.7553 -1.3949
 2960TIP3    H2 8887   1.592   3.482   2.942  0.2325 -0.0586  2.1126
 2961TIP3   OH2 8888   5.974   3.540   0.152 -0.3742  0.1543 -0.0592
 2961TIP3    H1 8889   6.011   3.457   0.183 -1.1240 -1.5278 -3.2780
 2961TIP3    H2 8890   6.046   3.602   0.159  0.4878 -0.9442  1.5910
 2962TIP3   OH2 8891   5.207   3.485   4.261 -0.4352  0.4608  0.5676
 2962TIP3    H1 8892   5.291   3.445   4.282  0.9094  1.2448 -2.6571
 2962TIP3    H2 8893   5.221   3.579   4.272 -0.4824  0.6829 -0.9832
 2963TIP3   OH2 8894   2.922   1.529   0.593 -0.1673 -0.1351 -0.3481
 2963TIP3    H1 8895   2.997   1.500   0.644 -0.0514 -1.8323 -1.3936
 2963TIP3    H2 8896   2.860   1.456   0.599 -1.2217  0.7197 -0.5298
 2964TIP3   OH2 8897   0.719   3.921   4.907 -0.2028 -0.3505 -0.0372
 2964TIP3    H1 8898   0.754   3.885   4.988 -0.3873 -1.5003 -0.4463
 2964TIP3    H2 8899   0.678   4.003   4.933  3.0245  1.2586  0.4233
 2965TIP3   OH2 8900   5.829   1.850   2.225  0.3672  0.0475  0.6017
 2965TIP3    H1 8901   5.813   1.809   2.310  2.0841  0.7843  1.3370
 2965TIP3    H2 8902   5.924   1.844   2.213  0.5123  2.4000  0.0368
 2966TIP3   OH2 8903   1.568   5.009   3.142 -0.5206 -0.0882 -0.7276
 2966TIP3    H1 8904   1.545   5.080   3.082 -2.9762  0.0252  0.2390
 2966TIP3    H2 8905   1.518   4.934   3.111  2.1845 -1.5594 -1.8468
 2967TIP3   OH2 8906   3.433   2.855   4.311  0.1423 -0.2965 -0.1464
 2967TIP3    H1 8907   3.515   2.884   4.351  0.2341  0.8399 -1.0909
 2967TIP3    H2 8908   3.425   2.763   4.336  1.6540 -0.4021  0.0487
 2968TIP3   OH2 8909   4.004   5.150   1.508  0.1277  0.4026 -0.2290
 2968TIP3    H1 8910   3.984   5.186   1.421 -1.8969 -0.9479 -0.3906
 2968TIP3    H2 8911   3.951   5.202   1.568 -0.4763 -0.3360 -0.1158
 2969TIP3   OH2 8912   0.409   1.992   0.773 -0.4133  0.3424  0.7624
 2969TIP3    H1 8913   0.415   2.085   0.749  1.1603 -0.5226 -2.9290
 2969TIP3    H2 8914   0.325   1.964   0.737 -0.1299 -0.0198  0.3858
 2970TIP3   OH2 8915   3.065   2.513   1.578  0.0722 -0.0735 -0.1303
 2970TIP3    H1 8916   3.089   2.557   1.659 -1.1346  1.2634 -0.4721
 2970TIP3    H2 8917   2.971   2.526   1.571 -0.6938 -3.9502  0.4790
 2971TIP3   OH2 8918   3.033   0.608   0.216 -0.7593  0.4453  0.4272
 2971TIP3    H1 8919   3.110   0.661   0.195 -2.2487  1.8601 -1.9282
 2971TIP3    H2 8920   2.974   0.668   0.260 -0.7306 -0.5316  1.8769
 2972TIP3   OH2 8921   4.564   5.896   0.570  0.0437 -0.0126  0.0532
 2972TIP3    H1 8922   4.636   5.924   0.513 -2.3825  1.5281 -2.4637
 2972TIP3    H2 8923   4.536   5.976   0.614 -1.9078  0.0563 -1.2000
 2973TIP3   OH2 8924   2.925   1.582   0.326 -0.0599 -0.0055  0.5144
 2973TIP3    H1 8925   2.936   1.677   0.329  2.0347 -0.1714 -0.2119
 2973TIP3    H2 8926   2.933   1.555   0.417 -1.2539  0.5501  0.7992
 2974TIP3   OH2 8927   4.811   2.716   5.034  0.2480 -0.7168 -0.0033
 2974TIP3    H1 8928   4.731   2.710   5.086 -0.1235  1.7274 -0.1973
 2974TIP3    H2 8929   4.881   2.721   5.098 -0.0415  0.3174  0.2436
 2975TIP3   OH2 8930   3.494   0.914   1.159 -0.2125  0.1223 -0.4019
 2975TIP3    H1 8931   3.402   0.938   1.171 -0.3902 -0.7847  0.1882
 2975TIP3    H2 8932   3.531   0.915   1.247  0.5487  1.2268 -0.7269
 2976TIP3   OH2 8933   0.027   1.172   3.873  0.1855  0.0526  0.0408
 2976TIP3    H1 8934   0.081   1.198   3.947  0.3555  1.0057 -0.4130
 2976TIP3    H2 8935  -0.063   1.178   3.906  0.3153 -1.8977  0.9118
 2977TIP3   OH2 8936   4.098   1.230   2.133  0.2651  0.4375 -0.3914
 2977TIP3    H1 8937   4.003   1.241   2.144  0.5235  1.1695  1.6693
 2977TIP3    H2 8938   4.114   1.139   2.156 -0.0389 -0.0092 -1.8534
 2978TIP3   OH2 8939   2.346   5.559   1.006  0.5604  0.7902  0.1424
 2978TIP3    H1 8940   2.434   5.590   0.985  0.3132  0.8919 -0.7611
 2978TIP3    H2 8941   2.288   5.630   0.978  0.2503  1.2402  1.8180
 2979TIP3   OH2 8942   0.802   5.607   4.472  0.8087 -0.0143 -0.1248
 2979TIP3    H1 8943   0.772   5.673   4.409  0.4318 -0.0561  0.0089
 2979TIP3    H2 8944   0.889   5.582   4.440  0.8954  0.4437 -0.2560
 2980TIP3   OH2 8945   2.857   1.998   1.632  0.8159 -0.8548  0.0381
 2980TIP3    H1 8946   2.806   1.917   1.623  0.9280 -1.2141  2.0846
 2980TIP3    H2 8947   2.903   2.007   1.549 -0.0186 -2.3275 -0.6182
 2981TIP3   OH2 8948   0.461   1.624   2.175 -0.0479 -0.1373  0.4540
 2981TIP3    H1 8949   0.495   1.605   2.262  0.0029  0.4628  0.5742
 2981TIP3    H2 8950   0.413   1.706   2.186 -0.2752 -0.2048 -0.0249
 2982TIP3   OH2 8951   3.611   5.056   1.141 -0.2127  0.0336  0.3025
 2982TIP3    H1 8952   3.600   5.005   1.061  0.6164  0.0477  0.1687
 2982TIP3    H2 8953   3.624   5.145   1.111 -1.8495  0.3865  0.5435
 2983TIP3   OH2 8954   3.995   3.066   3.782 -0.1105 -0.2295  0.3086
 2983TIP3    H1 8955   4.006   3.039   3.874 -0.4514  1.5848  0.9155
 2983TIP3    H2 8956   4.051   3.143   3.773  0.3663 -0.7214 -1.1943
 2984TIP3   OH2 8957   3.818   4.165   2.607 -0.2222 -0.0439 -0.2625
 2984TIP3    H1 8958   3.737   4.184   2.655 -0.9242 -0.9523 -1.0368
 2984TIP3    H2 8959   3.879   4.234   2.633 -1.2619  0.6780  0.3081
 2985TIP3   OH2 8960   5.075   3.848   0.088 -0.3205  0.5561 -0.0668
 2985TIP3    H1 8961   5.032   3.832   0.004  0.4765  0.2726 -0.4272
 2985TIP3    H2 8962   5.150   3.903   0.067  0.2190  0.0018  0.3774
 2986TIP3   OH2 8963   1.335   2.614   2.944  0.5003 -0.2997 -0.1896
 2986TIP3    H1 8964   1.427   2.628   2.921  0.3777 -0.1290 -0.5922
 2986TIP3    H2 8965   1.292   2.696   2.918  0.5563  0.4288  1.8049
 2987TIP3   OH2 8966   0.161   3.497   3.988 -0.2396  0.2380  0.3494
 2987TIP3    H1 8967   0.073   3.521   3.958  0.8095  2.9478 -0.8473
 2987TIP3    H2 8968   0.173   3.547   4.069  0.4992  0.5812  0.0374
 2988TIP3   OH2 8969   0.093   1.255   0.375 -0.4695 -0.4477 -0.0715
 2988TIP3    H1 8970   0.136   1.184   0.423 -0.1933 -0.8013 -0.8281
 2988TIP3    H2 8971   0.161   1.288   0.317 -0.2667  1.1660  1.0329
 2989TIP3   OH2 8972   1.499   1.131   4.092 -1.0460  0.0276  0.0913
 2989TIP3    H1 8973   1.431   1.134   4.159 -1.6861  0.1191 -0.5434
 2989TIP3    H2 8974   1.539   1.044   4.101 -1.4327 -0.1307  0.2849
 2990TIP3   OH2 8975   4.246   4.230   4.237  0.1591  0.5501 -0.2269
 2990TIP3    H1 8976   4.305   4.249   4.310 -0.6786  2.0885  0.0801
 2990TIP3    H2 8977   4.197   4.153   4.266  0.9085  0.2170  0.1806
 2991TIP3   OH2 8978   1.979   1.645   2.400  0.3284  0.4080 -0.5042
 2991TIP3    H1 8979   1.974   1.572   2.461  0.4811  0.5426 -0.3315
 2991TIP3    H2 8980   1.953   1.607   2.315  0.7797  0.0680 -0.4943
 2992TIP3   OH2 8981   0.742   3.645   3.516  0.0695  0.6099  0.0873
 2992TIP3    H1 8982   0.745   3.711   3.586  0.4507 -0.5457  1.1863
 2992TIP3    H2 8983   0.708   3.566   3.558 -0.8959  0.2240 -1.3369
 2993TIP3   OH2 8984   5.785   3.538   1.163  0.0337  0.3944 -0.0075
 2993TIP3    H1 8985   5.733   3.484   1.223 -0.2372  0.6721  0.0069
 2993TIP3    H2 8986   5.848   3.582   1.220  0.5604 -0.2569 -0.0745
 2994TIP3   OH2 8987   4.660   5.612   0.026 -0.2292 -0.0599 -0.0271
 2994TIP3    H1 8988   4.592   5.670   0.061 -2.2932 -2.0567 -0.5228
 2994TIP3    H2 8989   4.731   5.618   0.090 -1.8375  0.2703  1.8277
 2995TIP3   OH2 8990   1.411   2.866   3.652 -0.2119 -0.4067  0.2162
 2995TIP3    H1 8991   1.326   2.893   3.686 -0.2013  0.1960 -0.2188
 2995TIP3    H2 8992   1.459   2.948   3.641 -0.2517 -0.5736 -1.3393
 2996TIP3   OH2 8993   4.793   3.549   0.831  0.2047  0.2839  0.0861
 2996TIP3    H1 8994   4.781   3.592   0.746  0.1228 -0.9770 -0.5611
 2996TIP3    H2 8995   4.835   3.616   0.886  1.2836  0.7792 -1.2697
 2997TIP3   OH2 8996   0.686   2.829   0.554 -0.0005 -0.1542 -0.6069
 2997TIP3    H1 8997   0.615   2.835   0.618  0.1108  0.4623 -0.5385
 2997TIP3    H2 8998   0.747   2.898   0.578  0.7557 -0.8283 -0.5201
 2998TIP3   OH2 8999  -0.012   5.088   0.649 -0.2774  0.5252 -0.6133
 2998TIP3    H1 9000  -0.016   5.176   0.687 -1.6304  0.9290 -1.5813
 2998TIP3    H2 9001   0.077   5.058   0.667 -0.4404  1.2023  1.6560
 2999TIP3   OH2 9002   1.518   4.716   2.593 -0.3477  0.1540 -0.5145
 2999TIP3    H1 9003   1.549   4.628   2.612 -1.8302 -0.5241 -1.0680
 2999TIP3    H2 9004   1.592   4.773   2.615 -0.0660 -1.0197  1.8741
 3000TIP3   OH2 9005   2.993   3.755   3.900  0.2988 -0.4027  0.6468
 3000TIP3    H1 9006   2.974   3.848   3.914  0.3268 -0.5556  1.7720
 3000TIP3    H2 9007   3.037   3.753   3.815 -1.2250  0.3984 -0.2107
 3001TIP3   OH2 9008   2.975   0.803   4.493  0.0266 -0.5167  0.3005
 3001TIP3    H1 9009   2.947   0.792   4.402  0.7258 -1.0634  0.1431
 3001TIP3    H2 9010   2.965   0.896   4.511 -2.6470 -0.7623  0.5097
 3002TIP3   OH2 9011   5.832   3.648   2.621 -0.6531 -0.1599  0.4571
 3002TIP3    H1 9012   5.801   3.628   2.710 -0.2553 -1.7293  0.2720
 3002TIP3    H2 9013   5.925   3.666   2.633 -0.9600  1.5166  0.5881
 3003TIP3   OH2 9014   2.610   5.963   3.825  0.2224  0.7803 -0.1690
 3003TIP3    H1 9015   2.644   5.921   3.903 -1.0729 -0.2491 -0.1212
 3003TIP3    H2 9016   2.515   5.967   3.839  0.0269  1.1072 -1.4306
 3004TIP3   OH2 9017   5.362   1.000   1.485 -0.2003  0.2430 -0.2414
 3004TIP3    H1 9018   5.385   0.910   1.464 -0.2329  0.2387 -0.2592
 3004TIP3    H2 9019   5.319   0.995   1.570  2.1380  0.5585  1.0356
 3005TIP3   OH2 9020   4.844   1.309   4.074 -0.6188  0.4380 -0.1817
 3005TIP3    H1 9021   4.917   1.313   4.013 -1.1720  1.2116 -0.8168
 3005TIP3    H2 9022   4.769   1.284   4.020 -1.0740  0.9124  0.2158
 3006TIP3   OH2 9023   1.205   0.446   0.615  0.0901 -0.3671 -0.7208
 3006TIP3    H1 9024   1.127   0.396   0.593 -0.8730  1.2125 -1.0919
 3006TIP3    H2 9025   1.216   0.435   0.709 -1.2603  0.3015 -0.4697
 3007TIP3   OH2 9026   1.723   1.763   1.459  0.4457 -0.7052 -0.2651
 3007TIP3    H1 9027   1.627   1.768   1.460  0.4428 -0.6680  1.2735
 3007TIP3    H2 9028   1.750   1.847   1.421 -0.1175  0.1006  1.0405
 3008TIP3   OH2 9029   1.311   2.173   1.409  0.0153  0.3925  0.6369
 3008TIP3    H1 9030   1.321   2.084   1.375  1.6930  0.3460  1.1637
 3008TIP3    H2 9031   1.235   2.208   1.362  0.6506 -0.5706 -1.2015
 3009TIP3   OH2 9032   2.132   3.887   1.399 -0.6818 -0.1131 -0.6803
 3009TIP3    H1 9033   2.178   3.803   1.395 -2.8357 -1.3751 -0.4149
 3009TIP3    H2 9034   2.090   3.896   1.313  0.6579  1.4522 -1.2417
 3010TIP3   OH2 9035   4.277   2.779   0.330  0.3996  0.4098  0.2134
 3010TIP3    H1 9036   4.313   2.808   0.413  1.4925  0.4037 -0.2422
 3010TIP3    H2 9037   4.247   2.689   0.347 -0.3210  0.7561  0.8511
 3011TIP3   OH2 9038   4.941   4.474   0.850 -0.0772 -0.0531  0.2156
 3011TIP3    H1 9039   4.942   4.523   0.932  1.2596 -0.6256  0.5683
 3011TIP3    H2 9040   4.889   4.396   0.870  1.1427 -0.7205  0.8636
 3012TIP3   OH2 9041   2.439   2.968   1.854  0.0415  0.1941 -0.5134
 3012TIP3    H1 9042   2.405   2.946   1.768  1.1019 -0.1231 -0.8650
 3012TIP3    H2 9043   2.521   3.015   1.837  2.1952 -2.9553  0.2647
 3013TIP3   OH2 9044   5.445   0.437   0.568 -0.3212  0.7533 -0.1684
 3013TIP3    H1 9045   5.407   0.521   0.539  0.1261  0.9421 -0.2119
 3013TIP3    H2 9046   5.373   0.393   0.614 -1.1818  0.2937 -1.8588
 3014TIP3   OH2 9047   3.728   5.755   2.772 -0.2590 -0.2885 -0.4616
 3014TIP3    H1 9048   3.689   5.826   2.721  0.6289 -0.0970 -0.8892
 3014TIP3    H2 9049   3.766   5.799   2.848 -0.4735 -0.4191 -0.2773
 3015TIP3   OH2 9050   1.360   2.500   2.121  0.0593 -0.2048  0.6858
 3015TIP3    H1 9051   1.405   2.536   2.045  0.0709 -3.0263 -0.7872
 3015TIP3    H2 9052   1.419   2.432   2.155 -2.0190 -2.5297 -0.0204
 3016TIP3   OH2 9053   2.781   2.275   3.055 -0.2197 -0.1584  0.2558
 3016TIP3    H1 9054   2.765   2.184   3.030 -1.2479 -1.1423  3.8696
 3016TIP3    H2 9055   2.711   2.324   3.011 -0.3162 -1.2566 -0.8825
 3017TIP3   OH2 9056   1.607   1.064   3.006  0.3163  0.2368 -0.0355
 3017TIP3    H1 9057   1.659   0.985   2.989 -0.7039 -0.3863 -0.3771
 3017TIP3    H2 9058   1.569   1.050   3.092  0.0756  0.3227 -0.1269
 3018TIP3   OH2 9059   5.041   2.324   2.791 -0.3890 -0.5337  0.1962
 3018TIP3    H1 9060   5.089   2.271   2.855 -1.7702 -1.7986  0.2146
 3018TIP3    H2 9061   5.105   2.341   2.722  0.9679  0.3847  1.6048
 3019TIP3   OH2 9062   2.864   3.755   0.894  0.0139 -0.2949  0.2982
 3019TIP3    H1 9063   2.880   3.665   0.924  1.4315 -0.3017 -0.4196
 3019TIP3    H2 9064   2.920   3.809   0.950  0.8310 -0.0805 -0.7094
 3020TIP3   OH2 9065   3.817   4.505   2.082  0.1650  0.4280  0.0233
 3020TIP3    H1 9066   3.807   4.479   1.991  0.1956  0.0329  0.1321
 3020TIP3    H2 9067   3.766   4.585   2.090 -1.7438 -0.7483  0.2074
 3021TIP3   OH2 9068   1.699   0.904   2.659 -0.5707 -0.4964 -0.5048
 3021TIP3    H1 9069   1.776   0.862   2.697  0.0615 -0.5094 -1.7529
 3021TIP3    H2 9070   1.677   0.973   2.721 -0.6054 -1.5678  0.7251
 3022TIP3   OH2 9071   3.835   2.645   4.306  0.2110 -0.0590 -0.2947
 3022TIP3    H1 9072   3.849   2.694   4.388 -0.0409  1.2104 -0.9777
 3022TIP3    H2 9073   3.923   2.632   4.271  0.3893 -1.3454  0.5650
 3023TIP3   OH2 9074   4.445   5.002   3.714 -0.4732 -0.8006  0.3414
 3023TIP3    H1 9075   4.476   5.016   3.624 -2.0250 -1.9814 -0.4425
 3023TIP3    H2 9076   4.444   4.906   3.724 -0.1594 -0.6816  1.6883
 3024TIP3   OH2 9077   5.773   2.059   0.152  0.7980  0.1731 -0.0142
 3024TIP3    H1 9078   5.857   2.099   0.132  1.2632 -0.5058  0.5520
 3024TIP3    H2 9079   5.790   2.005   0.229 -0.2012  0.1839  0.2249
 3025TIP3   OH2 9080   4.864   0.827   0.655  0.0388  0.1055  0.3371
 3025TIP3    H1 9081   4.919   0.904   0.670  0.4411 -0.2442  0.6887
 3025TIP3    H2 9082   4.923   0.752   0.669 -0.4449 -0.2673  0.4022
 3026TIP3   OH2 9083   3.022   5.950   3.195  0.2176 -0.3029 -0.4395
 3026TIP3    H1 9084   3.046   5.862   3.223  0.7094 -0.1022 -0.2096
 3026TIP3    H2 9085   2.982   5.990   3.272  3.2347  0.8809  0.6797
 3027TIP3   OH2 9086   3.723   4.818   2.093 -0.4246  0.3833  0.3963
 3027TIP3    H1 9087   3.666   4.804   2.169  2.1341 -0.5893  2.2850
 3027TIP3    H2 9088   3.803   4.854   2.131  1.6870 -1.9398 -1.5395
 3028TIP3   OH2 9089   1.897   0.139   2.335 -0.0117 -0.1271 -0.4984
 3028TIP3    H1 9090   1.851   0.060   2.306 -0.0723 -0.6038  0.8336
 3028TIP3    H2 9091   1.880   0.144   2.429 -1.0322  2.1612 -0.7211
 3029TIP3   OH2 9092   4.977   0.661   0.173 -0.0142  0.2376  0.3086
 3029TIP3    H1 9093   4.957   0.707   0.091  0.9223  1.4482  0.7287
 3029TIP3    H2 9094   5.070   0.638   0.165  0.0540  0.2710  0.9850
 3030TIP3   OH2 9095   2.598   1.785   0.322  0.0209 -0.1138  0.3498
 3030TIP3    H1 9096   2.658   1.840   0.373  0.2715 -0.0647  0.0037
 3030TIP3    H2 9097   2.592   1.704   0.373 -0.2655  0.1902  0.8069
 3031TIP3   OH2 9098   4.035   4.989   1.132 -0.1647  0.5146  0.2883
 3031TIP3    H1 9099   4.022   5.065   1.075 -0.5699 -1.3311 -2.2632
 3031TIP3    H2 9100   4.129   4.986   1.147  0.0977  0.4767 -1.2230
 3032TIP3   OH2 9101   3.956   5.829   2.669  0.6740 -0.0698  0.2179
 3032TIP3    H1 9102   3.862   5.822   2.687  0.3257  1.3951 -0.9070
 3032TIP3    H2 9103   3.989   5.889   2.736  0.2782  1.5402 -0.9811
 3033TIP3   OH2 9104   4.641   0.536   4.996 -0.2370  0.5911 -0.0129
 3033TIP3    H1 9105   4.561   0.486   4.978  0.9632 -0.8732 -1.5420
 3033TIP3    H2 9106   4.692   0.480   5.054  1.5279 -0.5263 -2.4652
 3034TIP3   OH2 9107   4.019   2.310   0.992  0.4788  0.2904  0.0968
 3034TIP3    H1 9108   4.048   2.238   1.048  2.2929  1.2742  0.4976
 3034TIP3    H2 9109   3.937   2.340   1.031 -0.5051 -1.7223 -0.2722
 3035TIP3   OH2 9110   6.215   0.719   5.095  0.3753  0.3337  0.1828
 3035TIP3    H1 9111   6.285   0.782   5.112  0.8454 -0.3904  1.0489
 3035TIP3    H2 9112   6.170   0.709   5.179  0.5514 -0.7458  0.1689
 3036TIP3   OH2 9113   4.842   2.153   2.799  0.2760  0.1562  0.1487
 3036TIP3    H1 9114   4.767   2.188   2.846  0.2273  0.3090 -0.0434
 3036TIP3    H2 9115   4.899   2.228   2.784  0.2018  0.1457 -0.2030
 3037TIP3   OH2 9116   6.149   0.112   1.075  0.7450 -0.0141 -0.1843
 3037TIP3    H1 9117   6.160   0.157   1.158  0.8483  1.7483 -1.1066
 3037TIP3    H2 9118   6.229   0.061   1.063  0.9691  0.1767  0.5151
 3038TIP3   OH2 9119   3.560   5.137   3.387  0.4032  0.2046  0.2157
 3038TIP3    H1 9120   3.491   5.093   3.337 -0.3156  0.1804  1.2011
 3038TIP3    H2 9121   3.598   5.068   3.441  0.9835  0.2885 -0.0768
 3039TIP3   OH2 9122   6.147   4.479   0.175  0.1242  0.1408 -0.4064
 3039TIP3    H1 9123   6.176   4.568   0.151  0.3244  0.1056 -0.2958
 3039TIP3    H2 9124   6.123   4.486   0.267  0.5284 -0.0146 -0.2871
 3040TIP3   OH2 9125   0.369   5.778   1.682 -0.3012  0.3251 -0.0843
 3040TIP3    H1 9126   0.291   5.828   1.658  0.8958  1.5140 -1.6268
 3040TIP3    H2 9127   0.409   5.828   1.753  0.1123  0.8005 -0.6439
 3041TIP3   OH2 9128   2.366   5.432   4.338  0.2413  0.2743 -0.3002
 3041TIP3    H1 9129   2.444   5.381   4.358 -1.5341 -2.3987  0.2977
 3041TIP3    H2 9130   2.300   5.400   4.399 -2.0425  0.6104 -2.4447
 3042TIP3   OH2 9131   4.292   2.444   1.628 -0.1664  0.2855  0.1209
 3042TIP3    H1 9132   4.335   2.395   1.558  0.6982 -0.0561  0.8688
 3042TIP3    H2 9133   4.198   2.435   1.610  0.0365 -0.0717 -0.7962
 3043TIP3   OH2 9134   3.330   4.478   1.599 -0.0681 -0.0237 -0.5754
 3043TIP3    H1 9135   3.311   4.401   1.651 -2.7657  0.8063 -0.1639
 3043TIP3    H2 9136   3.266   4.476   1.528  1.5702  0.4537 -2.1463
 3044TIP3   OH2 9137   6.078   3.724   0.831  0.0821  0.4479 -0.3026
 3044TIP3    H1 9138   6.136   3.659   0.793  0.1029 -2.0867  3.5291
 3044TIP3    H2 9139   5.997   3.676   0.849 -1.1741  2.4305 -0.3712
 3045TIP3   OH2 9140   5.035   3.295   5.218  0.1241  0.5030  0.5345
 3045TIP3    H1 9141   5.082   3.230   5.166 -0.6473 -0.7975  1.4276
 3045TIP3    H2 9142   5.009   3.362   5.154 -0.2709 -0.7517 -0.6667
 3046TIP3   OH2 9143   1.328   4.562   0.053  0.5672 -0.1340  0.0903
 3046TIP3    H1 9144   1.318   4.561  -0.042  2.2276 -0.5402 -0.1120
 3046TIP3    H2 9145   1.247   4.524   0.086 -0.5936  1.2154 -1.0777
 3047TIP3   OH2 9146   2.383   2.138   3.993 -0.4127  0.0544  0.2623
 3047TIP3    H1 9147   2.384   2.132   3.897 -0.8641 -0.1002  0.2670
 3047TIP3    H2 9148   2.356   2.229   4.011 -1.9150 -0.3590  0.2450
 3048TIP3   OH2 9149   0.393   4.739   1.051 -0.3393  0.1612 -0.0465
 3048TIP3    H1 9150   0.343   4.771   0.976  1.6369  0.3158 -1.3757
 3048TIP3    H2 9151   0.413   4.648   1.030  1.5158  0.6339 -0.4772
 3049TIP3   OH2 9152   6.029   2.010   1.048 -0.2557  0.3428 -0.2320
 3049TIP3    H1 9153   5.977   1.953   1.105  0.6024  0.2588  0.4852
 3049TIP3    H2 9154   6.079   1.949   0.993  1.4272  0.3231  1.2168
 3050TIP3   OH2 9155   4.266   4.130   0.898 -0.0393  0.3590 -0.1402
 3050TIP3    H1 9156   4.242   4.172   0.815 -0.3730 -2.3177 -1.5365
 3050TIP3    H2 9157   4.186   4.088   0.928 -0.3274  2.5432  2.4639
 3051TIP3   OH2 9158   3.093   2.448   1.282  0.1962 -0.2384 -0.0049
 3051TIP3    H1 9159   3.063   2.457   1.372  0.4944 -1.6021  0.2509
 3051TIP3    H2 9160   3.016   2.416   1.234  0.1718  0.0271 -0.1486
 3052TIP3   OH2 9161   0.692   1.760   1.107 -0.3271  0.1107 -0.0919
 3052TIP3    H1 9162   0.745   1.806   1.041 -1.5571 -1.0777 -1.9957
 3052TIP3    H2 9163   0.623   1.822   1.129  1.8245  1.7885  2.6232
 3053TIP3   OH2 9164   1.019   5.369   0.605  0.1033  0.2148  0.0791
 3053TIP3    H1 9165   1.010   5.339   0.514 -1.4061  0.1992  0.2006
 3053TIP3    H2 9166   1.094   5.427   0.604 -1.1521  1.9278 -1.6690
 3054TIP3   OH2 9167   5.480   4.083   1.853  0.9099  0.5282 -0.5648
 3054TIP3    H1 9168   5.480   3.992   1.882  0.1508  0.3333 -1.1620
 3054TIP3    H2 9169   5.438   4.081   1.767 -1.5944  1.7831  0.5254
 3055TIP3   OH2 9170   6.228   3.413   2.860  0.0893 -0.3748  0.4481
 3055TIP3    H1 9171   6.186   3.339   2.903  1.8386 -0.6299  1.8507
 3055TIP3    H2 9172   6.259   3.468   2.931  0.8205  0.5260 -0.5315
 3056TIP3   OH2 9173   6.218   5.590   4.241 -0.2732 -0.2401 -0.4121
 3056TIP3    H1 9174   6.164   5.618   4.315 -0.5679  3.4899 -1.8063
 3056TIP3    H2 9175   6.157   5.545   4.183 -0.8610 -0.0932  0.0792
 3057TIP3   OH2 9176   3.721   1.557   1.479  0.4438  0.6149  0.3695
 3057TIP3    H1 9177   3.651   1.597   1.428 -0.2502 -0.6908  0.2638
 3057TIP3    H2 9178   3.768   1.631   1.517 -0.9276  1.5332  0.3520
 3058TIP3   OH2 9179   0.461   3.343   1.126  0.7502 -0.4124  0.4519
 3058TIP3    H1 9180   0.538   3.328   1.181 -0.4121 -1.7927  1.8066
 3058TIP3    H2 9181   0.415   3.259   1.125 -0.6742  0.3248 -0.4236
 3059TIP3   OH2 9182   5.282   0.137   5.006 -0.2073 -0.4024  0.1834
 3059TIP3    H1 9183   5.239   0.061   5.045 -2.0523 -0.0528 -1.0329
 3059TIP3    H2 9184   5.289   0.116   4.913  1.2370  0.0545  0.1658
 3060TIP3   OH2 9185   5.807   1.383   0.813 -0.0573 -0.0347 -0.1086
 3060TIP3    H1 9186   5.891   1.369   0.768  0.0265  0.2294 -0.0380
 3060TIP3    H2 9187   5.828   1.446   0.882 -0.7764  1.7808 -1.4841
 3061TIP3   OH2 9188   0.065   4.748   1.745 -0.1155  0.3034 -0.0371
 3061TIP3    H1 9189   0.027   4.692   1.678  0.8828 -1.9195  1.1441
 3061TIP3    H2 9190   0.159   4.734   1.738  0.0627  0.6684  1.2828
 3062TIP3   OH2 9191   0.038   3.485   1.900 -0.4154  0.4892 -0.2256
 3062TIP3    H1 9192   0.051   3.390   1.903  0.6094  0.5840 -0.9139
 3062TIP3    H2 9193   0.026   3.510   1.991  1.1721 -0.0898  0.1839
 3063TIP3   OH2 9194   4.391   1.573   3.507  0.7275 -0.0142  0.0287
 3063TIP3    H1 9195   4.339   1.495   3.527  1.0370 -0.2277  0.0058
 3063TIP3    H2 9196   4.371   1.593   3.416 -1.9651  1.9277  0.9263
 3064TIP3   OH2 9197   0.046   3.103   5.024  0.1401  0.3392 -0.2796
 3064TIP3    H1 9198   0.037   3.152   4.942  0.9363  0.7170 -0.1515
 3064TIP3    H2 9199   0.008   3.017   5.005  0.6017  0.3199 -1.1441
 3065TIP3   OH2 9200   6.127   1.253   4.023  0.0836 -0.1163  0.1452
 3065TIP3    H1 9201   6.102   1.174   4.071  1.3435  0.2639  1.5036
 3065TIP3    H2 9202   6.044   1.294   4.000 -0.5737 -1.2979  0.3142
 3066TIP3   OH2 9203   3.502   0.626   1.126 -0.0342 -0.4225 -0.5090
 3066TIP3    H1 9204   3.503   0.623   1.221 -1.8667  0.2146 -0.4286
 3066TIP3    H2 9205   3.516   0.719   1.105  1.9099 -0.7789 -0.9397
 3067TIP3   OH2 9206   4.193   3.645   3.721 -0.8591  0.4431 -0.0715
 3067TIP3    H1 9207   4.240   3.675   3.799 -0.8299 -0.3976  0.2387
 3067TIP3    H2 9208   4.259   3.647   3.651 -0.2822 -0.9321  0.4074
 3068TIP3   OH2 9209   3.271   0.721   3.684  0.4088  0.1258 -0.1611
 3068TIP3    H1 9210   3.192   0.699   3.733  0.4094 -2.2212 -1.0495
 3068TIP3    H2 9211   3.332   0.650   3.703  2.5020  2.0338  0.7470
 3069TIP3   OH2 9212   3.111   4.863   0.843 -0.5761 -0.5091  0.3622
 3069TIP3    H1 9213   3.124   4.843   0.935 -2.7200  1.5963  1.2192
 3069TIP3    H2 9214   3.139   4.955   0.834 -0.7104 -0.5746 -1.0148
 3070TIP3   OH2 9215   2.330   4.130   4.816 -0.0583 -0.2824  0.0368
 3070TIP3    H1 9216   2.382   4.098   4.890  1.9606  3.3691  0.4568
 3070TIP3    H2 9217   2.395   4.143   4.746 -1.0176  1.0501 -0.6446
 3071TIP3   OH2 9218   5.270   1.232   4.623  0.1671  0.1600  0.1698
 3071TIP3    H1 9219   5.257   1.251   4.530 -1.3821 -0.5529  0.2126
 3071TIP3    H2 9220   5.248   1.314   4.667  0.4249  0.3550 -0.0590
 3072TIP3   OH2 9221   1.925   5.139   1.134  0.1253  0.0052 -0.1168
 3072TIP3    H1 9222   1.860   5.163   1.068  1.9869  0.6285 -1.8620
 3072TIP3    H2 9223   1.990   5.088   1.085  0.7967 -0.9049  1.6224
 3073TIP3   OH2 9224   5.688   5.925   0.970 -0.7397 -0.2426  0.0771
 3073TIP3    H1 9225   5.756   5.860   0.992  0.4576  0.3523 -1.6286
 3073TIP3    H2 9226   5.629   5.923   1.045  0.6569 -1.4599  1.2370
 3074TIP3   OH2 9227   3.228   1.392   2.190 -0.1462  0.2994 -0.2345
 3074TIP3    H1 9228   3.153   1.353   2.146  0.4572 -1.7148  0.4056
 3074TIP3    H2 9229   3.284   1.318   2.213  1.3268  1.6050  0.6306
 3075TIP3   OH2 9230   4.372   3.352   3.350 -0.4103  0.1377 -0.2371
 3075TIP3    H1 9231   4.403   3.439   3.325  0.2486 -0.4158 -1.4503
 3075TIP3    H2 9232   4.313   3.326   3.279  0.0169 -0.7208 -0.2966
 3076TIP3   OH2 9233   5.877   4.232   0.398  0.1420 -0.6226  0.6448
 3076TIP3    H1 9234   5.858   4.188   0.481  1.2161 -2.4079  0.0210
 3076TIP3    H2 9235   5.797   4.222   0.347  0.8699 -3.6175 -0.1442
 3077TIP3   OH2 9236   6.142   3.828   3.137 -0.2757  0.5136 -0.1619
 3077TIP3    H1 9237   6.193   3.896   3.092 -0.7939  1.5467  0.7750
 3077TIP3    H2 9238   6.052   3.860   3.135 -0.5347 -0.1754  0.2615
 3078TIP3   OH2 9239   3.941   5.526   3.371  0.3279 -0.2696 -0.2942
 3078TIP3    H1 9240   3.869   5.464   3.362 -0.3914  0.6065 -0.7482
 3078TIP3    H2 9241   4.010   5.492   3.314 -0.1073 -0.5804 -0.6409
 3079TIP3   OH2 9242   3.062   1.576   4.971 -0.2920  0.2218 -0.0618
 3079TIP3    H1 9243   2.996   1.517   4.934 -1.0509 -0.4138  2.1651
 3079TIP3    H2 9244   3.038   1.584   5.063  2.5854  0.1828  0.7761
 3080TIP3   OH2 9245   5.268   4.297   3.161 -0.0075  0.2459  0.6160
 3080TIP3    H1 9246   5.297   4.347   3.084 -2.8967  2.4914  0.8464
 3080TIP3    H2 9247   5.329   4.323   3.230  0.3807  1.0597 -0.0086
 3081TIP3   OH2 9248   1.172   5.411   1.899  0.0811  0.0961  0.0052
 3081TIP3    H1 9249   1.198   5.329   1.942 -1.2841  0.6033  1.9473
 3081TIP3    H2 9250   1.244   5.430   1.838  1.9087 -0.9816  1.6942
 3082TIP3   OH2 9251   3.355   4.336   1.225 -0.2578 -0.1291  0.0564
 3082TIP3    H1 9252   3.345   4.241   1.239 -0.5542 -0.0393  0.4789
 3082TIP3    H2 9253   3.273   4.373   1.259  0.4976  0.4230  1.3243
 3083TIP3   OH2 9254   3.634   2.222   2.254 -0.1595  0.3313 -0.3813
 3083TIP3    H1 9255   3.589   2.183   2.179  1.5638 -0.5122 -1.0450
 3083TIP3    H2 9256   3.671   2.146   2.301 -0.1105  0.9354  0.5798
 3084TIP3   OH2 9257   4.403   2.055   3.070  0.3180  0.6852 -0.0188
 3084TIP3    H1 9258   4.431   2.036   2.981 -1.6888 -0.6504 -0.4398
 3084TIP3    H2 9259   4.458   1.999   3.125  0.1858 -0.0370 -0.6065
 3085TIP3   OH2 9260   5.974   2.169   2.400 -0.5763  0.3513  0.1282
 3085TIP3    H1 9261   5.984   2.140   2.491 -0.3295 -0.6594 -0.2042
 3085TIP3    H2 9262   5.905   2.113   2.365  0.0289  0.0380 -0.5837
 3086TIP3   OH2 9263   0.293   2.223   2.854  0.1207  0.2377  0.0686
 3086TIP3    H1 9264   0.227   2.269   2.906 -0.9457  0.3271 -1.3234
 3086TIP3    H2 9265   0.251   2.207   2.770  1.7900  0.0323 -0.7655
 3087TIP3   OH2 9266   3.931   3.445   3.156 -0.3671 -0.0847 -0.0913
 3087TIP3    H1 9267   3.955   3.510   3.089 -0.3003  0.9130  0.8754
 3087TIP3    H2 9268   3.935   3.493   3.238  0.2255 -1.4744  0.7195
 3088TIP3   OH2 9269   2.187   2.617   5.146 -0.3411 -0.2510  0.1900
 3088TIP3    H1 9270   2.166   2.703   5.109 -1.9154  0.1181  1.8125
 3088TIP3    H2 9271   2.140   2.555   5.090 -0.4210  0.0535 -0.0854
 3089TIP3   OH2 9272   2.181   3.264   4.514  0.5291  0.1049 -0.1801
 3089TIP3    H1 9273   2.152   3.235   4.601  2.1927 -0.4348  0.2359
 3089TIP3    H2 9274   2.138   3.204   4.453  0.9484 -0.8234  0.4240
 3090TIP3   OH2 9275   4.561   1.845   2.917  0.5555 -0.3228 -0.7751
 3090TIP3    H1 9276   4.601   1.759   2.904  0.4160 -0.4546 -0.3399
 3090TIP3    H2 9277   4.584   1.869   3.007  0.3627 -0.0254 -0.8036
 3091TIP3   OH2 9278   3.033   1.742   2.296  0.0669  0.5257  0.4681
 3091TIP3    H1 9279   3.042   1.804   2.224 -1.9379 -0.8821 -1.0955
 3091TIP3    H2 9280   3.123   1.712   2.313  0.7328  1.8142 -0.5533
 3092TIP3   OH2 9281   6.265   5.430   1.805  0.4158 -0.0057 -0.0772
 3092TIP3    H1 9282   6.320   5.377   1.862 -0.0301  0.0317  0.3987
 3092TIP3    H2 9283   6.232   5.499   1.861 -3.5177 -2.3384  0.8676
 3093TIP3   OH2 9284   3.735   5.955   1.333 -0.4269 -0.1958  0.1312
 3093TIP3    H1 9285   3.786   5.891   1.283  2.1465  1.1593  0.8414
 3093TIP3    H2 9286   3.660   5.906   1.365  0.7503 -2.5178 -0.4170
 3094TIP3   OH2 9287   6.283   2.550   3.263  0.1806  0.4766  0.2627
 3094TIP3    H1 9288   6.300   2.591   3.178 -0.4926 -0.6167 -0.4132
 3094TIP3    H2 9289   6.365   2.562   3.311  1.1085 -0.1847 -1.0739
 3095TIP3   OH2 9290   0.281   2.424   2.523  0.1610 -0.3718  0.2121
 3095TIP3    H1 9291   0.282   2.507   2.571  0.0179 -1.0521  1.4290
 3095TIP3    H2 9292   0.231   2.365   2.579 -0.8823 -0.9290 -1.2687
 3096TIP3   OH2 9293   0.475   2.798   2.787  0.2327 -0.1297 -0.0516
 3096TIP3    H1 9294   0.487   2.808   2.692  0.9766  2.3294  0.2203
 3096TIP3    H2 9295   0.560   2.823   2.824 -0.8628  1.8317  1.3406
 3097TIP3   OH2 9296   0.058   5.555   0.407  0.1280  0.5041 -0.6300
 3097TIP3    H1 9297   0.097   5.469   0.428  0.6018  0.6307 -0.9735
 3097TIP3    H2 9298   0.128   5.602   0.363 -0.0308  1.1874 -0.1671
 3098TIP3   OH2 9299   4.524   4.823   4.774 -0.8355  0.0211  0.6065
 3098TIP3    H1 9300   4.533   4.866   4.689  1.2744 -0.7117  0.3931
 3098TIP3    H2 9301   4.463   4.750   4.758 -1.3847  0.5903  0.0375
 3099TIP3   OH2 9302   2.099   0.831   2.017 -0.3281  0.0892 -0.5704
 3099TIP3    H1 9303   2.116   0.785   2.099 -0.0466  1.0419 -0.0704
 3099TIP3    H2 9304   2.009   0.863   2.027 -1.0158 -1.4519 -1.4792
 3100TIP3   OH2 9305   5.634   3.362   0.759 -0.0744 -0.1821  0.9529
 3100TIP3    H1 9306   5.599   3.289   0.810 -1.0291  0.7746  1.7016
 3100TIP3    H2 9307   5.645   3.433   0.822  1.0079  0.2856  0.2693
 3101TIP3   OH2 9308   5.803   0.205   0.789 -0.2823 -0.1461  0.3043
 3101TIP3    H1 9309   5.897   0.187   0.800 -0.2698 -1.4168 -1.3862
 3101TIP3    H2 9310   5.783   0.269   0.857  1.9228  0.5625  0.3892
 3102TIP3   OH2 9311   2.329   2.114   0.543  0.5659  0.9281 -0.8083
 3102TIP3    H1 9312   2.409   2.079   0.582 -0.3640 -0.0169  0.3251
 3102TIP3    H2 9313   2.342   2.104   0.449  1.0460 -0.9723 -0.5876
 3103TIP3   OH2 9314   0.128   3.316  -0.001 -0.6093  1.0483  0.0262
 3103TIP3    H1 9315   0.102   3.382  -0.066 -0.5001  2.5600  1.4567
 3103TIP3    H2 9316   0.122   3.362   0.083 -0.3940 -0.7470  1.0623
 3104TIP3   OH2 9317   5.663   1.112   0.685 -0.0153  0.4620  0.3655
 3104TIP3    H1 9318   5.630   1.130   0.773 -0.6093 -0.0817  0.2672
 3104TIP3    H2 9319   5.584   1.094   0.634  0.3028  1.1773 -0.3741
 3105TIP3   OH2 9320   0.065   1.203   3.601  0.3674 -0.5877  0.3071
 3105TIP3    H1 9321   0.098   1.115   3.585 -1.1273 -1.1705  0.2511
 3105TIP3    H2 9322   0.041   1.203   3.694 -0.2721 -0.4783  0.1495
 3106TIP3   OH2 9323   4.983   2.926   2.541  0.5592 -0.0790  0.0167
 3106TIP3    H1 9324   5.044   2.864   2.502 -0.9373 -1.2986 -0.4945
 3106TIP3    H2 9325   5.034   2.972   2.608  2.5547  0.4174 -1.7715
 3107TIP3   OH2 9326   2.542   5.914   4.609  0.0529 -0.2810  0.3466
 3107TIP3    H1 9327   2.469   5.853   4.604 -2.6814  2.6497  0.9915
 3107TIP3    H2 9328   2.587   5.891   4.690  0.0302 -2.2715 -0.1520
 3108TIP3   OH2 9329   2.984   3.125   0.879  0.2104  0.3386 -0.4608
 3108TIP3    H1 9330   2.999   3.138   0.973 -0.1138  2.9319 -0.7004
 3108TIP3    H2 9331   2.889   3.111   0.872 -0.1733  2.5876 -0.5436
 3109TIP3   OH2 9332   4.164   5.427   4.020  0.0142 -0.3375  0.2169
 3109TIP3    H1 9333   4.188   5.344   4.061 -1.1034 -0.8012 -0.0351
 3109TIP3    H2 9334   4.208   5.494   4.073  0.6587 -1.0617  0.6188
 3110TIP3   OH2 9335   0.836   5.820   0.081 -0.2982 -0.1615  0.6241
 3110TIP3    H1 9336   0.824   5.831   0.175  1.5288 -3.1919  1.3456
 3110TIP3    H2 9337   0.901   5.751   0.073  0.9622  1.2066 -2.9096
 3111TIP3   OH2 9338   3.630   4.619   2.344  0.1877  0.6146 -0.1120
 3111TIP3    H1 9339   3.606   4.531   2.314 -0.6441  1.3613 -1.7295
 3111TIP3    H2 9340   3.719   4.632   2.312  0.1000  0.5791 -0.3712
 3112TIP3   OH2 9341   3.389   1.269   1.866 -0.3128  0.0992 -0.1639
 3112TIP3    H1 9342   3.461   1.227   1.912  0.6632  0.8488 -0.9423
 3112TIP3    H2 9343   3.409   1.363   1.870 -0.3647  0.2171 -1.7482
 3113TIP3   OH2 9344   2.117   0.159   5.032 -0.0372  0.0447  0.5254
 3113TIP3    H1 9345   2.069   0.077   5.041  0.3329 -0.0255  2.2012
 3113TIP3    H2 9346   2.161   0.152   4.948  0.1743 -1.5965  0.7419
 3114TIP3   OH2 9347   5.890   3.882   5.042 -0.7080 -0.2883 -0.5920
 3114TIP3    H1 9348   5.940   3.846   4.969  1.6934 -0.0110  0.7941
 3114TIP3    H2 9349   5.905   3.977   5.036  0.4136 -0.3443  0.8092
 3115TIP3   OH2 9350   4.999   5.464   4.582  0.0935 -0.2482 -0.1898
 3115TIP3    H1 9351   5.064   5.394   4.583 -0.7756 -1.0738 -0.4248
 3115TIP3    H2 9352   4.928   5.433   4.638 -0.3684  0.3839 -0.4073
 3116TIP3   OH2 9353   5.702   4.943   1.318  0.3515  0.2513 -0.2723
 3116TIP3    H1 9354   5.759   4.982   1.384  0.7278 -1.1461  0.2708
 3116TIP3    H2 9355   5.718   4.849   1.325 -0.1892  0.0135 -1.8274
 3117TIP3   OH2 9356   4.359   4.075   0.039  0.2844  0.7508  0.0178
 3117TIP3    H1 9357   4.411   4.001   0.007  1.0091  0.7682  1.0768
 3117TIP3    H2 9358   4.297   4.094  -0.031  0.0888 -0.8532 -0.2740
 3118TIP3   OH2 9359   5.347   3.261   5.157  0.1507  0.2400 -0.4509
 3118TIP3    H1 9360   5.320   3.335   5.101 -1.8661  0.2179  0.3984
 3118TIP3    H2 9361   5.336   3.294   5.246  0.8302 -0.5683 -0.0655
 3119TIP3   OH2 9362   0.626   0.966   3.441  0.1085  0.0420  0.2790
 3119TIP3    H1 9363   0.651   0.880   3.406  0.9442  0.4649 -0.1921
 3119TIP3    H2 9364   0.624   0.953   3.536 -0.2605 -0.6188  0.1893
 3120TIP3   OH2 9365   0.997   0.092   0.847  0.7033  0.2673  0.3690
 3120TIP3    H1 9366   1.056   0.017   0.852  1.6915  1.1035  1.8173
 3120TIP3    H2 9367   0.953   0.094   0.932 -2.1135 -0.7994 -0.9118
 3121TIP3   OH2 9368   6.163   3.751   2.721 -0.3782  0.3837 -0.3807
 3121TIP3    H1 9369   6.120   3.802   2.653 -1.0074 -0.3234 -0.5268
 3121TIP3    H2 9370   6.161   3.661   2.689 -0.1981  0.1161  0.3308
 3122TIP3   OH2 9371   5.624   0.571   2.753 -0.2940  0.4640  0.0338
 3122TIP3    H1 9372   5.576   0.571   2.670 -0.0090  0.8121 -0.1343
 3122TIP3    H2 9373   5.576   0.510   2.809 -0.4533  0.1771 -0.4094
 3123TIP3   OH2 9374   2.315   0.864   1.045  0.3935 -0.1384  0.0910
 3123TIP3    H1 9375   2.289   0.790   1.101  0.2026 -1.2526 -1.4029
 3123TIP3    H2 9376   2.409   0.855   1.035  0.4213  0.0353  0.1925
 3124TIP3   OH2 9377   1.829   5.709   2.805  0.1162  0.2192  0.3802
 3124TIP3    H1 9378   1.752   5.752   2.842  0.7052  0.4492  1.3849
 3124TIP3    H2 9379   1.855   5.764   2.731 -1.3156 -0.4632 -0.6687
 3125TIP3   OH2 9380   2.252   0.618   3.218 -0.3165 -0.1609 -0.5478
 3125TIP3    H1 9381   2.338   0.581   3.199 -0.5388  0.1571 -2.4266
 3125TIP3    H2 9382   2.191   0.545   3.204 -0.4838  0.0470 -0.9141
 3126TIP3   OH2 9383   2.499   0.827   0.265  0.0465  0.3972  0.5047
 3126TIP3    H1 9384   2.498   0.801   0.173  0.4793 -1.1440  0.9089
 3126TIP3    H2 9385   2.581   0.876   0.275 -0.6168  1.7188 -0.1882
 3127TIP3   OH2 9386   0.327   3.912   3.823 -0.1329  0.5899  0.3438
 3127TIP3    H1 9387   0.312   3.865   3.741 -0.0876  0.1998  0.5584
 3127TIP3    H2 9388   0.382   3.853   3.875  1.8273  1.7769 -0.2433
 3128TIP3   OH2 9389   5.120   1.518   3.592  0.1386 -0.0583 -0.0641
 3128TIP3    H1 9390   5.099   1.434   3.633 -0.9210  1.2280  2.2382
 3128TIP3    H2 9391   5.191   1.554   3.645 -0.6960  1.2942  0.2070
 3129TIP3   OH2 9392   0.921   4.771   4.722  0.6479  0.4217 -0.3301
 3129TIP3    H1 9393   0.836   4.804   4.751  0.8380  1.3531 -0.8164
 3129TIP3    H2 9394   0.974   4.849   4.707  1.5046 -0.1369 -0.3133
 3130TIP3   OH2 9395   2.111   1.115   2.365 -0.0139 -0.3020  0.1273
 3130TIP3    H1 9396   2.125   1.204   2.397  1.5266 -0.1650 -0.7991
 3130TIP3    H2 9397   2.048   1.077   2.425 -0.6667  1.4000  0.5736
 3131TIP3   OH2 9398   3.015   4.781   2.679  0.7189 -0.1235  0.2567
 3131TIP3    H1 9399   3.057   4.698   2.656 -0.6497 -0.7218 -0.1886
 3131TIP3    H2 9400   2.945   4.791   2.614 -0.6605  0.1667  1.7261
 3132TIP3   OH2 9401   4.800   1.766   4.152 -0.2142 -0.7499  0.0354
 3132TIP3    H1 9402   4.877   1.742   4.102  0.0879 -0.1300  0.1974
 3132TIP3    H2 9403   4.732   1.704   4.123  0.2986 -1.2091 -0.2026
 3133TIP3   OH2 9404   3.941   4.731   4.007  0.4597 -0.2718  0.0019
 3133TIP3    H1 9405   3.961   4.638   3.998  0.5401 -0.0574 -3.1238
 3133TIP3    H2 9406   3.847   4.737   3.994  0.5979  0.1514 -0.9067
 3134TIP3   OH2 9407   0.101   3.852   2.340  0.1974 -0.1652 -0.2265
 3134TIP3    H1 9408   0.154   3.782   2.379  1.2689  0.9415  0.3983
 3134TIP3    H2 9409   0.031   3.867   2.404  0.3441 -0.2216 -0.0517
 3135TIP3   OH2 9410   3.288   3.305   2.787 -0.0626 -0.0196 -0.3668
 3135TIP3    H1 9411   3.340   3.384   2.774 -1.7494  1.2344  0.2359
 3135TIP3    H2 9412   3.215   3.332   2.842 -2.0595 -1.4057 -2.1615
 3136TIP3   OH2 9413   4.335   4.584   4.755 -0.5759  0.2367  0.0013
 3136TIP3    H1 9414   4.284   4.589   4.674  1.5315  1.9052 -1.3440
 3136TIP3    H2 9415   4.377   4.497   4.752  0.7898  0.8861 -1.6351
 3137TIP3   OH2 9416   0.790   1.957   3.185 -0.3830 -0.1869  0.0861
 3137TIP3    H1 9417   0.856   1.930   3.121 -0.5388  0.4389 -0.3393
 3137TIP3    H2 9418   0.840   2.003   3.252 -0.0921 -1.6022  0.8948
 3138TIP3   OH2 9419   0.969   5.543   0.054  0.0354  0.0901 -0.2774
 3138TIP3    H1 9420   1.027   5.590  -0.006  1.0421 -0.7252  0.0323
 3138TIP3    H2 9421   0.941   5.466   0.006  0.3396 -0.2405  0.0682
 3139TIP3   OH2 9422   1.973   1.517   4.724  0.3170 -0.5462  0.4820
 3139TIP3    H1 9423   2.019   1.597   4.700 -0.9610  0.4301  1.1991
 3139TIP3    H2 9424   1.996   1.502   4.816 -2.1801  1.0259  1.4666
 3140TIP3   OH2 9425   0.039   0.351   3.906  0.4047  0.3717 -0.3227
 3140TIP3    H1 9426  -0.037   0.408   3.893  1.4602  2.1648  1.0928
 3140TIP3    H2 9427   0.114   0.404   3.881  1.4755 -0.1228  1.6293
 3141TIP3   OH2 9428   0.886   5.103   0.199  0.3367 -0.1167  0.1992
 3141TIP3    H1 9429   0.968   5.153   0.204  1.5116 -1.9004 -0.1927
 3141TIP3    H2 9430   0.860   5.108   0.107  0.2742  0.0323  0.2244
 3142TIP3   OH2 9431   3.332   0.995   3.014  0.0633  0.4674  0.2249
 3142TIP3    H1 9432   3.327   1.090   3.012  0.6869  0.5014  0.1660
 3142TIP3    H2 9433   3.313   0.968   2.924  2.0436  0.6586 -0.2867
 3143TIP3   OH2 9434   6.304   4.263   4.538  0.3407  0.2368 -0.2541
 3143TIP3    H1 9435   6.388   4.288   4.501  0.7901  0.3810  0.8248
 3143TIP3    H2 9436   6.254   4.229   4.464  0.8277  1.4623 -1.1796
 3144TIP3   OH2 9437   1.322   1.863   4.751 -0.2901 -0.0896  0.2024
 3144TIP3    H1 9438   1.362   1.938   4.795 -0.7560 -0.0098  0.4924
 3144TIP3    H2 9439   1.386   1.793   4.760  0.0878  0.2309  0.0550
 3145TIP3   OH2 9440   4.500   0.096   1.567  0.5269  0.1694 -0.3292
 3145TIP3    H1 9441   4.426   0.050   1.526  0.6977 -0.3997 -0.0115
 3145TIP3    H2 9442   4.536   0.150   1.496  0.1748 -0.0034 -0.6465
 3146TIP3   OH2 9443   6.086   0.294   4.956  0.1176 -0.2847 -0.5043
 3146TIP3    H1 9444   6.027   0.241   4.903  1.1051 -2.6112  0.6126
 3146TIP3    H2 9445   6.158   0.317   4.897 -0.6166  0.4075 -1.1613
 3147TIP3   OH2 9446   1.791   5.349   5.086 -0.9193  0.7365  0.0380
 3147TIP3    H1 9447   1.782   5.427   5.141 -0.3217  0.7467  0.1346
 3147TIP3    H2 9448   1.862   5.371   5.025 -0.4390  0.1124  0.3571
 3148TIP3   OH2 9449   4.703   3.121   5.002 -0.1563  0.6943  0.4706
 3148TIP3    H1 9450   4.636   3.167   5.052 -0.0263 -0.5645  1.8858
 3148TIP3    H2 9451   4.759   3.081   5.069  0.3562 -0.5992 -0.6862
 3149TIP3   OH2 9452   0.311   3.140   2.764 -0.2353  0.2398 -0.2137
 3149TIP3    H1 9453   0.385   3.159   2.822  0.2251  0.2560 -0.7988
 3149TIP3    H2 9454   0.237   3.126   2.824  0.5088 -1.0709  0.4499
 3150TIP3   OH2 9455   4.879   2.782   1.981 -0.4096  0.3484  0.1436
 3150TIP3    H1 9456   4.921   2.821   1.904  2.3540 -2.2798  0.0778
 3150TIP3    H2 9457   4.844   2.699   1.949 -0.7081 -0.0231  1.3818
 3151TIP3   OH2 9458   5.668   4.669   1.441 -0.3796  0.2555  0.1664
 3151TIP3    H1 9459   5.680   4.578   1.467 -1.4050  0.4767  1.5451
 3151TIP3    H2 9460   5.636   4.712   1.520 -0.4391  1.6999 -0.6144
 3152TIP3   OH2 9461   5.599   0.531   1.195  0.0291  0.9651 -0.0482
 3152TIP3    H1 9462   5.644   0.557   1.275  1.3110  0.9839 -0.7438
 3152TIP3    H2 9463   5.553   0.450   1.218  0.0265  1.2073  0.8173
 3153TIP3   OH2 9464   3.499   1.784   2.364 -0.5533 -0.2356  0.0780
 3153TIP3    H1 9465   3.555   1.862   2.371  0.3821 -0.9749  1.2088
 3153TIP3    H2 9466   3.538   1.734   2.292 -0.6635 -0.0512 -0.1119
 3154TIP3   OH2 9467   0.460   5.455   3.574 -0.6025  0.0090 -1.0386
 3154TIP3    H1 9468   0.431   5.532   3.623 -1.3527 -1.5204  1.0643
 3154TIP3    H2 9469   0.526   5.414   3.630 -0.3518 -1.0077 -2.0218
 3155TIP3   OH2 9470   5.145   4.028   3.134  0.0167  0.4344  0.6849
 3155TIP3    H1 9471   5.191   4.103   3.171  1.4000 -0.1332  0.1875
 3155TIP3    H2 9472   5.154   4.038   3.040  0.7508 -0.6608  0.6234
 3156TIP3   OH2 9473   0.260   4.282   0.941 -0.0844  0.1836  0.5147
 3156TIP3    H1 9474   0.202   4.222   0.988 -0.7818 -0.9348 -1.6208
 3156TIP3    H2 9475   0.269   4.243   0.854  2.1428  1.4893  0.0868
 3157TIP3   OH2 9476   2.787   5.257   4.173 -0.1010  0.1155  0.3549
 3157TIP3    H1 9477   2.725   5.186   4.156 -0.2048 -0.1660  1.8126
 3157TIP3    H2 9478   2.868   5.228   4.131 -0.4230 -0.3899  0.0647
 3158TIP3   OH2 9479   0.390   4.869   4.418 -0.3310  0.3233  0.4929
 3158TIP3    H1 9480   0.351   4.953   4.442 -0.9291  0.9561 -2.3254
 3158TIP3    H2 9481   0.335   4.837   4.347  1.3042 -1.2992 -0.1201
 3159TIP3   OH2 9482   5.873   1.802   2.560 -0.3816 -0.1690  0.5092
 3159TIP3    H1 9483   5.907   1.729   2.612  0.9218  1.4822  2.1122
 3159TIP3    H2 9484   5.950   1.854   2.538 -1.1965  0.3972 -1.1727
 3160TIP3   OH2 9485   4.470   0.341   3.598 -0.5710  0.2517  0.8206
 3160TIP3    H1 9486   4.553   0.331   3.644  0.2289 -1.1609 -0.8149
 3160TIP3    H2 9487   4.494   0.378   3.513 -1.3654 -1.6859 -0.3116
 3161TIP3   OH2 9488   4.041   0.012   2.947  0.0912  0.6114  0.0440
 3161TIP3    H1 9489   4.093   0.056   3.014  0.1424  0.4783  0.0940
 3161TIP3    H2 9490   4.084   0.034   2.865 -0.3820  1.3435 -0.0090
 3162TIP3   OH2 9491   2.782   3.958   4.302  0.1231  0.1077  0.4055
 3162TIP3    H1 9492   2.771   3.882   4.245  0.5847 -0.4731  1.0904
 3162TIP3    H2 9493   2.731   4.027   4.258 -0.3632 -0.6007 -0.1809
 3163TIP3   OH2 9494   2.420   3.246   2.822 -0.1737 -0.1821  0.3355
 3163TIP3    H1 9495   2.440   3.238   2.729 -3.0840 -0.1145 -0.3782
 3163TIP3    H2 9496   2.415   3.340   2.838  1.0061 -0.1752  0.7647
 3164TIP3   OH2 9497   0.953   1.211   2.637  0.4357  0.0657  0.2151
 3164TIP3    H1 9498   0.945   1.145   2.569  0.4636 -1.1597  1.3487
 3164TIP3    H2 9499   1.040   1.248   2.625  1.2769 -1.5987  0.7959
 3165TIP3   OH2 9500   1.734   4.997   4.746 -0.1803 -0.3917  0.4786
 3165TIP3    H1 9501   1.731   5.059   4.819 -2.4470 -0.6758  0.7255
 3165TIP3    H2 9502   1.685   4.921   4.777 -0.4757 -0.8665 -1.0399
 3166TIP3   OH2 9503   3.242   3.207   3.876  1.1058 -0.1754  0.2150
 3166TIP3    H1 9504   3.295   3.195   3.955  1.3834 -1.4329 -0.1424
 3166TIP3    H2 9505   3.287   3.276   3.827  1.7056 -0.3495  0.5144
 3167TIP3   OH2 9506   6.036   4.924   1.071 -0.1581 -0.2483 -0.2818
 3167TIP3    H1 9507   6.075   4.940   0.985  2.3493  0.1777  0.8394
 3167TIP3    H2 9508   6.059   5.001   1.123 -1.2990 -0.6607  0.8840
 3168TIP3   OH2 9509   0.794   2.030   0.181 -0.2412 -0.0615 -0.0114
 3168TIP3    H1 9510   0.707   2.031   0.143  0.2942 -1.2177 -1.3309
 3168TIP3    H2 9511   0.846   1.975   0.123  1.7578  1.7834 -0.1215
 3169TIP3   OH2 9512   4.631   1.079   2.660 -0.1273 -0.1758 -0.1567
 3169TIP3    H1 9513   4.642   0.998   2.710 -0.0941  0.2742  0.5833
 3169TIP3    H2 9514   4.588   1.139   2.721 -0.7949  0.1432 -0.9266
 3170TIP3   OH2 9515   5.818   0.720   5.005  0.5140 -0.2303 -0.0274
 3170TIP3    H1 9516   5.812   0.645   4.947  1.5768 -0.0340 -0.4211
 3170TIP3    H2 9517   5.743   0.712   5.064  0.9197 -1.9150  0.3139
 3171TIP3   OH2 9518   2.301   2.756   3.137 -0.4109  0.2464  0.7716
 3171TIP3    H1 9519   2.350   2.778   3.058 -1.1536  0.4595  0.3547
 3171TIP3    H2 9520   2.347   2.682   3.175  1.5160  1.7582  1.5805
 3172TIP3   OH2 9521   1.797   2.142   1.908  0.4594 -0.3355 -0.5155
 3172TIP3    H1 9522   1.859   2.200   1.951 -0.1035  0.1695 -0.3785
 3172TIP3    H2 9523   1.844   2.110   1.831  0.0175  2.0952 -1.8993
 3173TIP3   OH2 9524   4.218   5.160   4.428 -0.4682  0.2046 -0.3340
 3173TIP3    H1 9525   4.197   5.080   4.476  1.9166  0.3208  1.0498
 3173TIP3    H2 9526   4.264   5.129   4.350  0.2555  0.1985  0.0889
 3174TIP3   OH2 9527   2.154   0.095   2.208  0.1950 -0.4206  0.4081
 3174TIP3    H1 9528   2.198   0.043   2.276 -0.2785  0.4460  1.4104
 3174TIP3    H2 9529   2.063   0.100   2.239  0.3820  1.6261  0.7424
 3175TIP3   OH2 9530   4.205   4.157   3.495 -0.1227  0.1313 -0.0024
 3175TIP3    H1 9531   4.262   4.094   3.540  1.0076  0.1292 -1.3668
 3175TIP3    H2 9532   4.248   4.242   3.508  0.4016  0.0861 -1.3242
 3176TIP3   OH2 9533   0.358   1.071   0.123  0.2261 -0.4958 -0.7594
 3176TIP3    H1 9534   0.424   1.076   0.054  1.4800  0.2466  0.4506
 3176TIP3    H2 9535   0.292   1.136   0.097  2.5637  2.6206  0.5886
 3177TIP3   OH2 9536   4.624   4.580   2.550  0.0296  0.5884 -0.5004
 3177TIP3    H1 9537   4.615   4.488   2.575 -0.8040 -0.0389 -2.8740
 3177TIP3    H2 9538   4.660   4.622   2.628 -0.6027 -1.5269  1.0265
 3178TIP3   OH2 9539   4.899   4.894   2.452  0.0467 -0.0530  0.6629
 3178TIP3    H1 9540   4.981   4.850   2.430 -1.1397 -2.2378  0.3283
 3178TIP3    H2 9541   4.844   4.825   2.487 -1.2437  1.6130  2.0892
 3179TIP3   OH2 9542   3.487   5.009   3.983  0.0449  0.1644 -0.1380
 3179TIP3    H1 9543   3.523   5.091   4.018  0.3807  0.3988 -1.0038
 3179TIP3    H2 9544   3.430   4.976   4.053 -0.1532  1.1794  0.1982
 3180TIP3   OH2 9545   5.383   5.778   2.606 -0.1244 -0.1914  0.5785
 3180TIP3    H1 9546   5.444   5.821   2.546 -1.2912  0.5136 -0.1178
 3180TIP3    H2 9547   5.436   5.709   2.647  0.8537 -0.3316 -0.8390
 3181TIP3   OH2 9548   4.708   5.914   5.077  0.2541  0.1270 -0.4915
 3181TIP3    H1 9549   4.752   5.834   5.048  0.8450 -0.3516  1.5975
 3181TIP3    H2 9550   4.622   5.910   5.036  0.6934 -0.9774 -1.3560
 3182TIP3   OH2 9551   2.242   3.239   3.008 -0.3612  0.2206 -0.0557
 3182TIP3    H1 9552   2.161   3.220   2.961  0.8187 -0.2725 -2.0062
 3182TIP3    H2 9553   2.311   3.230   2.942  1.2950  0.6387  1.5280
 3183TIP3   OH2 9554   2.170   1.997   3.233 -0.5742  0.4470  0.0149
 3183TIP3    H1 9555   2.104   1.928   3.238  0.4977 -0.5792  0.5607
 3183TIP3    H2 9556   2.243   1.965   3.287  0.5851  1.3027 -0.9706
 3184TIP3   OH2 9557   4.189   0.792   4.474  0.3661 -0.6186 -0.3063
 3184TIP3    H1 9558   4.221   0.802   4.563  0.8227 -1.6026 -0.3409
 3184TIP3    H2 9559   4.094   0.795   4.482  0.4177  0.4342  0.0535
 3185TIP3   OH2 9560   2.359   3.214   0.371 -0.6132  0.1289  0.3457
 3185TIP3    H1 9561   2.370   3.307   0.391  0.9748  0.1828 -0.6595
 3185TIP3    H2 9562   2.274   3.210   0.327  0.1879  1.4610 -1.4678
 3186TIP3   OH2 9563   0.292   5.403   3.152 -0.2636  0.6147 -0.2446
 3186TIP3    H1 9564   0.216   5.461   3.155  0.7412  2.2090 -2.6435
 3186TIP3    H2 9565   0.362   5.452   3.197 -0.0816  0.0780  0.0719
 3187TIP3   OH2 9566   2.738   1.704   0.739  0.2560 -0.0797  0.0216
 3187TIP3    H1 9567   2.750   1.626   0.686  0.0383 -1.5915  2.0424
 3187TIP3    H2 9568   2.804   1.766   0.708  0.3611 -1.0083 -1.7059
 3188TIP3   OH2 9569   5.842   2.749   4.656  0.0697  0.2630  0.2917
 3188TIP3    H1 9570   5.778   2.678   4.657 -0.4800  0.7494 -0.0686
 3188TIP3    H2 9571   5.886   2.743   4.741 -0.7986  0.2371  0.7502
 3189TIP3   OH2 9572   0.048   1.313   2.213 -0.0128  0.0144  0.1949
 3189TIP3    H1 9573   0.094   1.392   2.184 -1.6947 -0.0937 -3.3264
 3189TIP3    H2 9574  -0.035   1.347   2.248 -0.4960 -0.1519 -0.7825
 3190TIP3   OH2 9575   5.456   3.188   1.753  0.0926  0.0354 -0.4945
 3190TIP3    H1 9576   5.458   3.129   1.828 -1.2436  0.0424 -0.4135
 3190TIP3    H2 9577   5.405   3.264   1.783 -1.5528 -0.5007 -1.7194
 3191TIP3   OH2 9578   5.226   1.813   4.850  0.6291 -0.0724 -0.4748
 3191TIP3    H1 9579   5.282   1.860   4.788 -2.7933  2.5453 -1.8701
 3191TIP3    H2 9580   5.150   1.786   4.799 -0.7669 -0.9023  1.9019
 3192TIP3   OH2 9581   2.873   2.328   1.180 -0.2595 -0.9711  0.1956
 3192TIP3    H1 9582   2.812   2.330   1.254 -0.6024  0.9615 -0.1066
 3192TIP3    H2 9583   2.819   2.302   1.105 -0.8607  1.1017 -0.1459
 3193TIP3   OH2 9584   4.451   1.274   2.819  0.0472 -0.1954  0.7328
 3193TIP3    H1 9585   4.440   1.255   2.912 -2.1487 -0.8682  0.3999
 3193TIP3    H2 9586   4.384   1.220   2.776 -0.0124  1.2372 -1.1019
 3194TIP3   OH2 9587   2.914   1.904   4.711 -0.2327  0.2416 -0.8844
 3194TIP3    H1 9588   2.943   1.992   4.687  0.1310  0.0240 -1.2727
 3194TIP3    H2 9589   2.982   1.871   4.769  0.4484 -0.3598 -1.9861
 3195TIP3   OH2 9590   4.376   2.630   4.395  0.1849 -0.3328  0.2625
 3195TIP3    H1 9591   4.441   2.566   4.424  2.1886 -0.6251 -4.1365
 3195TIP3    H2 9592   4.405   2.713   4.433  1.1436 -1.0055  1.0421
 3196TIP3   OH2 9593   1.508   1.725   3.825  0.1169 -0.4524  0.6978
 3196TIP3    H1 9594   1.477   1.670   3.897 -0.6863 -0.0760  0.6527
 3196TIP3    H2 9595   1.430   1.741   3.772  0.2657  0.9624  0.8636
 3197TIP3   OH2 9596   4.938   5.250   4.330 -0.3121 -0.4203  0.3588
 3197TIP3    H1 9597   4.964   5.327   4.279 -0.4150 -1.2463 -0.9687
 3197TIP3    H2 9598   4.985   5.260   4.413 -0.0444  0.8902  0.0711
 3198TIP3   OH2 9599   1.928   4.284   0.441  0.2627  0.5771 -0.7538
 3198TIP3    H1 9600   1.893   4.200   0.410 -1.4392 -0.3517  3.1754
 3198TIP3    H2 9601   2.006   4.260   0.491  0.6425  1.5606 -0.8459
 3199TIP3   OH2 9602   0.340   4.918   4.786 -0.0622 -0.2001  0.1549
 3199TIP3    H1 9603   0.330   4.843   4.727 -1.0975  0.3269 -0.3627
 3199TIP3    H2 9604   0.401   4.976   4.741  0.5881 -0.6293  0.4666
 3200TIP3   OH2 9605   0.362   0.202   0.141 -0.2722 -0.0762 -0.4386
 3200TIP3    H1 9606   0.411   0.283   0.155  0.3545 -0.2201 -1.6434
 3200TIP3    H2 9607   0.346   0.200   0.047 -0.8773 -1.0162 -0.3275
 3201TIP3   OH2 9608   5.411   2.214   2.549 -0.5045 -0.4106 -0.0689
 3201TIP3    H1 9609   5.332   2.252   2.588 -2.2833 -2.8958 -1.0051
 3201TIP3    H2 9610   5.435   2.275   2.479 -1.8345  0.1823 -0.0437
 3202TIP3   OH2 9611   3.085   0.419   2.496  0.2176 -0.5551  0.1423
 3202TIP3    H1 9612   3.027   0.343   2.488 -0.4700 -0.0194 -0.1243
 3202TIP3    H2 9613   3.078   0.444   2.588 -2.0723  1.0709 -0.3784
 3203TIP3   OH2 9614   2.739   0.380   2.065 -0.4238 -0.0523  0.1869
 3203TIP3    H1 9615   2.667   0.338   2.113 -0.8299  1.8246  1.3380
 3203TIP3    H2 9616   2.815   0.369   2.122 -0.7964  1.7463  1.0847
 3204TIP3   OH2 9617   1.224   0.784   3.811  0.1039 -0.6935  0.6393
 3204TIP3    H1 9618   1.204   0.869   3.770 -0.1347 -1.2059 -0.3420
 3204TIP3    H2 9619   1.309   0.797   3.853  0.1099  0.0062  0.4293
 3205TIP3   OH2 9620   4.534   0.756   2.772 -0.0381  0.3087  0.5060
 3205TIP3    H1 9621   4.490   0.686   2.724 -1.0137  2.1104 -1.3810
 3205TIP3    H2 9622   4.557   0.716   2.856 -1.2815 -2.0087 -0.1598
 3206TIP3   OH2 9623   3.056   2.945   1.809 -0.7890  0.4104 -0.0232
 3206TIP3    H1 9624   2.984   2.991   1.852 -1.0293  0.7193 -0.7428
 3206TIP3    H2 9625   3.133   2.968   1.861 -1.0216  1.0300  0.0627
 3207TIP3   OH2 9626   0.605   4.174   4.961 -0.1559  0.2153  0.1498
 3207TIP3    H1 9627   0.561   4.234   4.902  0.4412  2.2441  1.6323
 3207TIP3    H2 9628   0.597   4.215   5.047  0.3744 -1.8184  1.2409
 3208TIP3   OH2 9629   3.726   0.686   0.223 -0.2476 -0.3424  0.1080
 3208TIP3    H1 9630   3.665   0.636   0.169  0.4206 -1.1812  0.1158
 3208TIP3    H2 9631   3.755   0.624   0.291  0.2378  0.1855  0.3931
 3209TIP3   OH2 9632   4.142   1.966   1.632  0.9739 -0.1089  0.1667
 3209TIP3    H1 9633   4.122   1.897   1.694  1.3139 -0.4103 -0.0551
 3209TIP3    H2 9634   4.228   1.999   1.658  0.4777  0.7761  0.7544
 3210TIP3   OH2 9635   5.714   4.257   3.005 -0.3264 -0.2242 -0.1412
 3210TIP3    H1 9636   5.714   4.208   3.087  3.4859  1.6745  1.1860
 3210TIP3    H2 9637   5.675   4.342   3.027 -2.4674 -0.8227 -1.2749
 3211TIP3   OH2 9638   4.441   4.852   0.735  0.0875  0.1569  0.1732
 3211TIP3    H1 9639   4.463   4.931   0.687 -1.1118 -0.0503 -0.7608
 3211TIP3    H2 9640   4.365   4.875   0.788  0.1595 -0.1721  0.4275
 3212TIP3   OH2 9641   2.148   0.524   2.578  0.0476 -0.3096 -0.0354
 3212TIP3    H1 9642   2.062   0.489   2.602 -1.0632  2.1495 -0.1072
 3212TIP3    H2 9643   2.177   0.571   2.657  1.3711 -1.1605  0.0052
 3213TIP3   OH2 9644   3.704   1.978   2.335 -0.2391 -0.1126  0.1675
 3213TIP3    H1 9645   3.759   1.950   2.408  0.6497  0.1303 -0.3913
 3213TIP3    H2 9646   3.749   1.946   2.257  1.1847  3.3006 -0.5725
 3214TIP3   OH2 9647   1.798   3.607   3.284 -0.0835  0.2392  0.2218
 3214TIP3    H1 9648   1.711   3.638   3.305  0.0011  0.7207 -0.1182
 3214TIP3    H2 9649   1.851   3.627   3.361  0.7177  3.9114 -1.0788
 3215TIP3   OH2 9650   3.819   3.375   2.304 -0.0672  0.0022 -0.2195
 3215TIP3    H1 9651   3.737   3.410   2.269  0.3589  2.1095  0.7447
 3215TIP3    H2 9652   3.886   3.407   2.244  0.4993  2.3377  1.5039
 3216TIP3   OH2 9653   2.182   0.809   2.750  0.0642  0.2381 -0.8720
 3216TIP3    H1 9654   2.268   0.837   2.717  0.7764 -0.8545 -0.0248
 3216TIP3    H2 9655   2.182   0.834   2.842  0.6027 -2.0945 -0.1615
 3217TIP3   OH2 9656   4.351   1.182   3.894 -0.2838  0.0755  0.0482
 3217TIP3    H1 9657   4.341   1.123   3.969  0.9739  0.2563  0.3812
 3217TIP3    H2 9658   4.278   1.160   3.836 -0.2408 -1.3172  0.4866
 3218TIP3   OH2 9659   5.392   1.981   0.222  0.2131  0.5664  0.2591
 3218TIP3    H1 9660   5.437   1.900   0.200  0.1410  0.4127  0.6697
 3218TIP3    H2 9661   5.448   2.051   0.187 -0.0459  0.3218 -0.6651
 3219TIP3   OH2 9662   2.214   3.741   1.729  0.1842 -0.5088 -0.1413
 3219TIP3    H1 9663   2.218   3.805   1.800  1.1337  0.1561 -0.7807
 3219TIP3    H2 9664   2.286   3.681   1.745 -0.2046 -0.9480 -0.0002
 3220TIP3   OH2 9665   2.521   3.603   1.023  0.1806 -0.2792 -0.0061
 3220TIP3    H1 9666   2.558   3.519   1.051  0.6613  0.5298  1.9110
 3220TIP3    H2 9667   2.498   3.647   1.105 -0.5861  1.2374 -1.0080
 3221TIP3   OH2 9668   2.220   1.178   4.664 -0.1539  0.1381 -0.1460
 3221TIP3    H1 9669   2.314   1.192   4.678  0.0950 -1.6465  0.2735
 3221TIP3    H2 9670   2.199   1.228   4.586  0.9568  1.2560  0.2454
 3222TIP3   OH2 9671   5.247   5.750   2.034  0.7537  0.0118  0.1383
 3222TIP3    H1 9672   5.274   5.786   1.949 -0.2519 -0.1184 -0.2543
 3222TIP3    H2 9673   5.156   5.723   2.020  0.3294  0.6725  1.4612
 3223TIP3   OH2 9674   0.463   3.242   4.804  0.1249 -0.0002 -0.0406
 3223TIP3    H1 9675   0.532   3.249   4.871  1.0111 -0.3748 -0.8842
 3223TIP3    H2 9676   0.413   3.165   4.829  0.1848  0.1127  0.4329
 3224TIP3   OH2 9677   4.167   3.225   0.806 -0.2095  0.1241 -0.1330
 3224TIP3    H1 9678   4.196   3.136   0.826 -0.2520 -0.1156 -1.0882
 3224TIP3    H2 9679   4.248   3.274   0.793 -0.1909  0.1509  0.0786
 3225TIP3   OH2 9680   3.809   1.832   4.693  0.0204  0.0275 -0.3841
 3225TIP3    H1 9681   3.816   1.738   4.673  2.7949 -0.0778  0.6293
 3225TIP3    H2 9682   3.794   1.873   4.608 -1.4849 -1.3115 -0.8146
 3226TIP3   OH2 9683   4.158   0.271   4.717  0.2836 -0.0880  0.2132
 3226TIP3    H1 9684   4.117   0.236   4.795  0.7206 -0.0454  0.4684
 3226TIP3    H2 9685   4.244   0.229   4.714 -0.6604 -2.0223 -1.6358
 3227TIP3   OH2 9686   5.773   0.235   0.053 -0.6953 -0.1741  0.2211
 3227TIP3    H1 9687   5.862   0.212   0.028 -0.6884  0.6495 -0.5692
 3227TIP3    H2 9688   5.758   0.188   0.135  0.2027 -0.8934 -0.0123
 3228TIP3   OH2 9689   1.850   3.553   2.431 -0.5525  0.2107  0.7375
 3228TIP3    H1 9690   1.833   3.531   2.522  0.1280  0.3140  0.8962
 3228TIP3    H2 9691   1.785   3.619   2.409 -0.8285  0.0588  1.0915
 3229TIP3   OH2 9692   3.239   0.571   1.096  0.0308 -0.6095  0.1035
 3229TIP3    H1 9693   3.197   0.609   1.173 -0.3182 -1.4653  0.3448
 3229TIP3    H2 9694   3.332   0.590   1.108 -0.0277 -0.6880  0.7063
 3230TIP3   OH2 9695   4.692   2.782   3.638  0.3043  0.4518  0.2918
 3230TIP3    H1 9696   4.758   2.824   3.693 -1.2206  1.2880  1.5429
 3230TIP3    H2 9697   4.640   2.854   3.603 -0.1182 -0.2136 -0.4799
 3231TIP3   OH2 9698   2.820   0.959   1.850 -0.5237 -0.6464 -0.3551
 3231TIP3    H1 9699   2.798   1.040   1.804 -0.2132 -0.8245 -0.8290
 3231TIP3    H2 9700   2.740   0.935   1.897 -0.7430 -0.2834 -0.5370
 3232TIP3   OH2 9701   5.403   3.715   0.797 -0.0938 -0.6440  0.7018
 3232TIP3    H1 9702   5.375   3.666   0.720 -1.6480 -0.1521  0.9070
 3232TIP3    H2 9703   5.470   3.661   0.838  0.3690 -1.1551 -0.7060
 3233TIP3   OH2 9704   2.596   5.951   1.294 -0.3873  0.3992 -0.1789
 3233TIP3    H1 9705   2.601   6.037   1.334  0.5860  0.3205 -0.1060
 3233TIP3    H2 9706   2.687   5.929   1.273 -0.5171 -0.9262  0.5105
 3234TIP3   OH2 9707   2.183   1.197   3.273 -0.0623 -0.3499 -0.4501
 3234TIP3    H1 9708   2.161   1.278   3.226  1.9927 -0.4027 -1.6086
 3234TIP3    H2 9709   2.264   1.167   3.233 -0.0178 -2.2542  0.9183
 3235TIP3   OH2 9710   3.074   3.779   4.244 -0.4371  0.1496  0.0086
 3235TIP3    H1 9711   3.079   3.839   4.170 -2.4743  0.6929  0.2504
 3235TIP3    H2 9712   3.112   3.697   4.212  2.0058  1.3915 -0.4562
 3236TIP3   OH2 9713   0.135   3.908   4.686 -0.3259  0.0313  0.1146
 3236TIP3    H1 9714   0.205   3.850   4.716 -1.3182 -0.1352  2.3347
 3236TIP3    H2 9715   0.162   3.935   4.598  0.5067 -3.2052 -0.7514
 3237TIP3   OH2 9716   3.869   4.331   2.389  0.2741  0.5123 -0.0837
 3237TIP3    H1 9717   3.930   4.324   2.462  0.5256  1.7093 -0.1657
 3237TIP3    H2 9718   3.788   4.292   2.422  0.9181 -0.6528  0.1892
 3238TIP3   OH2 9719   0.562   0.672   2.280  0.0168  0.2135  0.1262
 3238TIP3    H1 9720   0.472   0.689   2.305 -0.7610 -3.4088  0.3225
 3238TIP3    H2 9721   0.556   0.635   2.192  1.0292 -1.8257  0.8432
 3239TIP3   OH2 9722   2.418   5.550   1.307  0.0659 -0.2518  0.0047
 3239TIP3    H1 9723   2.352   5.529   1.241  0.2529 -0.2094 -0.1974
 3239TIP3    H2 9724   2.409   5.645   1.320  0.5027 -0.1376 -0.4805
 3240TIP3   OH2 9725   0.652   0.960   2.282  0.1618  0.5229  0.2637
 3240TIP3    H1 9726   0.621   0.874   2.308  1.3672 -0.5624 -1.6670
 3240TIP3    H2 9727   0.587   0.991   2.218  0.7027  0.1950 -0.4570
 3241TIP3   OH2 9728   3.739   2.763   0.585 -0.8202  0.1686 -0.1639
 3241TIP3    H1 9729   3.822   2.775   0.538 -1.3359 -0.2468 -1.2328
 3241TIP3    H2 9730   3.706   2.679   0.552 -2.4397  1.0805 -0.9971
 3242TIP3   OH2 9731   5.065   4.728   1.841 -0.0038 -1.0582  0.4160
 3242TIP3    H1 9732   5.071   4.691   1.753 -0.8194 -1.4290  0.5066
 3242TIP3    H2 9733   5.012   4.665   1.890  1.0917 -1.2490  1.3945
 3243TIP3   OH2 9734   2.650   2.756   3.390 -0.0650  1.1693 -0.0378
 3243TIP3    H1 9735   2.620   2.665   3.389 -0.2328  1.2128 -2.1629
 3243TIP3    H2 9736   2.579   2.805   3.431 -0.3902  0.4936  0.2201
 3244TIP3   OH2 9737   5.849   0.213   4.806 -0.1209  0.4837  0.3549
 3244TIP3    H1 9738   5.866   0.141   4.745 -0.0401  1.2014 -0.4958
 3244TIP3    H2 9739   5.755   0.211   4.820 -0.5835  1.9012 -1.9147
 3245TIP3   OH2 9740   5.507   3.330   3.085  0.0900 -0.1760  0.0869
 3245TIP3    H1 9741   5.413   3.317   3.076  0.2480 -1.5982  0.2334
 3245TIP3    H2 9742   5.531   3.384   3.009 -0.7096 -0.5403 -0.4412
 3246TIP3   OH2 9743   0.720   5.840   4.271 -0.1687  0.9063 -0.0185
 3246TIP3    H1 9744   0.650   5.835   4.336  0.7482  0.3028  0.9487
 3246TIP3    H2 9745   0.703   5.766   4.212 -0.2709  0.6953  0.2767
 3247TIP3   OH2 9746   0.776   2.978   3.898 -0.0543  0.6344  0.7457
 3247TIP3    H1 9747   0.708   2.971   3.965  1.3591 -0.4081  2.1420
 3247TIP3    H2 9748   0.757   2.908   3.836 -1.1746  1.3953  0.1873
 3248TIP3   OH2 9749   2.729   0.008   5.122  0.0155  0.5979  0.3363
 3248TIP3    H1 9750   2.783   0.025   5.044 -0.1563  2.8282  0.6374
 3248TIP3    H2 9751   2.656   0.069   5.114 -1.6816 -1.2554  0.7568
 3249TIP3   OH2 9752   4.531   2.967   3.521  0.1334  0.2922  0.4376
 3249TIP3    H1 9753   4.481   3.004   3.594 -1.8716  0.5665 -0.9880
 3249TIP3    H2 9754   4.535   3.038   3.456  1.2766 -0.1574 -0.0019
 3250TIP3   OH2 9755   4.817   0.207   1.384  0.6698 -0.1438 -0.4428
 3250TIP3    H1 9756   4.751   0.273   1.363  0.6757 -0.6059 -2.0952
 3250TIP3    H2 9757   4.898   0.257   1.397  0.1462  0.3732  0.9886
 3251TIP3   OH2 9758   5.068   3.686   1.943 -0.7489  0.3262  0.2454
 3251TIP3    H1 9759   5.157   3.711   1.921 -0.6310  1.3219  1.6648
 3251TIP3    H2 9760   5.014   3.732   1.879 -0.2326 -0.8942 -1.1002
 3252TIP3   OH2 9761   3.863   2.803   3.664 -0.2054  0.4014  0.3144
 3252TIP3    H1 9762   3.829   2.890   3.640  1.5461  1.4159  1.2872
 3252TIP3    H2 9763   3.889   2.813   3.755 -1.1296 -1.5598  0.8335
 3253TIP3   OH2 9764   3.528   5.665   1.290 -0.1467  0.3257 -0.1719
 3253TIP3    H1 9765   3.542   5.620   1.207  2.9937 -0.6562  0.7467
 3253TIP3    H2 9766   3.490   5.750   1.266 -2.3851 -1.1583 -2.2659
 3254TIP3   OH2 9767   0.423   5.302   4.062 -0.0414  0.2818 -0.2312
 3254TIP3    H1 9768   0.361   5.339   4.126 -1.2734  2.3013 -2.4232
 3254TIP3    H2 9769   0.507   5.341   4.085 -0.5765  1.4103 -0.1308
 3255TIP3   OH2 9770   5.201   0.485   1.013  0.7512 -0.0673  0.1504
 3255TIP3    H1 9771   5.221   0.512   1.102  2.9294 -0.6214 -0.1086
 3255TIP3    H2 9772   5.277   0.433   0.986  0.7250  1.0738 -2.4434
 3256TIP3   OH2 9773   2.376   3.405   1.933 -0.2652  0.2708 -0.3745
 3256TIP3    H1 9774   2.382   3.435   2.024 -1.0970 -0.6000 -0.0151
 3256TIP3    H2 9775   2.457   3.357   1.918  0.3297  1.2690 -0.4276
 3257TIP3   OH2 9776   0.587   1.005   3.700 -0.1555 -0.4016  0.5163
 3257TIP3    H1 9777   0.531   1.059   3.644  0.5909 -0.9384 -0.7886
 3257TIP3    H2 9778   0.566   1.033   3.789 -1.1510  0.6988 -0.0404
 3258TIP3   OH2 9779   2.717   1.938   2.761  0.0454  0.0734 -0.1279
 3258TIP3    H1 9780   2.701   1.844   2.753 -1.7847  0.4863 -2.7527
 3258TIP3    H2 9781   2.800   1.952   2.714  0.7848 -0.2787  1.0209
 3259TIP3   OH2 9782   2.032   2.237   0.329  0.1969  0.3604  0.4312
 3259TIP3    H1 9783   1.966   2.178   0.292 -0.0388  1.7612 -1.5203
 3259TIP3    H2 9784   2.105   2.232   0.267  0.7051  1.1147  0.9586
 3260TIP3   OH2 9785   5.414   1.321   1.931  0.4466 -0.3985  0.6482
 3260TIP3    H1 9786   5.397   1.271   2.011 -1.4026 -0.2179  0.4201
 3260TIP3    H2 9787   5.340   1.382   1.925  0.3040 -0.6992 -1.4129
 3261TIP3   OH2 9788   2.562   2.643   1.775  0.1766 -0.3836 -0.4784
 3261TIP3    H1 9789   2.519   2.584   1.714  1.4804 -0.8393 -0.9807
 3261TIP3    H2 9790   2.599   2.586   1.842  0.1183 -0.0088 -0.1199
 3262TIP3   OH2 9791   4.142   3.636   1.086  0.0663  0.1880  0.1429
 3262TIP3    H1 9792   4.162   3.590   1.005 -2.0130 -0.5606 -0.0233
 3262TIP3    H2 9793   4.046   3.634   1.091 -0.1302  3.8540  0.5323
 3263TIP3   OH2 9794   3.410   1.519   1.147  0.4059  0.1925  0.4762
 3263TIP3    H1 9795   3.435   1.522   1.055 -1.7835 -0.4102 -0.1854
 3263TIP3    H2 9796   3.406   1.426   1.168 -0.7934  0.2834  0.6846
 3264TIP3   OH2 9797   2.667   2.063   1.055 -0.6270  0.2849 -0.2178
 3264TIP3    H1 9798   2.679   2.148   1.014 -1.8697  1.5321  1.8237
 3264TIP3    H2 9799   2.578   2.038   1.030 -0.8046  0.2944  0.4097
 3265TIP3   OH2 9800   3.953   4.464   4.447  0.0572 -0.2290  0.7826
 3265TIP3    H1 9801   4.004   4.503   4.376  0.2568  1.7845  1.9586
 3265TIP3    H2 9802   3.867   4.506   4.439  0.0072 -0.1760  1.5602
 3266TIP3   OH2 9803   0.944   4.665   2.765 -0.3975 -0.5242 -0.0596
 3266TIP3    H1 9804   0.894   4.669   2.684  0.7831 -1.0772 -0.8501
 3266TIP3    H2 9805   1.029   4.703   2.743  0.3422 -1.7272  0.5772
 3267TIP3   OH2 9806   0.470   4.953   1.987  0.3592  0.0281 -0.0738
 3267TIP3    H1 9807   0.541   4.895   1.960  0.6754  0.1471  0.5094
 3267TIP3    H2 9808   0.461   5.015   1.914 -0.1590 -0.9059 -0.8186
 3268TIP3   OH2 9809   5.144   1.148   4.138 -0.3481  1.0985 -0.2796
 3268TIP3    H1 9810   5.084   1.077   4.161 -1.3861  2.3076  0.8710
 3268TIP3    H2 9811   5.099   1.195   4.068 -1.6667  3.0447  1.7387
 3269TIP3   OH2 9812   2.330   4.984   3.419  0.4342  0.1954  0.6498
 3269TIP3    H1 9813   2.323   4.889   3.409 -0.4954  0.2755  0.3482
 3269TIP3    H2 9814   2.412   4.998   3.466  1.2372 -0.6785 -0.4436
 3270TIP3   OH2 9815   5.127   3.483   4.744 -0.2256  0.1258  0.1053
 3270TIP3    H1 9816   5.053   3.504   4.688 -0.9029 -2.6731 -0.1773
 3270TIP3    H2 9817   5.118   3.542   4.819 -1.6770  1.0608 -0.7686
 3271TIP3   OH2 9818   2.026   0.101   2.955  0.2282 -0.0825  0.2809
 3271TIP3    H1 9819   1.994   0.107   3.045  0.9716  1.1797  0.4923
 3271TIP3    H2 9820   2.056   0.011   2.946  1.2499  0.0677  1.7076
 3272TIP3   OH2 9821   4.410   5.627   5.060 -0.2226 -0.1769 -0.4064
 3272TIP3    H1 9822   4.408   5.718   5.092  2.6910  0.7965 -2.5189
 3272TIP3    H2 9823   4.319   5.599   5.061 -0.9406  1.7932  2.8274
 3273TIP3   OH2 9824   3.565   1.764   5.064  0.4231 -0.2212  0.5018
 3273TIP3    H1 9825   3.652   1.797   5.040 -0.0466  1.1225  0.5714
 3273TIP3    H2 9826   3.518   1.760   4.981  0.1728  0.2241  0.6202
 3274TIP3   OH2 9827   3.371   3.601   1.892  0.1244 -0.2193  0.2333
 3274TIP3    H1 9828   3.465   3.583   1.901  0.0062 -0.7726  0.4422
 3274TIP3    H2 9829   3.364   3.656   1.814  0.6441 -0.0044  0.3377
 3275TIP3   OH2 9830   5.854   4.907   3.350 -0.2937  0.3829  0.0053
 3275TIP3    H1 9831   5.770   4.861   3.346  0.0368 -0.1518 -1.2479
 3275TIP3    H2 9832   5.913   4.844   3.392 -0.0182 -0.0815 -1.0494
 3276TIP3   OH2 9833   5.529   1.140   2.516 -0.2154  0.3452 -0.1296
 3276TIP3    H1 9834   5.472   1.111   2.445  1.9633 -1.4359 -1.2968
 3276TIP3    H2 9835   5.500   1.090   2.593 -0.8384  0.2110 -0.4483
 3277TIP3   OH2 9836   3.906   3.937   2.192 -0.1339  0.1347  0.4282
 3277TIP3    H1 9837   3.827   3.947   2.245 -0.3637 -0.7813  0.2785
 3277TIP3    H2 9838   3.973   3.907   2.254  0.2596  1.4701  0.6666
 3278TIP3   OH2 9839   3.037   3.643   4.722  0.1993 -0.2126  0.0955
 3278TIP3    H1 9840   3.046   3.550   4.744  2.0730  0.1221  0.9012
 3278TIP3    H2 9841   3.038   3.646   4.627  1.2000 -0.9450  0.0693
 3279TIP3   OH2 9842   4.501   0.255   0.278  0.3381 -0.2344  0.3660
 3279TIP3    H1 9843   4.575   0.301   0.319  0.4094  2.1116 -2.0983
 3279TIP3    H2 9844   4.424   0.294   0.318  0.4277  0.7135 -0.3475
 3280TIP3   OH2 9845   1.899   4.135   4.658 -0.2071 -0.0431  0.1946
 3280TIP3    H1 9846   1.822   4.100   4.612 -0.3842 -0.1697  0.5862
 3280TIP3    H2 9847   1.865   4.165   4.742 -0.1496  1.5020 -0.3086
 3281TIP3   OH2 9848   5.577   5.623   2.093 -0.1938 -0.2276  0.6193
 3281TIP3    H1 9849   5.517   5.573   2.149  0.2342  1.2929  2.5609
 3281TIP3    H2 9850   5.568   5.714   2.124  2.0333  0.2698 -0.0130
 3282TIP3   OH2 9851   0.150   1.728   2.677  0.3513  0.0324 -0.7132
 3282TIP3    H1 9852   0.160   1.676   2.597  0.4781 -0.9721 -0.0605
 3282TIP3    H2 9853   0.065   1.701   2.712  0.4023  0.2900 -0.3871
 3283TIP3   OH2 9854   2.184   2.086   5.184 -0.0629 -0.2164  0.2077
 3283TIP3    H1 9855   2.259   2.120   5.137  0.1121 -0.5799  0.2195
 3283TIP3    H2 9856   2.109   2.104   5.127 -0.0066  0.3793  0.3150
 3284TIP3   OH2 9857   4.354   0.914   4.866  0.0365 -0.1997 -0.0016
 3284TIP3    H1 9858   4.377   0.834   4.820 -0.7773  0.2061 -1.1514
 3284TIP3    H2 9859   4.323   0.973   4.798  0.0157  0.8750  0.9104
 3285TIP3   OH2 9860   6.270   5.832   0.456 -0.1998  0.0411 -0.3704
 3285TIP3    H1 9861   6.360   5.822   0.424  0.4912 -0.7132  1.6962
 3285TIP3    H2 9862   6.240   5.915   0.418  1.8769  1.0270  0.0376
 3286TIP3   OH2 9863   1.817   1.804   1.983  0.0489  0.5567  0.1938
 3286TIP3    H1 9864   1.795   1.896   1.973 -2.0485  0.0864 -0.0576
 3286TIP3    H2 9865   1.824   1.771   1.894 -1.9647 -0.0790  0.2335
 3287TIP3   OH2 9866   0.368   3.456   1.605 -0.2526 -0.1685 -0.1252
 3287TIP3    H1 9867   0.344   3.528   1.663  1.5494  0.7362 -0.4259
 3287TIP3    H2 9868   0.391   3.384   1.663 -0.1761  0.1451  0.2331
 3288TIP3   OH2 9869   4.319   4.691   3.051 -0.0270 -0.0251 -0.0183
 3288TIP3    H1 9870   4.336   4.598   3.068  1.7267  0.6445  2.4513
 3288TIP3    H2 9871   4.396   4.736   3.087 -0.9951  2.4142 -0.8280
 3289TIP3   OH2 9872   3.441   0.498   0.415  0.1336  0.2918  0.1336
 3289TIP3    H1 9873   3.480   0.457   0.338  0.2938  1.1096 -0.2327
 3289TIP3    H2 9874   3.459   0.436   0.486 -0.0354 -0.4835 -0.4805
 3290TIP3   OH2 9875   3.696   0.785   1.333 -0.3376 -0.0056  0.0618
 3290TIP3    H1 9876   3.649   0.736   1.401 -0.2533  0.0446  0.1563
 3290TIP3    H2 9877   3.715   0.869   1.374  0.4424 -0.2750  0.2591
 3291TIP3   OH2 9878   2.529   4.667   4.098 -0.0596  0.3473 -0.1998
 3291TIP3    H1 9879   2.535   4.575   4.127  1.4635  0.8453  1.2048
 3291TIP3    H2 9880   2.448   4.670   4.048  0.0991 -1.8891 -0.7295
 3292TIP3   OH2 9881   0.300   5.383   2.627  0.0195  0.0025  0.1446
 3292TIP3    H1 9882   0.299   5.287   2.619 -1.0201  0.0810 -0.9109
 3292TIP3    H2 9883   0.350   5.413   2.551  1.8289  0.2679  1.3693
 3293TIP3   OH2 9884   0.114   1.485   0.523 -0.1499 -0.1467  0.2178
 3293TIP3    H1 9885   0.119   1.544   0.448 -0.0462 -0.3056  0.0974
 3293TIP3    H2 9886   0.111   1.398   0.485 -1.3929 -0.1773  0.3697
 3294TIP3   OH2 9887   5.486   2.870   2.463 -0.5489  0.5330 -0.2258
 3294TIP3    H1 9888   5.481   2.831   2.376  0.0017  1.4040 -0.6586
 3294TIP3    H2 9889   5.568   2.919   2.464 -1.4072  2.0375  0.1385
 3295TIP3   OH2 9890   0.319   2.762   1.078 -0.3410  0.1011  0.3352
 3295TIP3    H1 9891   0.364   2.774   1.161  1.4001 -0.8992 -0.4091
 3295TIP3    H2 9892   0.382   2.791   1.012 -1.3766  0.1040 -0.6870
 3296TIP3   OH2 9893   2.969   3.837   4.488 -0.4458  0.5842  0.3791
 3296TIP3    H1 9894   3.035   3.807   4.425  1.3830  1.4407  1.7918
 3296TIP3    H2 9895   2.896   3.865   4.433  0.1760 -0.7364 -1.2469
 3297TIP3   OH2 9896   3.273   2.755   3.790  0.2499  0.4103 -0.5266
 3297TIP3    H1 9897   3.221   2.710   3.723 -0.7780  1.0719 -0.1951
 3297TIP3    H2 9898   3.303   2.835   3.747  1.1869 -0.0516 -0.7749
 3298TIP3   OH2 9899   5.554   0.702   0.269  0.1196  0.0064  0.0206
 3298TIP3    H1 9900   5.647   0.687   0.289 -0.1333 -1.2537  0.3452
 3298TIP3    H2 9901   5.555   0.747   0.185  1.0418  0.4108  0.2360
 3299TIP3   OH2 9902   0.154   2.093   0.127  0.4082 -0.1279 -0.3601
 3299TIP3    H1 9903   0.166   2.001   0.101 -0.0670 -0.2911  0.0000
 3299TIP3    H2 9904   0.172   2.094   0.221  0.8851  0.2399 -0.4505
 3300TIP3   OH2 9905   5.975   2.362   0.501 -0.4188 -0.3215 -0.0048
 3300TIP3    H1 9906   6.036   2.302   0.458 -0.6044 -0.0149 -0.7115
 3300TIP3    H2 9907   6.013   2.377   0.588 -0.0311 -0.9410 -0.0636
 3301TIP3   OH2 9908   4.379   5.152   2.491 -0.3304 -0.3386 -0.4677
 3301TIP3    H1 9909   4.439   5.078   2.495 -0.5060 -0.4514  0.2162
 3301TIP3    H2 9910   4.295   5.117   2.519 -0.0324  0.4814  1.6378
 3302TIP3   OH2 9911   2.503   5.916   1.014 -0.4380  0.2668 -0.7169
 3302TIP3    H1 9912   2.531   5.830   0.984  0.6819  0.2432  0.3386
 3302TIP3    H2 9913   2.509   5.912   1.109 -1.1197  1.2732 -0.6138
 3303TIP3   OH2 9914   3.554   4.152   2.709 -0.2300  0.4039  0.8202
 3303TIP3    H1 9915   3.509   4.203   2.642 -0.8798 -0.3650  0.6456
 3303TIP3    H2 9916   3.527   4.062   2.692  1.1399 -0.0386  0.9258
 3304TIP3   OH2 9917   2.104   5.416   1.423  0.6967  0.2939  1.1267
 3304TIP3    H1 9918   2.077   5.356   1.492  0.5383  1.0610  1.7525
 3304TIP3    H2 9919   2.031   5.416   1.361  1.7801 -2.1273 -0.2540
 3305TIP3   OH2 9920   3.770   4.108   2.943 -0.2327  0.2836 -0.0500
 3305TIP3    H1 9921   3.830   4.153   3.003 -0.5166  1.3472 -0.5555
 3305TIP3    H2 9922   3.713   4.177   2.909  0.4339 -0.1510 -2.1646
 3306TIP3   OH2 9923   4.570   3.876   1.868  0.2139 -0.4371  0.0192
 3306TIP3    H1 9924   4.489   3.869   1.818  1.2094 -0.9430 -1.5702
 3306TIP3    H2 9925   4.584   3.971   1.877 -0.7404 -0.3429  0.6593
 3307TIP3   OH2 9926   2.595   3.815   0.857 -0.0232 -0.5491  0.1258
 3307TIP3    H1 9927   2.563   3.749   0.919 -0.5083  0.0149  0.4955
 3307TIP3    H2 9928   2.686   3.829   0.882  0.1002 -1.1135  0.0081
 3308TIP3   OH2 9929   3.049   3.109   2.447 -0.3682  0.0064  0.2768
 3308TIP3    H1 9930   3.108   3.078   2.379 -0.3252  0.5104  0.0791
 3308TIP3    H2 9931   3.080   3.198   2.467 -0.9174  0.1918  0.3330
 3309TIP3   OH2 9932   0.043   2.669   4.407  0.3314 -0.4329  0.4381
 3309TIP3    H1 9933   0.104   2.703   4.473  0.1200  0.0677  0.3824
 3309TIP3    H2 9934   0.013   2.747   4.360 -0.9008 -0.5801  0.9399
 3310TIP3   OH2 9935   2.109   4.335   4.887 -0.8415  0.6424 -0.0315
 3310TIP3    H1 9936   2.149   4.401   4.943 -0.7145  0.2739  0.3194
 3310TIP3    H2 9937   2.109   4.255   4.940  1.6773 -0.4066 -1.4226
 3311TIP3   OH2 9938   3.900   2.482   5.042 -0.3710 -0.1240 -1.0565
 3311TIP3    H1 9939   3.975   2.424   5.055 -1.4901 -1.6047 -0.9340
 3311TIP3    H2 9940   3.847   2.438   4.976 -1.9265  0.0386  0.0173
 3312TIP3   OH2 9941   0.982   5.720   2.416 -0.2413  0.1570 -0.2655
 3312TIP3    H1 9942   0.968   5.757   2.503 -2.0437  0.6869 -0.7489
 3312TIP3    H2 9943   0.895   5.719   2.376  0.5909  0.2104 -2.1658
 3313TIP3   OH2 9944   4.990   5.619   3.486  0.1822 -0.4688 -0.3701
 3313TIP3    H1 9945   5.042   5.693   3.517  2.3288 -1.9029 -0.3528
 3313TIP3    H2 9946   4.900   5.641   3.511  0.5363  2.6317 -1.4015
 3314TIP3   OH2 9947   1.560   0.806   2.471  0.3090  0.0870 -0.0728
 3314TIP3    H1 9948   1.622   0.826   2.541 -0.5953 -1.6582  1.3023
 3314TIP3    H2 9949   1.522   0.890   2.447  0.8433  0.7511  1.3457
 3315TIP3   OH2 9950   1.020   4.739   1.831  0.4757 -0.6368  0.0810
 3315TIP3    H1 9951   1.093   4.731   1.770  2.1200 -1.4442  2.0622
 3315TIP3    H2 9952   0.976   4.654   1.828  1.2931 -1.1061  0.8655
 3316TIP3   OH2 9953   0.440   3.924   2.347  0.0526  0.0515  0.3137
 3316TIP3    H1 9954   0.441   3.843   2.296  0.4235  0.4509 -0.3158
 3316TIP3    H2 9955   0.375   3.979   2.304  1.1884  0.8371 -0.4464
 3317TIP3   OH2 9956   2.016   0.828   4.762  0.7553 -0.2665  0.2373
 3317TIP3    H1 9957   1.970   0.804   4.682  1.6871 -2.5024  0.3077
 3317TIP3    H2 9958   1.947   0.858   4.822 -0.1659 -0.3446 -0.7641
 3318TIP3   OH2 9959   3.463   0.491   4.312 -0.0177 -0.0910  0.3636
 3318TIP3    H1 9960   3.426   0.410   4.275 -3.5158  0.9477  1.2555
 3318TIP3    H2 9961   3.516   0.461   4.386 -1.9436 -1.5821  1.2238
 3319TIP3   OH2 9962   5.214   3.452   2.066  0.9625 -0.3558  0.3202
 3319TIP3    H1 9963   5.292   3.507   2.060  0.8190 -0.3126 -2.3743
 3319TIP3    H2 9964   5.210   3.426   2.159  2.5249  1.9440  1.1169
 3320TIP3   OH2 9965   4.347   1.533   0.581  0.5396 -0.1495  0.3420
 3320TIP3    H1 9966   4.253   1.530   0.597  0.5410 -1.2022  0.2118
 3320TIP3    H2 9967   4.362   1.468   0.512  1.4553 -0.5357  0.8862
 3321TIP3   OH2 9968   4.677   4.787   3.898 -0.0139  0.0245  0.2298
 3321TIP3    H1 9969   4.623   4.790   3.819  0.9741 -0.1762 -0.4870
 3321TIP3    H2 9970   4.621   4.748   3.965 -0.7198 -0.2457 -0.5010
 3322TIP3   OH2 9971   1.001   0.787   3.205 -0.3134 -0.0445  0.3669
 3322TIP3    H1 9972   0.957   0.779   3.120 -2.2577 -0.2234  1.3336
 3322TIP3    H2 9973   1.000   0.880   3.224 -2.6285 -0.2506  1.5120
 3323TIP3   OH2 9974   3.919   1.562   4.121  0.0758 -0.1610  0.2614
 3323TIP3    H1 9975   3.832   1.587   4.092 -0.3268  1.1917  2.4425
 3323TIP3    H2 9976   3.971   1.642   4.117  0.2783 -0.1452  2.0894
 3324TIP3   OH2 9977   3.585   0.814   1.954 -0.3568  0.6245 -0.0682
 3324TIP3    H1 9978   3.507   0.837   2.003 -2.0162 -1.4362 -1.5350
 3324TIP3    H2 9979   3.643   0.772   2.018 -1.4626  0.0824  0.5899
 3325TIP3   OH2 9980   1.780   5.625   1.764 -0.0219  0.2361 -0.4969
 3325TIP3    H1 9981   1.843   5.697   1.772  1.4175 -1.0585  0.5913
 3325TIP3    H2 9982   1.738   5.621   1.850 -0.1810 -0.1316 -0.5902
 3326TIP3   OH2 9983   0.777   0.841   4.985 -0.3656  0.1075 -0.5965
 3326TIP3    H1 9984   0.751   0.791   5.062 -2.7817  0.9966 -0.7586
 3326TIP3    H2 9985   0.842   0.903   5.017  0.1828 -0.8885  0.2807
 3327TIP3   OH2 9986   2.298   0.405   5.142  0.4714  0.0592  0.0270
 3327TIP3    H1 9987   2.310   0.323   5.093  3.0725  0.9959 -1.0662
 3327TIP3    H2 9988   2.333   0.472   5.084 -1.0672  1.9210  1.1396
 3328TIP3   OH2 9989   5.407   1.623   2.539  0.0872 -0.1396 -0.4643
 3328TIP3    H1 9990   5.465   1.558   2.579 -0.9303 -1.1825 -0.6303
 3328TIP3    H2 9991   5.328   1.574   2.516 -1.1258  1.3696  0.3265
 3329TIP3   OH2 9992   5.820   2.363   1.804 -0.3903  0.8346 -0.2762
 3329TIP3    H1 9993   5.874   2.404   1.871 -0.2468  0.5658 -0.2275
 3329TIP3    H2 9994   5.864   2.384   1.722  0.7482 -0.8136 -0.1285
 3330TIP3   OH2 9995   0.465   1.939   4.648 -0.3080  0.2449  0.6900
 3330TIP3    H1 9996   0.544   1.973   4.691  0.4951  1.8174 -1.8234
 3330TIP3    H2 9997   0.396   1.947   4.714  1.7208 -2.1610  3.3396
 3331TIP3   OH2 9998   3.864   2.032   5.118 -0.8074  0.3384 -0.0570
 3331TIP3    H1 9999   3.802   2.076   5.177  0.9446  0.0042  2.1591
 3331TIP3    H210000   3.854   1.939   5.139  0.2950  0.2711  0.2176
 3332TIP3   OH210001   4.896   5.273   0.446 -0.4016  0.3461  0.1758
 3332TIP3    H110002   4.921   5.264   0.538  0.8971  1.3004 -0.0508
 3332TIP3    H210003   4.898   5.367   0.430 -1.2165  0.2337 -0.6805
 3333TIP3   OH210004   4.039   2.251   5.098 -0.3002 -0.1465 -0.5929
 3333TIP3    H110005   4.061   2.225   5.187 -1.6510  0.6557 -0.0082
 3333TIP3    H210006   3.970   2.190   5.071  0.9373 -1.1861 -1.5831
 3334TIP3   OH210007   1.195   1.659   3.011  0.2430 -0.3997 -0.6817
 3334TIP3    H110008   1.177   1.589   3.074 -0.7646  1.8674  1.7878
 3334TIP3    H210009   1.290   1.665   3.009  0.3207 -0.1022  1.2906
 3335TIP3   OH210010   5.546   2.385   5.022 -0.4098 -0.2322  0.1779
 3335TIP3    H110011   5.599   2.306   5.033  0.9923  0.8835  2.2055
 3335TIP3    H210012   5.593   2.436   4.956  0.9601  0.5856  1.7005
 3336TIP3   OH210013   2.419   5.069   0.802 -0.0556  0.0366  0.3548
 3336TIP3    H110014   2.434   5.001   0.868  1.6148  1.0907  1.1169
 3336TIP3    H210015   2.371   5.138   0.849 -0.9566 -0.2025 -0.1836
 3337TIP3   OH210016   1.790   1.535   2.703 -0.4482 -0.1406 -0.2150
 3337TIP3    H110017   1.721   1.602   2.710 -0.5637 -0.4209  2.1078
 3337TIP3    H210018   1.829   1.533   2.790  0.5783 -2.0406 -0.6797
 3338TIP3   OH210019   4.666   4.561   0.757 -0.3379  0.0811 -0.4243
 3338TIP3    H110020   4.731   4.631   0.764 -0.8606  0.4159  1.5426
 3338TIP3    H210021   4.605   4.592   0.689  0.6485  0.4963 -1.1453
 3339TIP3   OH210022   3.559   4.474   1.384  0.2896  0.2807 -0.4473
 3339TIP3    H110023   3.540   4.469   1.477 -0.1937  0.8901 -0.5070
 3339TIP3    H210024   3.488   4.424   1.343  0.6943 -0.2839 -0.4739
 3340TIP3   OH210025   0.949   0.559   4.241 -0.4632 -0.2973 -0.2992
 3340TIP3    H110026   0.904   0.635   4.277  1.6626  0.5680  0.6841
 3340TIP3    H210027   1.000   0.525   4.314 -2.2677 -3.4937 -0.3439
 3341TIP3   OH210028   3.420   0.024   4.062  0.2962 -0.2908 -0.0949
 3341TIP3    H110029   3.504   0.014   4.107  0.4694 -1.2270 -0.6117
 3341TIP3    H210030   3.438  -0.002   3.972 -0.8297 -1.7379  0.0735
 3342TIP3   OH210031   5.285   3.967   2.800  0.5160 -0.1815 -0.3220
 3342TIP3    H110032   5.273   4.061   2.814 -0.7403 -0.2350 -0.8972
 3342TIP3    H210033   5.332   3.937   2.878 -0.5714  0.6303  0.6741
 3343TIP3   OH210034   0.282   5.410   4.261 -0.3691  0.3024 -0.3042
 3343TIP3    H110035   0.356   5.457   4.300 -0.8276  0.4500  0.4203
 3343TIP3    H210036   0.236   5.476   4.209  0.8188 -0.1314 -1.9751
 3344TIP3   OH210037   6.107   5.639   1.927 -0.2571 -0.0612 -0.1476
 3344TIP3    H110038   6.181   5.690   1.893  0.6210 -1.4637 -0.3929
 3344TIP3    H210039   6.032   5.671   1.877  0.5283 -0.0432 -1.3524
 3345TIP3   OH210040   1.646   2.192   0.072 -0.0278 -0.1999 -0.4206
 3345TIP3    H110041   1.687   2.106   0.059 -1.9151 -1.1730 -0.1764
 3345TIP3    H210042   1.607   2.214  -0.012  0.6562  0.5703 -0.5569
 3346TIP3   OH210043   0.653   1.369   3.583  0.4971 -0.4613  0.0831
 3346TIP3    H110044   0.570   1.418   3.588 -0.4459 -1.7660 -1.6087
 3346TIP3    H210045   0.657   1.321   3.666 -0.4103 -0.3246  0.2195
 3347TIP3   OH210046   2.668   0.890   0.698 -0.1331 -0.0393 -0.0444
 3347TIP3    H110047   2.657   0.807   0.650 -0.5215 -0.9551  1.5593
 3347TIP3    H210048   2.750   0.879   0.745  0.0308  0.6726 -0.1635
 3348TIP3   OH210049   1.490   1.046   2.300  0.1046 -0.1486  0.3512
 3348TIP3    H110050   1.423   1.097   2.346  0.4176 -0.2317  0.9175
 3348TIP3    H210051   1.501   1.090   2.216  1.2661  1.4889  1.3013
 3349TIP3   OH210052   0.587   4.615   1.268  0.4093  0.3461  0.1104
 3349TIP3    H110053   0.574   4.690   1.210  0.3661  0.6796  0.5467
 3349TIP3    H210054   0.567   4.648   1.356 -1.1263 -0.5662  0.1350
 3350TIP3   OH210055   5.679   2.248   1.556 -0.1198  0.0323  0.1572
 3350TIP3    H110056   5.633   2.282   1.633  0.1917  1.6431 -0.3328
 3350TIP3    H210057   5.608   2.222   1.497 -0.3904  0.7322  0.1624
 3351TIP3   OH210058   2.057   3.281   4.763 -0.2189  0.0895 -0.0478
 3351TIP3    H110059   2.000   3.206   4.779 -1.3382  0.4657 -1.9396
 3351TIP3    H210060   2.026   3.348   4.824  0.5023 -0.7778  1.3435
 3352TIP3   OH210061   3.379   3.290   0.153 -0.1158  0.4856  0.6504
 3352TIP3    H110062   3.404   3.289   0.060  1.5736  0.7233  1.0674
 3352TIP3    H210063   3.285   3.276   0.152 -0.0258 -0.3328 -1.0651
 3353TIP3   OH210064   1.010   2.898   1.652 -0.5792 -0.2137  0.1838
 3353TIP3    H110065   1.019   2.823   1.593  0.4174 -0.8613  1.1070
 3353TIP3    H210066   1.028   2.974   1.597  1.1872 -0.8536 -0.2089
 3354TIP3   OH210067   2.088   4.903   2.275 -0.4317  0.3940 -0.0864
 3354TIP3    H110068   2.133   4.954   2.208 -0.1654 -0.5656 -0.6576
 3354TIP3    H210069   2.040   4.836   2.227 -0.9106  0.2023  0.6364
 3355TIP3   OH210070   1.180   5.212   4.998 -0.1482  0.4994  0.5455
 3355TIP3    H110071   1.201   5.240   5.087 -0.0126 -0.1909  0.7347
 3355TIP3    H210072   1.210   5.285   4.943 -1.1763  1.3887  1.1242
 3356TIP3   OH210073   3.354   0.547   3.195 -0.2198  0.1476 -0.4097
 3356TIP3    H110074   3.273   0.501   3.218  0.5854 -1.9704 -1.5397
 3356TIP3    H210075   3.381   0.590   3.276 -2.5351  1.0492 -0.0559
 3357TIP3   OH210076   4.166   0.567   1.184  0.2269  0.4501 -0.3019
 3357TIP3    H110077   4.100   0.636   1.186  1.3635  1.5841  1.3564
 3357TIP3    H210078   4.117   0.487   1.207 -0.6732  1.1497  0.3053
 3358TIP3   OH210079   2.054   5.318   0.203 -0.1883  0.4553 -0.0780
 3358TIP3    H110080   2.124   5.256   0.221  0.3615  0.9792 -0.4033
 3358TIP3    H210081   2.008   5.327   0.287  1.0410  1.2325  0.5362
 3359TIP3   OH210082   1.468   2.099   3.817 -0.1682  0.0217  0.3022
 3359TIP3    H110083   1.524   2.037   3.864  0.6444  0.4384 -0.0969
 3359TIP3    H210084   1.463   2.064   3.728  1.1331  1.0280 -0.2048
 3360TIP3   OH210085   2.528   4.861   4.520  0.6021 -0.0760 -0.0059
 3360TIP3    H110086   2.621   4.860   4.499  0.3170  2.7476 -1.9450
 3360TIP3    H210087   2.521   4.918   4.596  0.3561  1.2123 -0.9569
 3361TIP3   OH210088   1.997   2.519   2.297 -0.7995 -0.2281 -0.6960
 3361TIP3    H110089   2.074   2.543   2.245 -1.1082 -3.0352 -2.6454
 3361TIP3    H210090   1.924   2.526   2.235 -1.6573 -0.6519  0.2543
 3362TIP3   OH210091   4.398   0.838   1.339  0.2113 -0.0880 -0.3308
 3362TIP3    H110092   4.399   0.913   1.280  0.7230 -1.3745 -2.0371
 3362TIP3    H210093   4.305   0.819   1.352  0.0906  0.0719 -0.9293
 3363TIP3   OH210094   3.969   0.732   0.439 -0.3765  0.0536 -0.1519
 3363TIP3    H110095   4.033   0.720   0.369  1.3786 -0.3866  1.4627
 3363TIP3    H210096   3.994   0.813   0.482 -1.8709  0.6936 -0.4085
 3364TIP3   OH210097   4.594   1.146   0.581 -0.0402  0.0934 -0.1078
 3364TIP3    H110098   4.596   1.158   0.676  1.0685  0.7196 -0.1972
 3364TIP3    H210099   4.648   1.218   0.546  0.0485 -0.4685 -1.1787
 3365TIP3   OH210100   1.665   5.477   3.872  0.3684 -0.3242 -0.3722
 3365TIP3    H110101   1.688   5.417   3.943  0.7645  1.2882  0.9089
 3365TIP3    H210102   1.646   5.560   3.916 -0.5580  0.4058 -2.0607
 3366TIP3   OH210103   2.350   1.730   2.145  0.2699 -0.1778 -0.4079
 3366TIP3    H110104   2.327   1.744   2.237 -0.9234 -2.6918 -0.2397
 3366TIP3    H210105   2.344   1.817   2.106  0.2318  0.8637  1.7510
 3367TIP3   OH210106   5.576   2.268   3.022 -0.2802  0.4315 -0.0622
 3367TIP3    H110107   5.591   2.351   2.976  1.6741  0.4351  0.4870
 3367TIP3    H210108   5.604   2.285   3.112 -0.5080 -0.6269  0.2225
 3368TIP3   OH210109   4.296   0.036   1.242 -0.7638 -0.3224 -0.0146
 3368TIP3    H110110   4.341   0.066   1.163 -1.0343 -0.6632 -0.3016
 3368TIP3    H210111   4.235   0.107   1.262 -1.9107 -0.9421 -1.1064
 3369TIP3   OH210112   5.933   5.912   3.126 -0.0916  0.4716 -0.3008
 3369TIP3    H110113   5.881   5.924   3.205  0.8128  0.7862  0.2586
 3369TIP3    H210114   5.874   5.865   3.066  0.5095 -3.6825  1.9904
 3370TIP3   OH210115   2.585   1.856   1.399 -0.1962 -0.1426  0.0825
 3370TIP3    H110116   2.501   1.880   1.358 -1.2965 -0.4096  2.0607
 3370TIP3    H210117   2.647   1.921   1.366 -1.0835 -0.1199 -1.6672
 3371TIP3   OH210118   0.257   5.808   3.903 -0.6739  0.3320 -0.2676
 3371TIP3    H110119   0.182   5.785   3.847  0.6880  0.5731 -2.2642
 3371TIP3    H210120   0.229   5.887   3.949 -2.5184 -0.8853  0.8798
 3372TIP3   OH210121   5.339   4.635   1.868 -0.3054 -0.0350 -0.4302
 3372TIP3    H110122   5.297   4.652   1.784 -0.2392  1.3145 -0.2138
 3372TIP3    H210123   5.374   4.720   1.895  0.8913 -0.7237  0.3065
 3373TIP3   OH210124   5.512   4.400   4.183  0.4611  0.2852  0.1319
 3373TIP3    H110125   5.584   4.460   4.166 -0.7904  1.4470 -1.4040
 3373TIP3    H210126   5.541   4.316   4.149  1.3611  0.5696  0.1865
 3374TIP3   OH210127   0.117   3.815   1.166 -0.1265 -0.0322 -0.1870
 3374TIP3    H110128   0.054   3.878   1.132  0.1419 -0.0481 -0.7213
 3374TIP3    H210129   0.129   3.840   1.258  1.8032  2.2267 -0.9592
 3375TIP3   OH210130   4.511   2.614   2.455 -0.4418 -0.0024  0.0406
 3375TIP3    H110131   4.607   2.607   2.460 -0.3837  1.2825  1.4503
 3375TIP3    H210132   4.492   2.701   2.490 -2.0359  0.4421 -1.7610
 3376TIP3   OH210133   5.272   3.361   1.828 -0.4542 -0.0206 -0.0499
 3376TIP3    H110134   5.246   3.417   1.901  0.3106  2.5620 -1.6340
 3376TIP3    H210135   5.235   3.404   1.751  2.1785 -0.3096 -1.5913
 3377TIP3   OH210136   4.770   0.377   3.715 -0.4909  0.0945  0.0934
 3377TIP3    H110137   4.713   0.399   3.788 -0.6468  0.2576 -0.0757
 3377TIP3    H210138   4.821   0.456   3.699 -2.6568  1.2070 -2.0047
 3378TIP3   OH210139   5.591   2.896   1.677  0.4457 -0.1514  0.0864
 3378TIP3    H110140   5.536   2.878   1.753 -1.6905 -2.1550 -1.7660
 3378TIP3    H210141   5.669   2.938   1.713 -1.8049  1.9923  3.0118
 3379TIP3   OH210142   0.184   1.559   2.468  0.1934 -0.0689 -0.0411
 3379TIP3    H110143   0.276   1.530   2.466  0.1778 -0.0941 -0.5819
 3379TIP3    H210144   0.161   1.571   2.376  0.1733  1.5852  0.1508
 3380TIP3   OH210145   4.716   0.511   1.177  0.0005  0.2788 -0.0593
 3380TIP3    H110146   4.624   0.533   1.191 -0.4241 -1.1953 -0.3692
 3380TIP3    H210147   4.760   0.537   1.258 -0.4210  2.2621 -0.4212
 3381TIP3   OH210148   1.475   3.708   3.828 -0.4184  0.1646 -0.2057
 3381TIP3    H110149   1.503   3.784   3.878 -1.6512  0.0782  0.6590
 3381TIP3    H210150   1.458   3.641   3.893 -2.0590  0.0521 -0.6973
 3382TIP3   OH210151   3.099   0.248   3.037 -0.7278  0.0862 -0.0778
 3382TIP3    H110152   3.149   0.169   3.016  0.0493  0.4156  0.4941
 3382TIP3    H210153   3.028   0.217   3.094 -0.5465 -0.2319 -0.0224
 3383TIP3   OH210154   3.431   5.792   4.020 -0.4874  0.6162  0.3037
 3383TIP3    H110155   3.481   5.711   4.027 -1.2920 -0.0211 -0.9453
 3383TIP3    H210156   3.497   5.861   4.019  0.2435 -0.0647  0.7139
 3384TIP3   OH210157   6.256   4.875   4.535 -0.5719  0.6118  0.2728
 3384TIP3    H110158   6.310   4.801   4.563 -1.6887 -0.0142  0.8388
 3384TIP3    H210159   6.309   4.952   4.552  0.4064 -0.0283  0.1793
 3385TIP3   OH210160   1.725   5.015   3.573  0.5247 -0.1412 -0.0807
 3385TIP3    H110161   1.754   5.076   3.506  1.2909  1.6558  1.8012
 3385TIP3    H210162   1.636   5.043   3.595  0.6138 -0.1590  0.3031
 3386TIP3   OH210163   5.428   0.174   2.415 -0.0027  0.5019  0.0596
 3386TIP3    H110164   5.433   0.260   2.372  0.9844  0.2128 -0.4473
 3386TIP3    H210165   5.512   0.132   2.393  0.3048  0.1303  1.8412
 3387TIP3   OH210166   2.114   0.408   2.193  0.0775 -0.0882 -0.1838
 3387TIP3    H110167   2.167   0.336   2.227  0.0956  0.9076  2.0887
 3387TIP3    H210168   2.134   0.411   2.100  1.8905 -1.5027  0.1087
 3388TIP3   OH210169   6.107   0.232   0.832 -0.0114  0.1238  0.0773
 3388TIP3    H110170   6.185   0.285   0.813  0.3903  0.3522  2.0734
 3388TIP3    H210171   6.116   0.211   0.925 -0.8225 -2.4001 -0.3498
 3389TIP3   OH210172   3.287   2.887   0.379 -0.3322 -0.2624 -0.1404
 3389TIP3    H110173   3.341   2.963   0.398  0.0563 -0.4615 -0.4460
 3389TIP3    H210174   3.209   2.923   0.336 -0.0530 -0.0555 -0.4766
 3390TIP3   OH210175   0.196   1.645   0.737  0.1347  0.0128  0.4765
 3390TIP3    H110176   0.289   1.628   0.724  0.4504  2.3727 -1.0960
 3390TIP3    H210177   0.154   1.608   0.659  0.2090  1.6476 -0.3896
 3391TIP3   OH210178   2.941   0.846   2.480  0.3382  0.4438 -0.1392
 3391TIP3    H110179   2.929   0.927   2.431 -0.3522 -0.7606 -2.0676
 3391TIP3    H210180   2.856   0.828   2.518  0.4786  0.5747  0.2442
 3392TIP3   OH210181   2.566   5.990   0.074 -0.1864  0.4864  0.2125
 3392TIP3    H110182   2.653   5.978   0.112 -0.7705 -1.1215  1.1390
 3392TIP3    H210183   2.578   5.969  -0.019  0.1498 -1.2029  0.6087
 3393TIP3   OH210184   0.237   0.890   1.953  0.5373  0.3489 -0.0808
 3393TIP3    H110185   0.237   0.985   1.961  1.0909  0.5119 -1.7438
 3393TIP3    H210186   0.147   0.864   1.975  0.2836  1.2821  0.0217
 3394TIP3   OH210187   1.331   4.314   4.243 -0.0607  0.0241  0.6910
 3394TIP3    H110188   1.356   4.294   4.333  0.3749 -0.7134  0.4196
 3394TIP3    H210189   1.389   4.385   4.216  1.3371 -1.2072  0.2978
 3395TIP3   OH210190   6.062   1.468   3.869 -0.3925 -0.8366  0.2023
 3395TIP3    H110191   6.084   1.456   3.776  0.2401  0.5313  0.1469
 3395TIP3    H210192   6.124   1.413   3.916  1.3496  0.7610 -0.0891
 3396TIP3   OH210193   2.597   1.057   1.649  0.4813  0.3926 -0.1386
 3396TIP3    H110194   2.570   0.987   1.591  0.9719 -0.8941  1.1235
 3396TIP3    H210195   2.516   1.090   1.688  0.3621 -0.6502  0.5313
 3397TIP3   OH210196   2.331   2.509   2.822 -0.3781  0.2360 -0.0790
 3397TIP3    H110197   2.400   2.574   2.810 -0.8340  0.6608 -0.4580
 3397TIP3    H210198   2.335   2.455   2.743 -0.8481  0.6198 -0.3713
 3398TIP3   OH210199   2.051   2.124   4.440 -0.2546  0.0362  0.6615
 3398TIP3    H110200   2.077   2.036   4.413  0.2256 -0.1651  1.7380
 3398TIP3    H210201   2.000   2.158   4.366  0.1500 -0.8754 -0.0473
 3399TIP3   OH210202   6.279   2.957   3.537 -0.1492 -0.3472 -0.6522
 3399TIP3    H110203   6.186   2.934   3.539 -0.4253  0.6435  2.2113
 3399TIP3    H210204   6.313   2.912   3.460 -2.9675 -0.8055 -1.7472
 3400TIP3   OH210205   0.611   5.760   3.920 -0.0757  0.2108  0.3592
 3400TIP3    H110206   0.626   5.855   3.918 -2.9010  0.7597  0.8379
 3400TIP3    H210207   0.610   5.734   3.828  0.1806  0.7314  0.2020
 3401TIP3   OH210208   5.473   5.595   2.951 -0.2899  0.3477  0.2484
 3401TIP3    H110209   5.411   5.601   2.878 -0.9727 -0.3457  0.7529
 3401TIP3    H210210   5.549   5.551   2.915 -0.7659 -0.3156  0.0266
 3402TIP3   OH210211   1.767   4.417   4.689 -0.4025 -0.1669  0.1682
 3402TIP3    H110212   1.860   4.426   4.709 -0.0880 -0.0526 -1.2336
 3402TIP3    H210213   1.759   4.443   4.598 -1.7569 -0.5413  0.1490
 3403TIP3   OH210214   0.314   4.512   0.136  0.2625  0.1457 -0.2397
 3403TIP3    H110215   0.243   4.449   0.123  0.1930  0.1363  0.1953
 3403TIP3    H210216   0.349   4.526   0.048 -1.7398  1.8385 -0.8784
 3404TIP3   OH210217   0.728   1.320   1.682  0.0689  0.4596  0.2035
 3404TIP3    H110218   0.645   1.363   1.703 -0.1972  1.0333 -1.8065
 3404TIP3    H210219   0.795   1.381   1.713 -0.1885 -0.2425  2.3156
 3405TIP3   OH210220   1.325   4.218   1.772 -0.0619  0.0594 -0.0687
 3405TIP3    H110221   1.410   4.251   1.801  0.2652 -0.0148 -0.9082
 3405TIP3    H210222   1.305   4.269   1.694 -0.7451  0.0014  0.0603
 3406TIP3   OH210223   1.875   3.856   1.842 -0.0503 -0.3002  0.2636
 3406TIP3    H110224   1.861   3.770   1.801  1.1719 -0.0232 -0.8016
 3406TIP3    H210225   1.967   3.855   1.868  0.1050  0.8368 -0.1691
 3407TIP3   OH210226   0.941   0.883   0.221  0.3170 -0.3409  0.3533
 3407TIP3    H110227   1.025   0.839   0.236  0.7621  0.8903  1.7849
 3407TIP3    H210228   0.965   0.968   0.184 -0.3855 -0.4204 -0.3097
 3408TIP3   OH210229   3.921   2.473   4.667  0.2572  0.0393  0.1668
 3408TIP3    H110230   3.982   2.546   4.681  0.1760 -0.1170  1.4900
 3408TIP3    H210231   3.854   2.508   4.608  1.4999  0.2775 -1.1493
 3409TIP3   OH210232   0.928   1.792   4.280  0.2667 -0.7288  0.5300
 3409TIP3    H110233   0.887   1.878   4.266  2.4851  0.1736 -1.0276
 3409TIP3    H210234   0.946   1.759   4.193  0.6238 -2.2224  1.1361
 3410TIP3   OH210235   0.778   5.812   3.391  0.1300  0.4282 -1.0823
 3410TIP3    H110236   0.764   5.745   3.458 -1.3236  0.8930 -0.8866
 3410TIP3    H210237   0.867   5.796   3.360  0.5374 -0.3195  0.3650
 3411TIP3   OH210238   4.511   5.553   2.399  0.0292  0.0481 -0.3055
 3411TIP3    H110239   4.573   5.621   2.375  1.3039  0.1231  2.7111
 3411TIP3    H210240   4.441   5.599   2.445  0.7030 -0.5563  1.4016
 3412TIP3   OH210241   3.549   1.678   4.500  0.6712 -0.3547  0.2085
 3412TIP3    H110242   3.536   1.768   4.470 -0.6720 -1.0339 -1.4350
 3412TIP3    H210243   3.516   1.678   4.590  2.4255  1.1785  0.9160
 3413TIP3   OH210244   5.578   3.455   1.849  0.3115 -0.1681  0.3353
 3413TIP3    H110245   5.666   3.492   1.846 -0.1943  1.0579 -2.2706
 3413TIP3    H210246   5.544   3.467   1.760 -2.2347 -1.2368  1.0808
 3414TIP3   OH210247   2.592   0.632   3.046 -0.2109  0.2998 -0.2919
 3414TIP3    H110248   2.564   0.720   3.071  0.3294  0.3778  0.0618
 3414TIP3    H210249   2.673   0.645   2.997 -1.3017  0.1505 -2.2227
 3415TIP3   OH210250   0.245   1.836   1.782  0.0009 -0.2384  0.1318
 3415TIP3    H110251   0.210   1.791   1.705 -0.0419 -0.1268  0.0865
 3415TIP3    H210252   0.227   1.928   1.766 -1.5360 -0.3362  1.0245
 3416TIP3   OH210253   5.145   2.338   4.552 -0.8113 -0.3606  0.2000
 3416TIP3    H110254   5.162   2.418   4.502  2.6908 -0.3358  1.1813
 3416TIP3    H210255   5.194   2.270   4.505 -1.9172 -1.4764  0.6216
 3417TIP3   OH210256   4.833   4.060   1.098  0.0687  0.5934  0.4283
 3417TIP3    H110257   4.908   4.000   1.095  0.0475  0.6004 -0.2343
 3417TIP3    H210258   4.845   4.108   1.180  1.6223  1.6767 -0.3749
 3418TIP3   OH210259   0.409   4.542   0.624 -0.4806  0.1247  0.1581
 3418TIP3    H110260   0.414   4.557   0.718  0.6511 -1.0552  0.3006
 3418TIP3    H210261   0.494   4.571   0.590  1.1328 -3.9674  0.2149
 3419TIP3   OH210262   3.694   5.118   0.717  0.5496  0.7518  0.2883
 3419TIP3    H110263   3.777   5.110   0.669 -0.7502 -0.7991 -1.9107
 3419TIP3    H210264   3.643   5.042   0.689 -1.7029  1.7419  1.4333
 3420TIP3   OH210265   0.540   2.498   0.189  0.1993  0.0851 -0.3247
 3420TIP3    H110266   0.572   2.491   0.279 -1.3110 -0.8415  0.1915
 3420TIP3    H210267   0.457   2.546   0.196 -0.7470 -1.3476 -0.9549
 3421TIP3   OH210268   4.470   0.783   4.361 -0.3174  0.0496  0.7978
 3421TIP3    H110269   4.505   0.808   4.447 -0.1640  0.8286  0.5169
 3421TIP3    H210270   4.439   0.693   4.373  0.5358 -0.1741  1.4182
 3422TIP3   OH210271   3.697   4.693   4.678  0.6199  0.0114 -0.5621
 3422TIP3    H110272   3.768   4.642   4.717  1.7933  1.9347 -0.0438
 3422TIP3    H210273   3.742   4.763   4.630 -0.9153  0.4703 -1.3864
 3423TIP3   OH210274   0.359   0.934   0.593 -0.3703 -0.6389 -0.2772
 3423TIP3    H110275   0.316   0.954   0.509  0.2864 -1.4781 -0.8353
 3423TIP3    H210276   0.437   0.990   0.593  1.1873 -2.6489 -1.6001
 3424TIP3   OH210277   2.724   5.997   2.707 -0.6915  0.7105 -0.2569
 3424TIP3    H110278   2.789   5.978   2.639  0.2794  2.6897  0.0425
 3424TIP3    H210279   2.641   5.965   2.670  0.3611 -1.5750 -0.7812
 3425TIP3   OH210280   2.713   4.507   0.726 -0.3452  1.1169  0.0520
 3425TIP3    H110281   2.650   4.529   0.658 -1.5655 -0.2244  0.7019
 3425TIP3    H210282   2.789   4.473   0.678 -0.7326  1.2635 -0.6780
 3426TIP3   OH210283   5.714   3.188   5.064 -0.3089  0.9151 -0.0088
 3426TIP3    H110284   5.690   3.238   4.986  0.2883 -1.7740 -2.0441
 3426TIP3    H210285   5.769   3.248   5.114  1.2828  2.0193 -2.8453
 3427TIP3   OH210286   0.710   4.789   2.896 -0.2240  0.0174 -0.0475
 3427TIP3    H110287   0.791   4.751   2.863 -0.6642  0.1514 -1.3536
 3427TIP3    H210288   0.651   4.715   2.906 -0.3641  0.0810 -0.3992
 3428TIP3   OH210289   3.105   2.832   3.236 -0.0972  0.9060  0.2770
 3428TIP3    H110290   3.033   2.770   3.247 -1.0021  1.7048 -0.8198
 3428TIP3    H210291   3.160   2.820   3.314 -1.3782  0.2237  1.1100
 3429TIP3   OH210292   2.224   1.532   3.408 -0.3831 -0.4491 -0.6693
 3429TIP3    H110293   2.170   1.549   3.331  0.4517  1.3962 -0.9005
 3429TIP3    H210294   2.198   1.599   3.471  3.0370  1.9689 -1.5805
 3430TIP3   OH210295   5.547   0.443   3.138  0.2721 -0.0709 -0.2305
 3430TIP3    H110296   5.500   0.526   3.136  0.4276  0.0622  1.1676
 3430TIP3    H210297   5.480   0.377   3.153  0.3174 -0.0593  0.0216
 3431TIP3   OH210298   3.084   5.504   3.867  0.0308  0.6015 -0.1348
 3431TIP3    H110299   3.013   5.537   3.812 -0.5974  0.3599  0.5278
 3431TIP3    H210300   3.103   5.575   3.928 -1.4542 -0.2874  1.4190
 3432TIP3   OH210301   3.300   3.325   3.277  0.0437  0.8007  0.4332
 3432TIP3    H110302   3.213   3.345   3.243 -0.4188  0.8004  1.5946
 3432TIP3    H210303   3.294   3.235   3.308  0.6050  0.6370  0.0831
 3433TIP3   OH210304   1.541   3.424   3.248  0.1857 -0.2966 -0.6987
 3433TIP3    H110305   1.545   3.328   3.250  0.6599 -0.3461 -2.3640
 3433TIP3    H210306   1.500   3.444   3.164 -0.6868  0.9718 -0.0029
 3434TIP3   OH210307   2.149   3.375   1.307  0.7864  0.0790  0.4213
 3434TIP3    H110308   2.152   3.282   1.328 -0.6973 -0.2651 -0.7186
 3434TIP3    H210309   2.216   3.387   1.239 -0.7361 -0.7253 -1.3015
 3435TIP3   OH210310   4.407   1.471   3.874 -0.4031 -0.2572 -0.1084
 3435TIP3    H110311   4.331   1.507   3.919 -1.3882 -1.2584 -0.9161
 3435TIP3    H210312   4.387   1.378   3.865  0.8834 -0.5156 -0.4216
 3436TIP3   OH210313   1.621   1.144   0.491 -0.3066 -0.3774 -0.6175
 3436TIP3    H110314   1.584   1.172   0.408 -0.1727 -1.1972 -0.9680
 3436TIP3    H210315   1.547   1.147   0.553 -0.0976  1.5814 -0.4074
 3437TIP3   OH210316   2.445   2.760   2.016  0.6778 -0.1257 -0.4357
 3437TIP3    H110317   2.439   2.841   1.965 -0.1576  0.1020  0.0170
 3437TIP3    H210318   2.461   2.692   1.950 -1.5804 -0.0033 -1.1802
 3438TIP3   OH210319   0.147   1.237   4.673  0.0384 -0.1524  0.2241
 3438TIP3    H110320   0.192   1.288   4.606  1.7300 -1.8668 -0.0609
 3438TIP3    H210321   0.145   1.294   4.750  1.4272  0.5363 -0.2202
 3439TIP3   OH210322   6.261   4.810   2.900  0.4097 -0.0485 -0.0505
 3439TIP3    H110323   6.259   4.819   2.805 -1.2739 -0.6186 -0.1044
 3439TIP3    H210324   6.175   4.774   2.922  1.0482 -0.6291  1.6187
 3440TIP3   OH210325   1.839   4.290  -0.011 -0.4229  0.1292  0.6738
 3440TIP3    H110326   1.807   4.242   0.066 -0.4171  1.3171  1.4338
 3440TIP3    H210327   1.903   4.231  -0.051  0.3388 -0.0935  2.1680
 3441TIP3   OH210328   4.778   5.402   4.764 -0.3563 -0.4868  0.5395
 3441TIP3    H110329   4.767   5.446   4.680  1.7177  1.6966  1.2910
 3441TIP3    H210330   4.701   5.427   4.816 -0.6536 -0.2207 -0.0314
 3442TIP3   OH210331   4.784   2.730   2.499 -0.3052  0.7623 -0.3823
 3442TIP3    H110332   4.843   2.799   2.529 -0.4113  1.0046 -0.7312
 3442TIP3    H210333   4.829   2.691   2.424 -0.8733  1.3680 -1.0468
 3443TIP3   OH210334   1.870   0.602   3.921 -0.5420  0.2664  0.2849
 3443TIP3    H110335   1.838   0.516   3.946  1.1911 -0.3321  0.5733
 3443TIP3    H210336   1.867   0.602   3.826  0.3205 -0.5044  0.2366
 3444TIP3   OH210337   2.117   5.139   4.233  0.0626 -0.4889 -0.5214
 3444TIP3    H110338   2.197   5.127   4.284 -0.5976 -0.4326  0.5516
 3444TIP3    H210339   2.141   5.203   4.166  0.6958  0.1449  0.2908
 3445TIP3   OH210340   5.200   4.500   1.455  0.0113  0.4548  0.6469
 3445TIP3    H110341   5.234   4.563   1.519  0.4492  0.8550  0.0260
 3445TIP3    H210342   5.146   4.552   1.395  0.4457  0.2628  0.0809
 3446TIP3   OH210343   4.099   0.618   4.020 -0.3166  0.2844 -0.2971
 3446TIP3    H110344   4.139   0.594   3.936 -1.2441  1.2222 -1.0345
 3446TIP3    H210345   4.173   0.643   4.075  0.2481  0.4679 -1.1109
 3447TIP3   OH210346   0.952   4.130   3.574  0.3162 -0.5064 -0.0077
 3447TIP3    H110347   1.030   4.165   3.617  1.0891 -1.3225 -0.7137
 3447TIP3    H210348   0.974   4.038   3.556 -0.9444 -0.8449  0.0929
 3448TIP3   OH210349   0.872   4.102   4.277 -0.1512 -1.0533  0.2844
 3448TIP3    H110350   0.908   4.103   4.366  1.3730  2.9387 -0.1576
 3448TIP3    H210351   0.941   4.061   4.225 -0.2151 -1.6694  0.6728
 3449TIP3   OH210352   0.170   5.333   0.477  0.4935  0.2810 -0.2477
 3449TIP3    H110353   0.219   5.340   0.560 -0.2220  1.8736  0.0842
 3449TIP3    H210354   0.194   5.247   0.442 -0.1221 -0.9919  2.2176
 3450TIP3   OH210355   2.091   5.620   1.779  0.5111  0.7431 -0.7736
 3450TIP3    H110356   2.039   5.540   1.782 -0.3079  1.2888  0.2300
 3450TIP3    H210357   2.094   5.643   1.686 -1.3074  0.8413 -0.8487
 3451TIP3   OH210358   1.330   4.388   1.558 -0.4602  0.1406  0.2928
 3451TIP3    H110359   1.375   4.460   1.514 -0.8496  0.0570 -0.2544
 3451TIP3    H210360   1.237   4.408   1.546 -0.5722  0.1164  1.0815
 3452TIP3   OH210361   0.239   3.679   0.109  0.5679  0.2494 -0.0945
 3452TIP3    H110362   0.168   3.631   0.152 -2.1977  2.8859 -1.2358
 3452TIP3    H210363   0.212   3.684   0.017  1.9934  1.7720 -0.4835
 3453TIP3   OH210364   2.793   4.203   0.517  0.1871  0.0198  0.0023
 3453TIP3    H110365   2.855   4.240   0.581  1.1652 -2.2154  0.4653
 3453TIP3    H210366   2.806   4.109   0.524 -2.2896 -0.4738 -0.9492
 3454TIP3   OH210367   2.979   4.879   4.144 -0.4422  0.0201 -0.3249
 3454TIP3    H110368   2.994   4.972   4.131  0.1978  0.0945  0.8230
 3454TIP3    H210369   2.928   4.852   4.068 -0.2840  1.2158 -0.8755
 3455TIP3   OH210370   3.909   4.216   0.225  0.1458 -0.3460  0.3225
 3455TIP3    H110371   3.866   4.225   0.140  2.1796 -0.7447 -0.8254
 3455TIP3    H210372   3.900   4.124   0.247 -0.6927 -0.1732  0.7351
 3456TIP3   OH210373   5.061   3.740   2.214 -0.8612  0.2479 -0.3705
 3456TIP3    H110374   5.062   3.833   2.192  2.2812  0.0175 -1.7836
 3456TIP3    H210375   5.061   3.695   2.129  0.6229 -0.9426  0.2087
 3457TIP3   OH210376   3.060   5.222   3.790  0.0235 -0.2664  0.5997
 3457TIP3    H110377   2.972   5.189   3.772  0.0755 -0.2568  0.3255
 3457TIP3    H210378   3.047   5.315   3.809  0.2090  0.2412 -1.5556
 3458TIP3   OH210379   6.090   3.749   2.063  0.6848  0.0561 -0.2235
 3458TIP3    H110380   6.044   3.798   1.995 -0.1055  1.3497  1.1777
 3458TIP3    H210381   6.161   3.705   2.017 -0.7416 -0.3849 -2.1207
 3459TIP3   OH210382   3.742   5.897   3.074  0.3237  0.1993 -0.5068
 3459TIP3    H110383   3.723   5.804   3.087  1.9798 -0.2786 -1.3500
 3459TIP3    H210384   3.659   5.934   3.043 -0.2196 -1.0829 -0.6232
 3460TIP3   OH210385   6.146   3.499   1.696  0.1587  0.2112  0.0068
 3460TIP3    H110386   6.233   3.462   1.683  0.0737 -0.4729  1.1807
 3460TIP3    H210387   6.101   3.435   1.751 -0.4508  1.4092  0.9642
 3461TIP3   OH210388   5.950   5.740   3.916 -0.2291 -0.4710 -0.0566
 3461TIP3    H110389   5.961   5.720   4.009 -2.2769 -0.0118  0.3524
 3461TIP3    H210390   5.879   5.805   3.914  0.1512 -0.0467 -1.9145
 3462TIP3   OH210391   1.868   0.831   0.182  0.2870 -0.4122 -0.1282
 3462TIP3    H110392   1.875   0.926   0.184 -0.4823 -0.3515 -0.3018
 3462TIP3    H210393   1.783   0.812   0.222  0.6718 -1.0559  0.4096
 3463TIP3   OH210394   4.395   0.765   0.422 -0.1218  0.0302 -0.0537
 3463TIP3    H110395   4.447   0.685   0.421  0.2588  0.2575  0.6053
 3463TIP3    H210396   4.321   0.744   0.480  0.6783  0.5593  1.2068
 3464TIP3   OH210397   1.885   5.380   1.265 -0.0394 -0.1419  0.4071
 3464TIP3    H110398   1.888   5.312   1.198  0.7884  0.6772 -0.4184
 3464TIP3    H210399   1.800   5.423   1.251  1.0447  1.5181 -1.7099
 3465TIP3   OH210400   1.313   1.588   1.531 -0.1558 -0.7586 -0.3230
 3465TIP3    H110401   1.357   1.517   1.578 -2.0568 -2.3522 -0.8170
 3465TIP3    H210402   1.262   1.633   1.598  1.2058  0.3204  0.0275
 3466TIP3   OH210403   1.707   4.895   0.637  0.2778  0.4562  0.2736
 3466TIP3    H110404   1.737   4.837   0.567 -2.4094 -0.0201 -0.5640
 3466TIP3    H210405   1.786   4.944   0.662  2.0925 -1.7993 -0.6483
 3467TIP3   OH210406   0.108   3.342   3.146 -0.7989 -0.1002 -0.2285
 3467TIP3    H110407   0.062   3.331   3.229 -1.2661 -2.1223 -0.7121
 3467TIP3    H210408   0.101   3.436   3.128  1.8545  1.0001  3.3812
 3468TIP3   OH210409   3.360   1.443   0.078 -0.3313  0.3782  0.6141
 3468TIP3    H110410   3.266   1.461   0.075 -0.1152  1.4849  0.0344
 3468TIP3    H210411   3.365   1.347   0.085 -1.4874  0.0393 -1.9035
 3469TIP3   OH210412   3.362   0.181   3.518  0.0532 -0.3934  0.3065
 3469TIP3    H110413   3.340   0.169   3.610  0.0897 -0.3911  0.3151
 3469TIP3    H210414   3.456   0.199   3.517  0.3251 -1.7460  0.1624
 3470TIP3   OH210415   5.158   5.208   1.510  0.1316 -0.0073 -0.0987
 3470TIP3    H110416   5.123   5.276   1.451  0.9182 -0.5331 -1.2195
 3470TIP3    H210417   5.253   5.212   1.495  0.3017 -0.4295  0.8577
 3471TIP3   OH210418   2.278   4.676   1.348 -0.1884 -0.2927  0.6154
 3471TIP3    H110419   2.204   4.668   1.408  0.5195 -0.1945  1.5145
 3471TIP3    H210420   2.354   4.650   1.399  0.4190 -0.3244 -0.2760
 3472TIP3   OH210421   1.003   3.226   4.906 -0.4261  0.2963 -0.0200
 3472TIP3    H110422   1.044   3.140   4.900 -1.0228 -0.0371  0.5878
 3472TIP3    H210423   1.044   3.277   4.836 -1.8094 -1.2020 -2.0528
 3473TIP3   OH210424   4.922   4.447   3.768  0.0591 -0.4854  0.4898
 3473TIP3    H110425   4.943   4.502   3.844  0.7505 -1.2828  0.8989
 3473TIP3    H210426   4.942   4.502   3.692 -1.7843  0.7517  0.8485
 3474TIP3   OH210427   3.052   5.150   4.080  0.6420  0.1391 -0.0798
 3474TIP3    H110428   3.126   5.199   4.116  1.6472 -0.7356 -0.8784
 3474TIP3    H210429   3.056   5.167   3.986  1.0795 -1.5173 -0.3887
 3475TIP3   OH210430   3.919   3.238   2.794  0.4998 -0.5671  0.4199
 3475TIP3    H110431   3.866   3.252   2.873 -1.2567 -0.3739 -0.7275
 3475TIP3    H210432   3.887   3.304   2.732  1.4526 -1.0764 -0.6516
 3476TIP3   OH210433   3.395   4.671   1.761 -0.5961 -0.4246 -0.1696
 3476TIP3    H110434   3.383   4.610   1.689  0.6816 -1.2344  0.2845
 3476TIP3    H210435   3.329   4.644   1.826 -0.2789 -1.0935 -0.1202
 3477TIP3   OH210436   5.177   0.351   0.226 -0.0428 -0.0089  0.0375
 3477TIP3    H110437   5.240   0.416   0.257  1.9747 -2.2869  1.1667
 3477TIP3    H210438   5.194   0.343   0.132  0.0836  0.6810  0.0015
 3478TIP3   OH210439   0.460   5.541   4.873 -0.2216  0.2487  0.0304
 3478TIP3    H110440   0.429   5.535   4.783 -1.2492  0.1444  0.3789
 3478TIP3    H210441   0.412   5.473   4.920  2.2670 -1.5459  0.1681
 3479TIP3   OH210442   2.663   1.071   0.046  0.2155 -0.7974 -0.3100
 3479TIP3    H110443   2.617   1.154   0.057  0.1803 -0.5547 -1.9839
 3479TIP3    H210444   2.595   1.004   0.052  0.4573 -0.8826  2.6264
 3480TIP3   OH210445   4.291   2.345   0.555 -0.4076 -0.0587  0.1804
 3480TIP3    H110446   4.210   2.316   0.595 -0.0096 -0.1893  0.9027
 3480TIP3    H210447   4.360   2.314   0.613  0.0942  1.3300  0.3709
 3481TIP3   OH210448   0.569   3.803   1.460  0.3995 -0.1798  0.0800
 3481TIP3    H110449   0.588   3.781   1.369 -1.8351 -1.1669 -0.2069
 3481TIP3    H210450   0.580   3.721   1.508 -1.0432 -0.3280  0.2089
 3482TIP3   OH210451   3.884   0.082   1.267  0.0721 -0.1552  0.0721
 3482TIP3    H110452   3.922   0.007   1.311 -0.1065  0.8533  2.0315
 3482TIP3    H210453   3.792   0.059   1.255  0.6014 -1.4521 -2.1647
 3483TIP3   OH210454   5.353   3.484   4.953 -0.0137  0.1024  0.4797
 3483TIP3    H110455   5.421   3.531   4.904  0.6026 -0.4328  0.8044
 3483TIP3    H210456   5.291   3.455   4.886  1.3371 -1.4890 -0.1490
 3484TIP3   OH210457   0.233   0.256   2.738  0.2662  0.2199 -0.3917
 3484TIP3    H110458   0.320   0.267   2.776  0.8803 -1.8823 -1.0715
 3484TIP3    H210459   0.176   0.238   2.813  0.9088 -0.9459 -0.1663
 3485TIP3   OH210460   3.030   0.397   0.991 -0.0600 -0.4080  0.1466
 3485TIP3    H110461   3.098   0.452   1.029  0.5039 -2.7545  2.8429
 3485TIP3    H210462   3.060   0.307   1.006 -1.9716 -1.5254 -2.0626
 3486TIP3   OH210463   4.826   3.768   3.275 -0.3823  0.3534 -0.1561
 3486TIP3    H110464   4.801   3.856   3.249  1.5626  0.2272 -2.8468
 3486TIP3    H210465   4.762   3.711   3.233  1.1233  0.3179 -2.6015
 3487TIP3   OH210466   1.293   1.694   1.139 -0.0263 -0.0120 -0.2109
 3487TIP3    H110467   1.381   1.723   1.164  0.6105 -2.8457  1.1469
 3487TIP3    H210468   1.297   1.684   1.043  0.7208  1.0303 -0.3054
 3488TIP3   OH210469   5.349   4.986   4.052 -0.4144 -0.3451  0.0914
 3488TIP3    H110470   5.352   5.017   4.143  0.0454  0.5261 -0.2042
 3488TIP3    H210471   5.395   5.054   4.002 -0.9089 -0.6669 -0.8351
 3489TIP3   OH210472   4.481   5.628   4.370 -0.3562 -0.5054 -0.2836
 3489TIP3    H110473   4.433   5.553   4.336  0.5626 -1.0747 -0.3438
 3489TIP3    H210474   4.531   5.661   4.295  0.5986 -0.9133  0.1639
 3490TIP3   OH210475   5.308   3.424   1.319 -0.8662 -0.0167 -0.0514
 3490TIP3    H110476   5.257   3.466   1.250  1.1396  0.2976 -1.4255
 3490TIP3    H210477   5.272   3.459   1.401  0.0151  3.6343 -1.0724
 3491TIP3   OH210478   3.253   0.908   2.777 -0.2926 -0.3115 -0.3139
 3491TIP3    H110479   3.217   0.841   2.719 -1.6146  0.0280  0.0629
 3491TIP3    H210480   3.177   0.962   2.800  0.1797 -0.4700  1.7623
 3492TIP3   OH210481   0.154   1.412   4.912  0.6565  0.3391  0.3701
 3492TIP3    H110482   0.125   1.480   4.973  0.2380 -0.4465  1.0732
 3492TIP3    H210483   0.249   1.417   4.915  0.6518  0.0947  1.3596
 3493TIP3   OH210484   1.920   4.729   2.823  0.3585  0.2763  0.2055
 3493TIP3    H110485   1.923   4.637   2.797 -1.5765  0.1349  0.3476
 3493TIP3    H210486   2.004   4.744   2.868  1.3724 -0.9545 -1.1774
 3494TIP3   OH210487   0.449   1.113   0.949 -0.4112  0.4247  0.0643
 3494TIP3    H110488   0.499   1.175   1.003 -1.0116 -0.9094  2.3116
 3494TIP3    H210489   0.516   1.069   0.895  0.3469  1.2016  0.3419
 3495TIP3   OH210490   5.125   4.935   2.904  0.2512 -0.2822 -0.4030
 3495TIP3    H110491   5.046   4.980   2.874  0.0192 -0.1415  0.4126
 3495TIP3    H210492   5.197   4.987   2.867 -0.0308 -0.2539 -0.9212
 3496TIP3   OH210493   0.115   5.541   3.395  0.0448  0.0404 -0.2513
 3496TIP3    H110494   0.076   5.628   3.387  0.4368  0.5076  2.1366
 3496TIP3    H210495   0.208   5.554   3.374 -0.5088 -0.6000 -3.5444
 3497TIP3   OH210496   0.383   2.976   1.952  0.3339  0.1795 -0.3529
 3497TIP3    H110497   0.446   2.950   1.885 -0.6521 -1.4320 -0.7200
 3497TIP3    H210498   0.332   2.896   1.969  0.3980  0.5757  2.1523
 3498TIP3   OH210499   3.249   5.147   0.054 -0.5383  0.1411  0.1785
 3498TIP3    H110500   3.298   5.073   0.018 -1.6509  0.5541 -2.3891
 3498TIP3    H210501   3.276   5.151   0.146  0.7297 -2.4582  0.0144
 3499TIP3   OH210502   5.314   0.781   4.388  0.3369 -0.0015 -0.2110
 3499TIP3    H110503   5.323   0.809   4.479 -1.1803  0.1855 -0.1011
 3499TIP3    H210504   5.306   0.686   4.392 -0.7677  0.0904 -0.0486
 3500TIP3   OH210505   3.534   5.516   3.703 -0.1922 -0.1361  0.3706
 3500TIP3    H110506   3.466   5.574   3.737 -1.2905 -0.6958 -0.7893
 3500TIP3    H210507   3.512   5.429   3.737 -0.1899 -0.3566 -0.1687
 3501TIP3   OH210508   3.692   3.184   1.665 -0.3806  0.7141  0.5238
 3501TIP3    H110509   3.778   3.143   1.663 -1.1023 -0.9251  1.5439
 3501TIP3    H210510   3.683   3.225   1.579  1.1826  0.4538  0.2093
 3502TIP3   OH210511   4.204   4.223   1.881  0.0490 -0.1523  0.1421
 3502TIP3    H110512   4.137   4.290   1.888 -1.0355 -1.1978  0.0036
 3502TIP3    H210513   4.227   4.221   1.788  1.9918  1.7781  0.4734
 3503TIP3   OH210514   1.585   1.583   3.315 -0.6179  0.4989 -0.1004
 3503TIP3    H110515   1.609   1.596   3.223  1.5957  1.8216  0.5683
 3503TIP3    H210516   1.578   1.488   3.325  0.4185  0.2607 -1.3523
 3504TIP3   OH210517   1.174   0.917   2.158 -0.1680  0.0075 -0.4045
 3504TIP3    H110518   1.082   0.913   2.133 -0.3587  2.2596 -0.2762
 3504TIP3    H210519   1.209   0.992   2.110  1.3700 -0.2411  0.2585
 3505TIP3   OH210520   4.989   2.300   4.052  0.2287  0.5060 -0.5345
 3505TIP3    H110521   4.979   2.264   4.140  0.9859  1.9056  0.1624
 3505TIP3    H210522   4.965   2.228   3.993 -2.5580  0.2211  0.7918
 3506TIP3   OH210523   6.182   5.675   2.185  0.3639  0.3188  0.2190
 3506TIP3    H110524   6.277   5.658   2.182  0.7923  2.5123 -1.8339
 3506TIP3    H210525   6.152   5.657   2.096 -1.5305 -1.8635  1.2246
 3507TIP3   OH210526   5.311   3.994   2.112 -0.1266  0.3456 -0.5578
 3507TIP3    H110527   5.316   3.931   2.040 -1.0617 -0.7059  0.2483
 3507TIP3    H210528   5.401   4.005   2.141 -0.0764 -1.9327  0.3418
 3508TIP3   OH210529   4.036   1.049   0.856 -0.0178 -0.1131  0.9848
 3508TIP3    H110530   4.120   1.061   0.811  0.8003  1.3298  2.7878
 3508TIP3    H210531   4.006   0.963   0.827  0.9530  0.2794 -1.4663
 3509TIP3   OH210532   5.981   2.153   3.392 -0.3936  0.0729 -0.0918
 3509TIP3    H110533   6.063   2.107   3.411  1.6029  1.7381 -3.6520
 3509TIP3    H210534   5.991   2.239   3.432 -0.5461  0.1604 -0.2367
 3510TIP3   OH210535   0.096   0.189   4.924  0.1375 -0.3469 -0.2876
 3510TIP3    H110536   0.145   0.239   4.860  0.6974 -0.7676 -0.1892
 3510TIP3    H210537   0.008   0.227   4.921  0.0536 -0.5907 -1.5547
 3511TIP3   OH210538   4.890   0.604   3.235 -0.2557 -1.1465  0.0311
 3511TIP3    H110539   4.962   0.593   3.297 -0.7074  0.2371  0.8301
 3511TIP3    H210540   4.815   0.626   3.289 -1.3345 -2.6633 -0.7837
 3512TIP3   OH210541   5.805   1.384   4.021 -0.0220 -0.5236  0.0253
 3512TIP3    H110542   5.856   1.402   3.941 -0.2097 -0.1496 -0.0131
 3512TIP3    H210543   5.751   1.462   4.032  1.4039  0.3083  1.6031
 3513TIP3   OH210544   3.326   3.881   4.490 -0.4224  0.1425  0.2986
 3513TIP3    H110545   3.240   3.869   4.450 -0.0044  1.8364 -1.2414
 3513TIP3    H210546   3.324   3.971   4.524  0.1031 -0.4385  1.9677
 3514TIP3   OH210547   2.401   0.354   4.144 -0.0354  0.4114  0.0337
 3514TIP3    H110548   2.352   0.315   4.071  0.5242 -0.8126  0.2750
 3514TIP3    H210549   2.468   0.408   4.101  1.6975 -1.9795 -0.5250
 3515TIP3   OH210550   1.650   4.218   3.953 -0.0325  0.1300  0.1913
 3515TIP3    H110551   1.689   4.188   3.871  0.2631  1.2090 -0.0837
 3515TIP3    H210552   1.576   4.273   3.926 -0.6464 -0.4467  0.6761
 3516TIP3   OH210553   4.657   3.208   4.201  0.9323 -0.0016  0.7070
 3516TIP3    H110554   4.686   3.186   4.289  2.9494 -1.8007 -0.3273
 3516TIP3    H210555   4.565   3.233   4.212 -0.1569 -4.0538  2.8500
 3517TIP3   OH210556   1.050   1.751   2.175 -0.3796  0.4009  0.0888
 3517TIP3    H110557   1.052   1.756   2.079  2.2649 -0.5204  0.0047
 3517TIP3    H210558   1.131   1.705   2.198 -0.8178  0.8234  2.8064
 3518TIP3   OH210559   3.216   0.395   1.412  0.0776 -0.4896  0.0072
 3518TIP3    H110560   3.291   0.390   1.353  0.0686 -2.9881  0.1127
 3518TIP3    H210561   3.149   0.340   1.370 -2.5964  3.2303 -1.1578
 3519TIP3   OH210562   3.423   2.656   4.506  0.4722  0.0500 -0.6212
 3519TIP3    H110563   3.411   2.710   4.584  2.1638 -1.7152  0.9479
 3519TIP3    H210564   3.366   2.581   4.519  0.5369 -0.1171 -1.2551
 3520TIP3   OH210565   2.012   2.498   0.085 -0.2687  0.1462 -0.6051
 3520TIP3    H110566   2.065   2.428   0.124 -0.7843  0.2041  0.2161
 3520TIP3    H210567   1.922   2.476   0.108 -0.5461  0.4347 -1.3820
 3521TIP3   OH210568   2.458   0.108   4.268 -0.8893 -0.0114 -0.2202
 3521TIP3    H110569   2.497   0.195   4.259 -0.2560 -0.4688 -2.4368
 3521TIP3    H210570   2.413   0.093   4.185 -0.4031 -2.0516 -0.1693
 3522TIP3   OH210571   3.924   5.681   0.991  0.5177  0.0542 -0.2897
 3522TIP3    H110572   4.008   5.697   0.948 -0.0841 -1.0207 -1.9539
 3522TIP3    H210573   3.879   5.766   0.988  0.7832  0.1689 -1.1173
 3523TIP3   OH210574   0.985   4.584   3.019  0.1207 -0.6502 -0.0231
 3523TIP3    H110575   1.001   4.614   2.929 -0.6123  0.1746  0.0968
 3523TIP3    H210576   1.056   4.622   3.070  0.1919 -0.5908 -0.1651
 3524TIP3   OH210577   5.124   5.152   3.777 -0.0343 -0.3838  0.6309
 3524TIP3    H110578   5.124   5.079   3.839  0.1315  0.2768  1.4216
 3524TIP3    H210579   5.031   5.169   3.761 -0.0720 -0.8903  0.2876
 3525TIP3   OH210580   4.597   2.127   5.065 -0.1585 -0.4331  0.1443
 3525TIP3    H110581   4.580   2.034   5.078  2.1527 -0.9852 -0.4697
 3525TIP3    H210582   4.690   2.138   5.082 -0.2743  1.6910 -0.2797
 3526TIP3   OH210583   2.546   4.424   3.375  0.1445 -0.1638 -0.1292
 3526TIP3    H110584   2.458   4.409   3.340  0.0457 -0.9323  0.4230
 3526TIP3    H210585   2.595   4.346   3.350  0.8231  0.4810 -0.8693
 3527TIP3   OH210586   2.156   5.165   3.758 -0.3725 -0.2600 -0.0134
 3527TIP3    H110587   2.164   5.187   3.850 -0.1809  1.5226 -0.4073
 3527TIP3    H210588   2.094   5.093   3.755 -0.9840  0.1819  1.4496
 3528TIP3   OH210589   4.725   3.373   3.483 -0.1267 -0.3204  0.9410
 3528TIP3    H110590   4.679   3.313   3.424  0.9343 -0.7843  0.5410
 3528TIP3    H210591   4.676   3.368   3.565 -2.5706  1.5279 -0.2912
 3529TIP3   OH210592   5.969   5.732   5.101  0.5002 -0.6417 -0.3380
 3529TIP3    H110593   5.992   5.641   5.122  2.5738  0.2380  1.5274
 3529TIP3    H210594   5.911   5.759   5.173 -0.7269 -0.6459 -1.2778
 3530TIP3   OH210595   6.127   1.741   4.500 -0.1398 -0.1591 -0.0651
 3530TIP3    H110596   6.176   1.796   4.562  1.0502  1.9515 -2.6472
 3530TIP3    H210597   6.043   1.786   4.490  0.2280  0.3353 -1.0138
 3531TIP3   OH210598   0.385   0.165   3.999  0.1557  0.2957  0.0347
 3531TIP3    H110599   0.423   0.099   3.941  1.4629  0.9162  0.1406
 3531TIP3    H210600   0.461   0.207   4.040 -0.5746  2.4242 -0.6566
 3532TIP3   OH210601   3.432   0.323   1.270  0.0498  0.0500 -0.4352
 3532TIP3    H110602   3.448   0.247   1.326 -0.1917 -0.8447 -1.5430
 3532TIP3    H210603   3.486   0.307   1.192  0.8621  1.5706 -0.2159
 3533TIP3   OH210604   1.216   2.184   4.853 -0.4582  0.2770 -0.2159
 3533TIP3    H110605   1.302   2.148   4.874  0.8218  4.3662  2.8187
 3533TIP3    H210606   1.207   2.173   4.759  1.6181 -3.5409 -0.1823
 3534TIP3   OH210607   5.793   4.121   3.793  0.1927 -0.1470  0.1086
 3534TIP3    H110608   5.764   4.047   3.847  1.6443  0.1943  1.4506
 3534TIP3    H210609   5.758   4.198   3.838 -0.3070  0.0626 -0.6168
 3535TIP3   OH210610   3.493   3.660   4.576 -0.3694 -0.0871 -0.0059
 3535TIP3    H110611   3.519   3.699   4.659  0.3349 -2.1155  0.7983
 3535TIP3    H210612   3.456   3.732   4.525  2.4856  2.0022  0.6388
 3536TIP3   OH210613   0.363   1.057   3.923  0.0236 -0.2953 -0.3841
 3536TIP3    H110614   0.399   1.127   3.977 -1.6173  0.0680  0.2806
 3536TIP3    H210615   0.317   1.103   3.852 -0.5753 -0.7115 -0.2670
 3537TIP3   OH210616   6.024   0.603   0.201  0.3253  0.1469 -0.2069
 3537TIP3    H110617   6.043   0.512   0.178  1.5595  0.2207  0.4239
 3537TIP3    H210618   6.110   0.645   0.204 -0.0578  0.8802  1.3436
 3538TIP3   OH210619   5.806   1.138   4.144  0.0715 -0.1989  0.5351
 3538TIP3    H110620   5.838   1.175   4.227 -0.1823 -0.6022  0.8183
 3538TIP3    H210621   5.801   1.212   4.085  3.3544 -0.3150 -0.1232
 3539TIP3   OH210622   3.021   2.524   3.133  0.0215  0.4047  0.3600
 3539TIP3    H110623   2.961   2.555   3.201  0.8775  0.1457  1.2524
 3539TIP3    H210624   3.059   2.444   3.168  2.4139  1.6071  0.7375
 3540TIP3   OH210625   3.873   1.440   2.580  0.3001  0.4974 -0.0824
 3540TIP3    H110626   3.888   1.485   2.663 -0.3204  2.1055 -0.7959
 3540TIP3    H210627   3.779   1.445   2.566  0.0369 -1.9929  0.2754
 3541TIP3   OH210628   4.773   2.555   3.512 -0.2411  0.0318  0.0412
 3541TIP3    H110629   4.735   2.547   3.425  1.8151  1.4330 -1.0754
 3541TIP3    H210630   4.756   2.646   3.537  1.5358  0.4535 -0.1435
 3542TIP3   OH210631   0.253   2.577   2.254  0.1425 -0.0455  0.5049
 3542TIP3    H110632   0.301   2.605   2.331  3.5205  0.2058 -1.5000
 3542TIP3    H210633   0.206   2.656   2.225  0.4109  0.3864  1.2256
 3543TIP3   OH210634   0.594   0.759   1.649  0.3604  0.1866  0.3007
 3543TIP3    H110635   0.530   0.800   1.706  0.1341 -1.3518  1.2081
 3543TIP3    H210636   0.544   0.730   1.573  0.4480  1.1719 -0.1475
 3544TIP3   OH210637   2.841   2.497   0.033  0.4348 -0.1013  0.2832
 3544TIP3    H110638   2.884   2.490  -0.052  0.3306 -2.5785  0.3479
 3544TIP3    H210639   2.773   2.563   0.020  1.2467  0.4936 -1.1697
 3545TIP3   OH210640   1.125   1.490   4.207  0.5283  0.1450 -0.0021
 3545TIP3    H110641   1.076   1.511   4.287  1.1923  1.8518  0.0062
 3545TIP3    H210642   1.137   1.395   4.210 -2.4379 -0.3068  0.1536
 3546TIP3   OH210643   2.386   1.398   1.339  0.0235 -0.0245 -0.8765
 3546TIP3    H110644   2.455   1.332   1.335 -0.5184 -0.5877 -1.2200
 3546TIP3    H210645   2.386   1.438   1.251 -0.9157 -0.9098 -1.3002
 3547TIP3   OH210646   2.619   1.310   0.890  0.1449  0.3926  0.4045
 3547TIP3    H110647   2.623   1.238   0.953  1.0498 -0.5068 -0.6444
 3547TIP3    H210648   2.526   1.321   0.873 -0.0527 -0.0165  1.1481
 3548TIP3   OH210649   4.996   5.586   4.306  0.2618 -0.2452  0.1829
 3548TIP3    H110650   5.082   5.552   4.280 -0.1697 -1.0739 -0.2046
 3548TIP3    H210651   4.980   5.547   4.392  1.0870  1.4030  1.1037
 3549TIP3   OH210652   1.032   1.875   3.066 -0.0928 -0.7193 -0.3215
 3549TIP3    H110653   1.081   1.800   3.033  1.4367  0.0408  0.1239
 3549TIP3    H210654   1.040   1.869   3.161  0.5166  0.2899 -0.2968
 3550TIP3   OH210655   5.443   2.619   5.095 -0.0573 -0.2512 -0.8889
 3550TIP3    H110656   5.487   2.647   5.175  1.0924 -0.5780 -1.3911
 3550TIP3    H210657   5.477   2.531   5.078 -1.6833 -0.9551 -0.7435
 3551TIP3   OH210658   4.054   3.370   1.207  0.3291 -0.3037 -0.3039
 3551TIP3    H110659   4.133   3.412   1.242  0.4206 -1.4734  1.0052
 3551TIP3    H210660   3.982   3.424   1.240  0.2519 -2.4699  3.7651
 3552TIP3   OH210661   2.684   4.760   0.459  0.3627 -0.2186 -0.4495
 3552TIP3    H110662   2.620   4.810   0.509  1.0480  0.1856  0.0413
 3552TIP3    H210663   2.647   4.754   0.371 -0.8438 -0.9250  0.0940
 3553TIP3   OH210664   4.158   2.004   3.188 -0.0010 -0.7318 -0.0322
 3553TIP3    H110665   4.246   2.028   3.161 -0.5911  1.3086 -0.2734
 3553TIP3    H210666   4.103   2.025   3.113 -0.8235 -1.1277  0.4411
 3554TIP3   OH210667   3.368   2.386   2.823  0.0123 -0.3989  0.3820
 3554TIP3    H110668   3.456   2.423   2.833 -0.5891  1.0176  0.5455
 3554TIP3    H210669   3.311   2.447   2.869 -1.3421 -0.1060 -1.5934
 3555TIP3   OH210670   0.423   3.666   3.971 -0.0623 -0.0326 -0.1686
 3555TIP3    H110671   0.516   3.644   3.977  0.6375  2.5946 -0.0095
 3555TIP3    H210672   0.393   3.620   3.892  1.5377 -0.4554 -0.5750
 3556TIP3   OH210673   4.647   0.610   4.078  0.0829  0.3090  0.2146
 3556TIP3    H110674   4.667   0.688   4.130 -0.3698 -0.1606  1.1112
 3556TIP3    H210675   4.724   0.555   4.086  0.4818  0.7386 -0.5789
 3557TIP3   OH210676   2.623   2.678   1.174 -0.1244  0.2888 -0.3259
 3557TIP3    H110677   2.660   2.730   1.103  2.8796 -2.6450 -1.1456
 3557TIP3    H210678   2.690   2.679   1.242 -0.2637 -1.8091 -0.0925
 3558TIP3   OH210679   1.431   1.926   0.066 -0.0078 -0.0456 -0.1053
 3558TIP3    H110680   1.483   1.893  -0.008 -0.9173 -0.0192 -0.7662
 3558TIP3    H210681   1.479   1.897   0.143  0.5863 -0.6874 -0.7005
 3559TIP3   OH210682   5.556   5.890   0.714 -0.3535  0.2661  0.5555
 3559TIP3    H110683   5.637   5.839   0.712  0.9628  2.0985  2.4231
 3559TIP3    H210684   5.532   5.892   0.807 -1.4472  1.3721  0.2737
 3560TIP3   OH210685   3.833   4.067   3.678 -0.1570  0.0511 -0.2068
 3560TIP3    H110686   3.746   4.057   3.715 -0.2383  0.7359 -0.2026
 3560TIP3    H210687   3.865   3.977   3.666 -0.8746 -0.2021 -0.2535
 3561TIP3   OH210688   1.418   2.186   2.554  0.4496 -0.2373  0.2530
 3561TIP3    H110689   1.329   2.189   2.589  1.0715 -1.0462  2.0367
 3561TIP3    H210690   1.459   2.268   2.584  0.0607  0.5930 -1.3817
 3562TIP3   OH210691   0.895   2.005   1.897 -0.0974 -0.2194  0.1525
 3562TIP3    H110692   0.813   2.017   1.851 -2.0002 -2.0163  2.7702
 3562TIP3    H210693   0.920   1.914   1.878  0.8865  0.0622  0.0287
 3563TIP3   OH210694   5.583   0.330   0.266 -0.2669 -0.2119  0.1829
 3563TIP3    H110695   5.571   0.377   0.184  0.6958 -0.0945  0.0935
 3563TIP3    H210696   5.574   0.238   0.242 -0.5139 -0.1518  0.0438
 3564TIP3   OH210697   2.030   5.972   0.192 -0.4534  0.2254  0.5892
 3564TIP3    H110698   1.993   5.903   0.137 -0.8657  0.0248  1.1102
 3564TIP3    H210699   2.125   5.962   0.183 -0.5053 -0.4980  0.7686
 3565TIP3   OH210700   0.462   1.631   2.872 -0.0545  0.0263 -0.6776
 3565TIP3    H110701   0.474   1.546   2.831 -1.0699 -0.3736 -0.1986
 3565TIP3    H210702   0.550   1.662   2.892  0.3272 -0.8576 -0.9649
 3566TIP3   OH210703   5.323   3.055   4.589  0.1791 -0.2647 -0.0011
 3566TIP3    H110704   5.343   3.043   4.681 -1.7324 -0.5786  0.4081
 3566TIP3    H210705   5.302   3.149   4.581 -1.8914 -0.6471  0.4002
 3567TIP3   OH210706   4.321   1.967   3.900  0.4382  0.6928 -0.3221
 3567TIP3    H110707   4.241   1.924   3.869 -0.0495  0.2411  1.4633
 3567TIP3    H210708   4.389   1.900   3.892 -0.0252  0.0257  1.0908
 3568TIP3   OH210709   2.409   2.765   2.656  0.0991 -0.0137  0.2873
 3568TIP3    H110710   2.334   2.737   2.604  1.2741  0.2344 -1.6586
 3568TIP3    H210711   2.437   2.847   2.615  0.4365  0.7921  2.0334
 3569TIP3   OH210712   2.942   5.086   2.084 -0.2939  0.1659 -0.4514
 3569TIP3    H110713   2.973   5.061   1.997  0.4074 -0.5538 -0.0109
 3569TIP3    H210714   2.893   5.010   2.114  3.1859 -1.5598  1.5573
 3570TIP3   OH210715   4.739   0.956   3.447 -0.1633 -0.2977  0.6340
 3570TIP3    H110716   4.687   0.897   3.502 -0.6556 -1.0059 -0.5696
 3570TIP3    H210717   4.787   0.898   3.389  1.2979  0.3953  1.1098
 3571TIP3   OH210718   5.664   4.454   1.228  0.0099  0.0152 -0.2543
 3571TIP3    H110719   5.691   4.546   1.229  0.6866  0.0083 -3.7005
 3571TIP3    H210720   5.730   4.409   1.281  0.2098  1.3722  0.7021
 3572TIP3   OH210721   1.521   4.755   1.844  0.0264 -0.1192 -0.1927
 3572TIP3    H110722   1.581   4.733   1.773  1.2023  0.0289  0.7139
 3572TIP3    H210723   1.485   4.670   1.871  0.5848 -0.3415 -0.1165
 3573TIP3   OH210724   6.227   1.442   0.096 -0.2161  0.1515  0.3165
 3573TIP3    H110725   6.176   1.477   0.023 -1.2637  0.4411  1.1600
 3573TIP3    H210726   6.189   1.356   0.113  0.2502 -0.0596  0.3072
 3574TIP3   OH210727   0.979   0.580   3.823  0.4589 -0.3062 -0.3681
 3574TIP3    H110728   0.964   0.606   3.732 -0.6877  1.1771  0.1878
 3574TIP3    H210729   1.057   0.628   3.849  1.1733 -1.2474 -0.7496
 3575TIP3   OH210730   3.973   4.799   4.296 -0.3049  0.0627 -0.4223
 3575TIP3    H110731   4.032   4.724   4.298 -0.7532 -0.3140 -0.9222
 3575TIP3    H210732   3.942   4.804   4.205 -0.1605  0.9517 -0.4345
 3576TIP3   OH210733   4.949   1.800   0.434  0.1424 -0.1025 -0.5524
 3576TIP3    H110734   5.025   1.787   0.378  0.5585  1.5244 -0.3891
 3576TIP3    H210735   4.971   1.755   0.515  1.0176  0.5074 -0.4431
 3577TIP3   OH210736   4.427   0.683   4.742 -0.1845  0.2770 -0.5206
 3577TIP3    H110737   4.417   0.593   4.712  1.8509 -0.6040  1.1958
 3577TIP3    H210738   4.508   0.713   4.703  1.6288 -0.3216  2.4567
 3578TIP3   OH210739   4.946   1.547   3.122  0.2681  0.2892  0.1265
 3578TIP3    H110740   4.951   1.560   3.217  0.4177 -0.2350  0.1905
 3578TIP3    H210741   4.879   1.609   3.093 -1.5647 -1.2579  0.8856
 3579TIP3   OH210742   3.907   2.910   2.549 -0.2911  0.2397  0.1949
 3579TIP3    H110743   3.870   2.822   2.555  0.0520  0.1023  0.3230
 3579TIP3    H210744   3.931   2.920   2.457  1.0864 -0.3887  0.4646
 3580TIP3   OH210745   3.229   3.610   2.711 -0.0155  0.0592 -0.5191
 3580TIP3    H110746   3.234   3.598   2.616  0.7900 -1.3048 -0.3409
 3580TIP3    H210747   3.311   3.653   2.733  0.2537 -0.5226 -0.3484
 3581TIP3   OH210748   4.859   1.412   0.764  0.0238 -0.5931  0.0558
 3581TIP3    H110749   4.906   1.495   0.753  0.8815 -1.0704  0.0407
 3581TIP3    H210750   4.792   1.431   0.830  0.1860  0.1236  0.0228
 3582TIP3   OH210751   0.945   2.695   0.628  0.1796  0.0766  0.4819
 3582TIP3    H110752   0.852   2.698   0.609  0.0362 -0.9005  0.9460
 3582TIP3    H210753   0.980   2.777   0.594 -0.8850  0.5495  0.5103
 3583TIP3   OH210754   5.713   4.608   0.504  0.5955 -0.3765 -0.1431
 3583TIP3    H110755   5.654   4.683   0.495  0.0208 -0.9564 -1.5659
 3583TIP3    H210756   5.794   4.646   0.538 -0.0477  0.6976  0.2747
 3584TIP3   OH210757   1.642   1.107   3.857  0.6917  0.1701 -0.0338
 3584TIP3    H110758   1.561   1.155   3.845  1.0006  0.3976 -1.3274
 3584TIP3    H210759   1.685   1.150   3.931 -0.7291 -0.4878  1.2205
 3585TIP3   OH210760   2.685   3.479   4.083  0.0721  0.4547 -0.5385
 3585TIP3    H110761   2.677   3.563   4.129  1.7972  0.5484 -0.3474
 3585TIP3    H210762   2.775   3.452   4.099 -0.4273 -1.4141 -0.6752
 3586TIP3   OH210763   4.669   3.214   2.534 -0.9134 -0.3710  0.7599
 3586TIP3    H110764   4.639   3.180   2.619 -0.9134  0.4167  1.0909
 3586TIP3    H210765   4.695   3.137   2.485 -2.3941 -0.9933  0.8935
 3587TIP3   OH210766   0.693   3.019   4.863  0.3767 -0.0986  0.0049
 3587TIP3    H110767   0.624   2.976   4.913  1.9320  0.2718  2.6207
 3587TIP3    H210768   0.688   3.111   4.890  0.7905  0.2642 -1.1098
 3588TIP3   OH210769   0.365   2.780   1.600  0.2798 -0.4437  0.5498
 3588TIP3    H110770   0.346   2.789   1.507 -0.9056 -1.9219  0.6025
 3588TIP3    H210771   0.279   2.771   1.641  0.7091  1.3003  1.9549
 3589TIP3   OH210772   6.172   4.821   1.303 -0.4011 -0.3523  0.0783
 3589TIP3    H110773   6.243   4.878   1.273  2.3183 -3.6091 -0.2487
 3589TIP3    H210774   6.097   4.845   1.247  1.5362  0.6781 -2.2685
 3590TIP3   OH210775   6.011   2.182   5.139  0.0055  0.1023  0.5732
 3590TIP3    H110776   6.011   2.106   5.196 -0.3132  1.0316  1.8546
 3590TIP3    H210777   6.104   2.201   5.123  0.0837 -0.8589 -0.2155
 3591TIP3   OH210778   1.279   3.220   2.638 -0.3326  0.2847 -0.3353
 3591TIP3    H110779   1.250   3.143   2.687 -0.1986 -0.6329 -1.6521
 3591TIP3    H210780   1.374   3.211   2.634 -0.2387  0.9773  0.2296
 3592TIP3   OH210781   0.542   2.555   4.103 -0.0145  0.0509 -0.3716
 3592TIP3    H110782   0.616   2.606   4.134 -0.3705 -0.6592  1.8579
 3592TIP3    H210783   0.540   2.479   4.161 -2.3224 -0.0742 -0.5271
 3593TIP3   OH210784   3.525   4.905   0.657 -1.2236  0.3094 -0.1214
 3593TIP3    H110785   3.599   4.847   0.640 -1.4695  0.7779 -3.3716
 3593TIP3    H210786   3.448   4.849   0.649 -1.3502  0.3149  0.8615
 3594TIP3   OH210787   1.192   3.481   0.560  0.3035 -0.0461  0.6087
 3594TIP3    H110788   1.262   3.462   0.498 -1.0386 -0.8001 -0.7248
 3594TIP3    H210789   1.163   3.396   0.591 -0.7893  0.1734  0.2427
 3595TIP3   OH210790   1.618   4.306   1.598 -0.0069 -0.3952 -0.5138
 3595TIP3    H110791   1.633   4.215   1.626  0.6460  0.0636  0.6904
 3595TIP3    H210792   1.542   4.300   1.539 -1.2353 -1.4820  1.0865
 3596TIP3   OH210793   4.802   1.681   4.862  0.5757  0.5897 -0.4453
 3596TIP3    H110794   4.738   1.737   4.817 -1.6089  0.2094  1.9221
 3596TIP3    H210795   4.760   1.594   4.864  0.9131  0.4203  1.5276
 3597TIP3   OH210796   4.178   5.614   1.813 -0.6904 -0.0323 -0.0873
 3597TIP3    H110797   4.184   5.523   1.841 -1.7407  0.2834  1.2872
 3597TIP3    H210798   4.269   5.641   1.797 -0.4339 -1.5642 -1.4772
 3598TIP3   OH210799   5.242   1.163   5.015 -0.1574 -0.6280 -0.1992
 3598TIP3    H110800   5.199   1.133   5.095  0.1966  1.4838  0.8763
 3598TIP3    H210801   5.217   1.255   5.008  0.0957 -0.6802 -2.3649
 3599TIP3   OH210802   2.070   4.256   1.407 -0.0001  0.1036 -0.2210
 3599TIP3    H110803   2.107   4.304   1.333  0.8719  2.1359  1.4031
 3599TIP3    H210804   2.136   4.189   1.427  0.7343  0.8417 -0.0846
 3600TIP3   OH210805   3.741   5.472   4.872 -0.2844  0.0795 -0.1796
 3600TIP3    H110806   3.825   5.509   4.898  0.1677 -1.1699  0.2194
 3600TIP3    H210807   3.697   5.543   4.825  1.0096  0.7366 -0.4501
 3601TIP3   OH210808   1.326   1.711   2.070 -0.3943  0.6883  0.2392
 3601TIP3    H110809   1.309   1.805   2.076 -0.0134  0.8342 -0.7210
 3601TIP3    H210810   1.396   1.695   2.132 -1.0123  0.8825  1.0047
 3602TIP3   OH210811   0.366   1.371   3.061 -0.4231  0.6584 -0.1914
 3602TIP3    H110812   0.334   1.352   2.973 -0.8539 -1.0839  0.3060
 3602TIP3    H210813   0.304   1.435   3.095 -1.2669  0.0571 -0.5589
 3603TIP3   OH210814   3.171   5.706   4.030 -0.1001 -0.1260 -0.5775
 3603TIP3    H110815   3.162   5.676   4.121  0.0631 -0.4332 -0.6623
 3603TIP3    H210816   3.252   5.757   4.030 -0.9713  1.3235 -0.1684
 3604TIP3   OH210817   3.824   1.253   2.097 -1.1540  0.4429 -0.2944
 3604TIP3    H110818   3.753   1.267   2.160  0.0856  1.4213  0.9270
 3604TIP3    H210819   3.785   1.278   2.013 -2.1068  1.5387  0.4298
 3605TIP3   OH210820   5.567   3.229   0.326  0.0633  0.0607 -0.2047
 3605TIP3    H110821   5.531   3.267   0.406  0.6927 -2.0574  1.1874
 3605TIP3    H210822   5.624   3.296   0.291 -1.8844  1.8696 -0.1164
 3606TIP3   OH210823   0.990   0.250   0.284  0.4550  0.0962  0.0432
 3606TIP3    H110824   1.002   0.238   0.378 -3.1682 -0.4517  0.5517
 3606TIP3    H210825   0.928   0.182   0.258  1.4442  0.1438 -2.8386
 3607TIP3   OH210826   2.058   3.958   4.515  0.4864 -0.4851  0.0879
 3607TIP3    H110827   2.006   4.033   4.545 -0.3857 -0.7924 -0.6236
 3607TIP3    H210828   2.129   3.997   4.464 -0.3581 -0.1530 -0.8658
 3608TIP3   OH210829   3.172   0.238   2.217  0.0942 -0.3592 -0.3459
 3608TIP3    H110830   3.229   0.307   2.185 -1.0585  1.4435  1.2659
 3608TIP3    H210831   3.225   0.158   2.211  1.2367  0.4907 -2.8783
 3609TIP3   OH210832   1.865   1.056   0.358 -0.4707 -0.1089 -0.0287
 3609TIP3    H110833   1.895   1.146   0.367 -0.9797 -0.1312  2.4360
 3609TIP3    H210834   1.773   1.058   0.385 -0.4647 -1.3825  0.1639
 3610TIP3   OH210835   4.259   3.886   2.209 -0.3033  0.2734 -0.2770
 3610TIP3    H110836   4.284   3.967   2.253  1.0394 -0.4800  0.4207
 3610TIP3    H210837   4.310   3.818   2.253  0.1786 -0.6718 -2.1864
 3611TIP3   OH210838   0.863   2.581   2.780 -0.1765 -0.0616  0.3358
 3611TIP3    H110839   0.874   2.493   2.817  1.9568 -0.4992 -1.1423
 3611TIP3    H210840   0.776   2.581   2.741  0.3422 -2.0668 -0.9339
 3612TIP3   OH210841   1.350   1.215   1.219  0.2114  0.5566 -0.2070
 3612TIP3    H110842   1.257   1.193   1.226  0.4475 -0.7799 -0.9216
 3612TIP3    H210843   1.387   1.189   1.303 -0.3919  3.1315  0.9567
 3613TIP3   OH210844   5.498   0.000   4.391 -0.4588  0.3157  0.0424
 3613TIP3    H110845   5.457   0.040   4.314  0.2191 -1.5644 -1.3919
 3613TIP3    H210846   5.590  -0.013   4.365 -1.2034 -5.1377 -1.1150
 3614TIP3   OH210847   0.708   1.181   1.142  0.0645 -0.0214  0.4655
 3614TIP3    H110848   0.795   1.149   1.168 -0.4135 -1.5068  0.2671
 3614TIP3    H210849   0.658   1.183   1.224 -0.3004 -1.0767  0.2801
 3615TIP3   OH210850   0.267   5.915   3.174 -0.5855 -0.4556 -0.2851
 3615TIP3    H110851   0.354   5.877   3.160 -1.2501 -1.0445 -3.7534
 3615TIP3    H210852   0.216   5.845   3.214  0.0833 -0.7176  0.1209
 3616TIP3   OH210853   1.098   2.259   1.242  0.1233  0.5944  0.7120
 3616TIP3    H110854   1.075   2.351   1.230 -2.7948 -0.0480  0.5843
 3616TIP3    H210855   1.079   2.218   1.158 -0.3982 -0.4067  1.2962
 3617TIP3   OH210856   4.960   2.797   2.256  0.6334  0.2211  0.4122
 3617TIP3    H110857   4.938   2.761   2.171 -0.6382 -0.0545  0.8382
 3617TIP3    H210858   5.054   2.818   2.250  0.0663  2.6157 -1.9261
 3618TIP3   OH210859   4.583   1.050   3.066  0.7116  0.0147 -0.3649
 3618TIP3    H110860   4.543   0.980   3.118  1.2483  0.6196  0.9029
 3618TIP3    H210861   4.656   1.081   3.119  1.1340  0.8325 -1.3824
 3619TIP3   OH210862   3.723   2.111   4.552 -0.2181 -0.3180 -0.1232
 3619TIP3    H110863   3.684   2.039   4.503  0.7784 -0.8222 -0.2170
 3619TIP3    H210864   3.664   2.125   4.626 -0.9613 -0.5415 -0.6697
 3620TIP3   OH210865   1.311   0.700   2.506  0.1738 -0.1664  0.0345
 3620TIP3    H110866   1.251   0.758   2.553  0.1473  1.7778 -2.1940
 3620TIP3    H210867   1.395   0.746   2.507 -0.0572  0.4712 -2.5098
 3621TIP3   OH210868   5.025   0.767   4.040 -0.1690  0.0100 -0.3193
 3621TIP3    H110869   4.957   0.700   4.051 -0.2996  0.1330 -0.3620
 3621TIP3    H210870   5.049   0.792   4.129 -0.5965  0.3799 -0.3016
 3622TIP3   OH210871   1.049   2.933   2.642  0.1641  0.5173 -0.1457
 3622TIP3    H110872   1.078   2.997   2.707  2.4804  0.1284 -0.7208
 3622TIP3    H210873   1.055   2.849   2.688  0.4959  0.3824 -0.4308
 3623TIP3   OH210874   5.871   4.225   1.719  0.0222 -0.2158 -0.3324
 3623TIP3    H110875   5.818   4.148   1.739 -0.2567  0.1862  0.5632
 3623TIP3    H210876   5.961   4.194   1.721 -0.0352 -0.3716  0.8476
 3624TIP3   OH210877   4.433   2.248   3.297 -0.4976  0.0059 -0.4371
 3624TIP3    H110878   4.421   2.223   3.206 -1.4923 -0.4634 -0.1955
 3624TIP3    H210879   4.458   2.340   3.294 -1.6250  0.3118 -1.1481
 3625TIP3   OH210880   2.419   1.171   0.509  0.0268  0.3043  0.6511
 3625TIP3    H110881   2.382   1.214   0.432 -0.2503 -0.0486  0.5854
 3625TIP3    H210882   2.500   1.130   0.477  0.3965  0.9480  0.7609
 3626TIP3   OH210883   6.210   1.163   2.555  0.1446  0.5186  0.6912
 3626TIP3    H110884   6.260   1.084   2.535 -0.3374  0.4577 -0.3252
 3626TIP3    H210885   6.182   1.151   2.646 -0.6456 -0.8788  0.2879
 3627TIP3   OH210886   3.421   4.341   4.486 -0.3463  0.3830 -0.2239
 3627TIP3    H110887   3.434   4.392   4.566 -1.5056 -0.5346  0.5811
 3627TIP3    H210888   3.411   4.407   4.417  4.7187  1.2998 -0.4962
 3628TIP3   OH210889   5.709   1.049   4.601 -0.3941 -0.3155 -0.2769
 3628TIP3    H110890   5.646   1.117   4.626 -1.0625 -0.2370 -2.1031
 3628TIP3    H210891   5.793   1.095   4.598 -0.4936 -0.0563  0.5397
 3629TIP3   OH210892   1.776   1.906   2.515  0.1019 -0.1822 -0.2836
 3629TIP3    H110893   1.843   1.839   2.526 -0.1471 -0.0390  3.1837
 3629TIP3    H210894   1.824   1.989   2.521  0.1564  0.0259 -2.6729
 3630TIP3   OH210895   4.664   5.735   1.061 -0.2208  0.0346  0.6399
 3630TIP3    H110896   4.747   5.750   1.106  0.2571 -1.7934  0.4259
 3630TIP3    H210897   4.685   5.748   0.968 -0.1655 -0.4774  0.5816
 3631TIP3   OH210898   5.924   4.799   2.794 -0.4365 -0.3454 -0.2550
 3631TIP3    H110899   5.837   4.759   2.787 -1.4245  1.8968 -2.3054
 3631TIP3    H210900   5.969   4.773   2.713 -0.9517  2.1313 -1.4310
 3632TIP3   OH210901   1.313   4.397   1.216  0.3161  0.0653 -0.4642
 3632TIP3    H110902   1.385   4.396   1.279 -0.4739  1.3920  0.5252
 3632TIP3    H210903   1.287   4.305   1.208 -0.0492 -0.0871  1.7578
 3633TIP3   OH210904   6.104   5.046   5.112  0.0448  0.5859  0.1851
 3633TIP3    H110905   6.093   5.119   5.173  0.5946 -0.1062  1.1337
 3633TIP3    H210906   6.199   5.037   5.102  0.0083 -0.5360  0.7495
 3634TIP3   OH210907   2.281   4.863   0.297 -0.1542 -0.2539  0.1566
 3634TIP3    H110908   2.366   4.824   0.277 -0.0407 -0.2740  0.6648
 3634TIP3    H210909   2.225   4.788   0.317 -0.0513 -0.1837  0.7088
 3635TIP3   OH210910   0.797   3.680   2.885  0.4133  0.1204 -0.0894
 3635TIP3    H110911   0.779   3.768   2.853  0.3627 -0.4394 -1.6678
 3635TIP3    H210912   0.833   3.633   2.809 -0.7831 -1.5943  0.3494
 3636TIP3   OH210913   6.217   5.880   5.019  0.0646  0.1889  0.1095
 3636TIP3    H110914   6.124   5.875   5.041  0.0243  0.2876 -0.0415
 3636TIP3    H210915   6.261   5.831   5.089 -0.1239 -0.0982  0.0283
 3637TIP3   OH210916   1.392   0.486   0.401  0.6624 -0.1429 -0.1726
 3637TIP3    H110917   1.346   0.454   0.478  0.8291 -2.1570 -0.8501
 3637TIP3    H210918   1.324   0.498   0.335  0.5574  1.3100  0.1608
 3638TIP3   OH210919   3.208   4.969   2.757 -0.1276  0.1114  0.4861
 3638TIP3    H110920   3.190   5.036   2.692  1.1532  0.1295  0.1343
 3638TIP3    H210921   3.135   4.907   2.749 -0.1655  0.2990 -0.7257
 3639TIP3   OH210922   2.113   3.811   4.041  0.3937  0.0899 -0.3522
 3639TIP3    H110923   2.057   3.856   3.977 -0.8364  0.8818  1.1974
 3639TIP3    H210924   2.105   3.719   4.019 -0.3034  0.3159 -1.1209
 3640TIP3   OH210925   3.235   4.921   1.758 -0.2019 -0.6656  0.3370
 3640TIP3    H110926   3.181   4.842   1.752 -0.8268 -0.2015 -0.3536
 3640TIP3    H210927   3.324   4.891   1.744 -0.2762 -1.4365  1.4033
 3641TIP3   OH210928   0.769   1.550   0.758 -0.0720 -0.0200 -0.6160
 3641TIP3    H110929   0.745   1.533   0.667 -1.2670 -0.1443 -0.2987
 3641TIP3    H210930   0.706   1.499   0.809  1.8603 -1.6484  0.3008
 3642TIP3   OH210931   1.563   0.755   2.178 -0.0269 -0.1560 -0.5417
 3642TIP3    H110932   1.588   0.805   2.255  1.4295 -0.7483 -0.5918
 3642TIP3    H210933   1.471   0.734   2.191  0.3734 -0.8816  1.4204
 3643TIP3   OH210934   1.049   0.132   4.769  0.0982  0.5066 -0.0360
 3643TIP3    H110935   1.041   0.208   4.827  0.3706  0.5403 -0.0429
 3643TIP3    H210936   1.115   0.076   4.810 -1.4888 -0.6799  1.0081
 3644TIP3   OH210937   0.890   2.150   4.619 -0.0787 -0.2701  0.1673
 3644TIP3    H110938   0.954   2.079   4.621 -1.4964 -1.5986  1.7839
 3644TIP3    H210939   0.942   2.229   4.603  1.7794 -1.4379  0.1420
 3645TIP3   OH210940   4.185   2.770   1.979 -0.2470 -0.6246  0.1480
 3645TIP3    H110941   4.253   2.829   1.946 -0.5012  0.2401  1.1281
 3645TIP3    H210942   4.191   2.693   1.922 -0.6240  0.7438 -1.8562
 3646TIP3   OH210943   4.824   3.126   2.887 -0.1517  0.1522  0.0713
 3646TIP3    H110944   4.860   3.090   2.967  0.1655  0.4480  0.0632
 3646TIP3    H210945   4.897   3.127   2.825 -0.2581  0.4161 -0.0554
 3647TIP3   OH210946   5.877   0.850   2.973  0.4104  0.6027 -0.4052
 3647TIP3    H110947   5.887   0.926   3.031 -1.1374 -1.1998  2.4288
 3647TIP3    H210948   5.947   0.791   3.000  1.2812  0.7302 -2.2455
 3648TIP3   OH210949   2.976   5.299   5.118 -0.8527 -0.1358  0.3032
 3648TIP3    H110950   2.997   5.265   5.031  0.0891 -0.5987  0.6918
 3648TIP3    H210951   2.882   5.283   5.128 -0.6353 -1.7946  0.0936
 3649TIP3   OH210952   5.147   2.940   0.526  0.2094  0.0600 -0.2744
 3649TIP3    H110953   5.056   2.965   0.512 -0.3938 -1.9392 -0.0900
 3649TIP3    H210954   5.171   2.892   0.447  0.6746 -0.6015  0.2609
 3650TIP3   OH210955   0.691   0.946   0.937 -0.3974 -0.6263  0.2180
 3650TIP3    H110956   0.733   0.860   0.935 -0.7081 -0.7732 -0.2801
 3650TIP3    H210957   0.706   0.978   1.025 -1.1607 -1.6272  0.7311
 3651TIP3   OH210958   0.847   3.569   4.825 -0.5316 -0.5283 -0.3927
 3651TIP3    H110959   0.931   3.524   4.835 -0.7862 -0.7685  0.7697
 3651TIP3    H210960   0.826   3.560   4.732 -0.9986 -3.5498 -0.0923
 3652TIP3   OH210961   3.181   3.887   2.617  0.1487  0.0503 -0.1611
 3652TIP3    H110962   3.126   3.900   2.694 -0.2796 -0.6742 -0.3413
 3652TIP3    H210963   3.131   3.828   2.561  0.9262 -0.2868 -0.5178
 3653TIP3   OH210964   1.328   0.172   2.110  0.0387 -0.1365  0.1963
 3653TIP3    H110965   1.380   0.246   2.080 -0.9562  1.4608  2.2312
 3653TIP3    H210966   1.237   0.203   2.108 -0.2960 -0.8238  2.2712
 3654TIP3   OH210967   4.262   3.571   4.366 -0.3038 -0.4631 -0.1014
 3654TIP3    H110968   4.198   3.635   4.397 -0.2007  0.0123 -0.8500
 3654TIP3    H210969   4.339   3.585   4.421 -0.3585 -0.0959 -0.1184
 3655TIP3   OH210970   0.326   2.711   4.557 -0.4445  0.5140  0.3774
 3655TIP3    H110971   0.416   2.683   4.574  0.0349  1.2579 -0.8176
 3655TIP3    H210972   0.310   2.783   4.617 -0.7104 -0.4561  1.5001
 3656TIP3   OH210973   4.987   2.666   1.568  0.1135 -1.0037 -0.2601
 3656TIP3    H110974   5.044   2.716   1.510 -0.7420 -0.2481 -0.4777
 3656TIP3    H210975   4.984   2.578   1.529  1.7111 -1.2917  0.1881
 3657TIP3   OH210976   2.631   2.861   4.322  0.0126  0.2978  0.3755
 3657TIP3    H110977   2.586   2.944   4.337 -3.5704 -1.1076 -1.2506
 3657TIP3    H210978   2.672   2.871   4.236 -1.3364  0.1165 -0.3204
 3658TIP3   OH210979   0.979   5.607   1.568  0.0431 -0.1452  0.3186
 3658TIP3    H110980   1.055   5.589   1.513 -1.1700 -0.3616 -1.4037
 3658TIP3    H210981   0.984   5.701   1.586 -1.1496  0.6979 -2.9621
 3659TIP3   OH210982   3.212   4.610   5.136 -0.1742  0.0358 -0.4561
 3659TIP3    H110983   3.130   4.563   5.119 -1.3040  1.6604  0.2084
 3659TIP3    H210984   3.240   4.641   5.049 -2.0584  2.1885 -0.4070
 3660TIP3   OH210985   2.237   5.056   2.119  0.5051 -0.3779 -0.0760
 3660TIP3    H110986   2.255   5.051   2.025 -0.8734  1.8047 -0.5332
 3660TIP3    H210987   2.291   5.130   2.150 -0.4035  0.0878  0.4493
 3661TIP3   OH210988   5.379   0.307   3.320  0.1604  0.4434 -0.2252
 3661TIP3    H110989   5.283   0.307   3.324  0.1900  0.1642  1.0041
 3661TIP3    H210990   5.406   0.346   3.403  1.1094 -0.5392 -0.0435
 3662TIP3   OH210991   0.838   2.941   4.626  0.1945 -0.3260 -0.4930
 3662TIP3    H110992   0.792   2.978   4.701  1.0767 -0.6395  0.2223
 3662TIP3    H210993   0.918   2.993   4.618  1.1306 -1.6022  0.1125
 3663TIP3   OH210994   3.248   0.552   2.167  0.3382 -0.0122 -0.4986
 3663TIP3    H110995   3.341   0.530   2.178  0.2015 -0.1092  0.6094
 3663TIP3    H210996   3.237   0.564   2.073  1.2925 -0.8068 -0.7275
 3664TIP3   OH210997   2.967   1.823   0.636  0.1339  0.0277 -0.1277
 3664TIP3    H110998   3.040   1.885   0.631  0.0410  0.1693  0.2282
 3664TIP3    H210999   3.005   1.743   0.670  0.7610 -0.9267 -2.8151
 3665TIP3   OH211000   1.323   1.969   5.130  0.5973 -0.1556  0.1909
 3665TIP3    H111001   1.382   1.900   5.159  0.7141 -0.5320 -0.8984
 3665TIP3    H211002   1.250   1.923   5.090  0.1415  0.3381  0.4456
 3666TIP3   OH211003   5.670   5.949   0.185  0.2547  0.1851  0.6603
 3666TIP3    H111004   5.697   5.985   0.270 -0.5507  1.1656  0.5205
 3666TIP3    H211005   5.574   5.944   0.191  0.0515  1.7708 -0.7531
 3667TIP3   OH211006   6.278   4.748   3.666  0.2562  0.4189 -0.6661
 3667TIP3    H111007   6.267   4.660   3.702 -0.7783  1.6657  2.3812
 3667TIP3    H211008   6.363   4.776   3.699 -0.4304  1.3663  0.3442
 3668TIP3   OH211009   3.428   0.343   1.597 -0.2727  0.4806 -0.5731
 3668TIP3    H111010   3.342   0.321   1.560 -0.1104 -0.5943 -0.3461
 3668TIP3    H211011   3.421   0.435   1.622 -1.6148  0.2045  0.1566
 3669TIP3   OH211012   4.929   1.535   4.518 -0.4651  0.1355  0.3904
 3669TIP3    H111013   4.881   1.486   4.451 -1.3944  2.1100 -0.4847
 3669TIP3    H211014   4.962   1.612   4.472  1.0749  0.2969  1.6720
 3670TIP3   OH211015   5.394   4.334   0.403  0.0197  0.4179 -0.4597
 3670TIP3    H111016   5.366   4.420   0.371  0.8374  0.3104 -1.5228
 3670TIP3    H211017   5.354   4.272   0.343  1.3547  0.1919 -1.1469
 3671TIP3   OH211018   1.955   5.858   1.812 -0.0402 -0.0694  0.7235
 3671TIP3    H111019   2.046   5.861   1.843  0.3386 -1.6914 -0.1076
 3671TIP3    H211020   1.921   5.945   1.830  2.1528  1.1124 -0.3604
 3672TIP3   OH211021   3.513   5.142   1.403  0.2801  0.5320  0.1441
 3672TIP3    H111022   3.419   5.127   1.412  0.2646  0.2438 -0.4555
 3672TIP3    H211023   3.520   5.237   1.390  0.1787  0.7293  1.3790
 3673TIP3   OH211024   1.854   3.031   4.792  0.0044 -0.5283 -1.0234
 3673TIP3    H111025   1.790   3.081   4.842  2.0930  0.0002  1.3126
 3673TIP3    H211026   1.826   2.940   4.802  0.6753 -0.5160  1.7923
 3674TIP3   OH211027   3.535   0.856   3.488  0.2038 -0.1530  0.2113
 3674TIP3    H111028   3.495   0.919   3.548  2.3214  0.3338  1.2178
 3674TIP3    H211029   3.629   0.878   3.489  0.8318 -2.5129 -0.3785
 3675TIP3   OH211030   4.904   4.838   0.038  0.1707  0.2108  0.0678
 3675TIP3    H111031   4.971   4.804   0.098 -0.5657 -1.5641 -0.0414
 3675TIP3    H211032   4.901   4.774  -0.033 -2.3905 -0.4064  0.6288
 3676TIP3   OH211033   4.963   3.244   3.690  0.3295  0.0052 -0.2771
 3676TIP3    H111034   5.029   3.312   3.673  0.7914  0.3997  2.5709
 3676TIP3    H211035   4.922   3.270   3.773  1.1706 -3.5982  1.4766
 3677TIP3   OH211036   3.916   4.924   2.477 -0.3323 -0.1497 -0.0005
 3677TIP3    H111037   3.911   4.835   2.511 -1.4248  0.0465  0.4058
 3677TIP3    H211038   3.826   4.956   2.481  0.1304  1.1659  0.4078
 3678TIP3   OH211039   5.304   5.541   2.735  0.5364  0.0760 -0.5274
 3678TIP3    H111040   5.229   5.483   2.746  0.2614  0.8878  2.9506
 3678TIP3    H211041   5.272   5.611   2.677  0.1812 -1.9199 -2.9046
 3679TIP3   OH211042   5.961   2.536   3.068  0.0020  0.6898  0.4206
 3679TIP3    H111043   5.933   2.566   2.982  0.1201  1.0102  0.4956
 3679TIP3    H211044   5.889   2.479   3.098  1.2410 -1.8783 -1.1507
 3680TIP3   OH211045   0.458   1.613   0.338  0.3870 -0.3192 -0.4156
 3680TIP3    H111046   0.413   1.546   0.389  2.2744 -1.4416 -0.1188
 3680TIP3    H211047   0.462   1.577   0.249 -3.3443  1.8463 -1.6892
 3681TIP3   OH211048   4.250   2.759   2.724  0.0691  0.6635  0.4736
 3681TIP3    H111049   4.244   2.665   2.704 -0.5542  0.9003 -0.5263
 3681TIP3    H211050   4.334   2.786   2.690 -0.0375  0.6059  0.1650
 3682TIP3   OH211051   0.836   4.680   2.482  0.2683 -0.0492 -0.3901
 3682TIP3    H111052   0.835   4.586   2.466 -0.2424  0.0674 -1.1085
 3682TIP3    H211053   0.788   4.717   2.408  0.4281  0.7726 -0.0914
 3683TIP3   OH211054   1.749   4.921   1.241 -0.3695 -0.4430 -0.2282
 3683TIP3    H111055   1.789   4.839   1.270  1.5825 -0.1992 -1.9923
 3683TIP3    H211056   1.788   4.938   1.155 -1.4452  1.8461 -0.3468
 3684TIP3   OH211057   2.354   0.156   1.175  0.0548  0.1705  0.0943
 3684TIP3    H111058   2.301   0.202   1.110  0.0175  1.2842  0.8947
 3684TIP3    H211059   2.423   0.113   1.124  0.0323  1.0428 -0.6909
 3685TIP3   OH211060   5.345   0.179   1.202  0.0966  0.6011 -0.1165
 3685TIP3    H111061   5.400   0.231   1.261 -1.6442  2.5179 -0.0790
 3685TIP3    H211062   5.407   0.130   1.148  1.7760 -0.2597  2.4047
 3686TIP3   OH211063   2.150   2.666   2.516  0.4784  0.3307  0.6667
 3686TIP3    H111064   2.090   2.620   2.458  2.0333 -0.0667 -0.7143
 3686TIP3    H211065   2.163   2.752   2.475  1.6103  0.0363  0.3694
 3687TIP3   OH211066   6.067   5.604   2.435 -0.4777  0.3056 -0.4676
 3687TIP3    H111067   6.109   5.648   2.361 -2.2938  0.2174 -1.6440
 3687TIP3    H211068   6.131   5.541   2.466  0.5908  0.8282 -1.5431
 3688TIP3   OH211069   0.870   4.433   3.779  0.1405  0.6656 -0.4171
 3688TIP3    H111070   0.941   4.478   3.733 -1.3660  1.6814 -1.8972
 3688TIP3    H211071   0.814   4.503   3.811 -0.2961 -0.1109  0.5742
 3689TIP3   OH211072   2.884   2.996   4.930  0.7538 -0.0659  0.2686
 3689TIP3    H111073   2.820   2.996   4.859  0.3653  0.7439  0.6163
 3689TIP3    H211074   2.854   2.927   4.989  1.3599 -1.0952 -0.5846
 3690TIP3   OH211075   1.330   1.602   5.127 -0.4075 -0.5279  0.1707
 3690TIP3    H111076   1.394   1.534   5.151  2.0662  1.2291 -0.9994
 3690TIP3    H211077   1.354   1.676   5.182 -0.3871  0.6815 -1.4203
 3691TIP3   OH211078   4.815   5.105   1.369  0.1379  0.1551 -0.0588
 3691TIP3    H111079   4.802   5.199   1.382 -0.8455  0.1141 -0.6088
 3691TIP3    H211080   4.897   5.098   1.320 -0.2788  0.7989 -0.8785
 3692TIP3   OH211081   0.348   0.143   1.842 -0.2855 -0.0311 -0.1572
 3692TIP3    H111082   0.284   0.072   1.830 -0.3681  0.1195 -0.6262
 3692TIP3    H211083   0.418   0.103   1.894  0.1411 -0.7439 -1.2526
 3693TIP3   OH211084   5.787   5.673   0.755 -0.4148 -0.1851  0.4820
 3693TIP3    H111085   5.815   5.592   0.711 -0.4264  1.0049 -1.8468
 3693TIP3    H211086   5.813   5.660   0.846  0.0781 -2.5799  0.0836
 3694TIP3   OH211087   1.694   1.964   0.514 -0.5578  0.3708 -0.1552
 3694TIP3    H111088   1.629   1.917   0.566  0.3525  0.5936  1.2189
 3694TIP3    H211089   1.696   2.052   0.552  1.4000  0.0298  0.6358
 3695TIP3   OH211090   5.010   4.770   3.658 -0.1922 -0.3842 -0.4008
 3695TIP3    H111091   5.034   4.829   3.587 -0.0995 -0.1192 -0.1499
 3695TIP3    H211092   4.974   4.693   3.613 -0.6313 -0.0040 -0.7194
 3696TIP3   OH211093   0.199   0.268   4.169  0.1641 -0.3669 -0.5228
 3696TIP3    H111094   0.283   0.253   4.126  0.0061 -1.2234 -0.5499
 3696TIP3    H211095   0.143   0.304   4.101 -0.5164 -3.0630 -1.4705
 3697TIP3   OH211096   0.658   3.606   1.647 -0.5473  0.5937 -0.1048
 3697TIP3    H111097   0.749   3.620   1.673 -1.1187  1.8260  1.3779
 3697TIP3    H211098   0.618   3.564   1.723 -1.6070  1.6311 -0.0698
 3698TIP3   OH211099   3.636   3.739   2.218  0.7722  0.0409 -0.0253
 3698TIP3    H111100   3.685   3.779   2.290 -1.9072  0.5078  1.7193
 3698TIP3    H211101   3.682   3.766   2.139  2.2315  1.9623  1.3734
 3699TIP3   OH211102   6.223   1.882   1.720  0.5260 -0.2037  0.1135
 3699TIP3    H111103   6.141   1.851   1.759 -0.3297 -0.7487 -1.9839
 3699TIP3    H211104   6.199   1.961   1.672  1.0710 -0.6934 -1.0052
 3700TIP3   OH211105   5.293   1.139   3.155  0.7222  0.0353 -0.6854
 3700TIP3    H111106   5.326   1.225   3.181  1.0922  0.2821 -1.9068
 3700TIP3    H211107   5.366   1.080   3.168  1.6781  0.5420 -3.1673
 3701TIP3   OH211108   4.472   4.711   0.996 -0.0360  0.3405  0.3874
 3701TIP3    H111109   4.564   4.706   1.025  0.1318  0.4049 -0.1205
 3701TIP3    H211110   4.478   4.734   0.903 -0.4000 -3.4727 -0.7418
 3702TIP3   OH211111   5.417   4.571   1.146 -0.4349 -0.4172  0.2835
 3702TIP3    H111112   5.404   4.656   1.187  0.4610  0.3609 -0.9790
 3702TIP3    H211113   5.486   4.529   1.197 -0.7057 -0.2948  0.7571
 3703TIP3   OH211114   6.237   0.311   2.345  0.5443 -0.1501  0.3509
 3703TIP3    H111115   6.318   0.340   2.301 -0.2793 -0.0398 -1.1565
 3703TIP3    H211116   6.259   0.312   2.438  1.3899  2.7676  0.2215
 3704TIP3   OH211117   6.229   1.648   4.259 -0.1911 -0.3379  0.2681
 3704TIP3    H111118   6.192   1.672   4.344 -0.3220  0.7270 -0.0706
 3704TIP3    H211119   6.163   1.592   4.218 -0.6730  0.1411  0.3798
 3705TIP3   OH211120   1.738   3.728   4.165  0.1995 -0.0281  0.0007
 3705TIP3    H111121   1.796   3.800   4.189  1.5779 -0.5808 -1.4467
 3705TIP3    H211122   1.715   3.746   4.073  0.4507 -1.3297 -0.3359
 3706TIP3   OH211123   0.152   1.934   0.663 -0.2300 -0.2039 -0.3063
 3706TIP3    H111124   0.147   1.853   0.713  1.5873 -0.2308 -0.1011
 3706TIP3    H211125   0.173   1.906   0.574  1.5564  0.0494  0.0000
 3707TIP3   OH211126   0.276   2.203   0.412 -0.3941  0.0023 -0.6673
 3707TIP3    H111127   0.356   2.198   0.464  0.1689  1.0128 -1.4097
 3707TIP3    H211128   0.248   2.294   0.420 -2.4043 -0.6603  0.9118
 3708TIP3   OH211129   2.699   0.429   0.595  0.4615 -0.2093 -0.3771
 3708TIP3    H111130   2.768   0.390   0.650 -0.2421 -1.1965 -0.1720
 3708TIP3    H211131   2.735   0.514   0.569  1.5549 -0.4947  0.1290
 3709TIP3   OH211132   3.642   4.214   0.452  0.2147 -0.5063  0.8653
 3709TIP3    H111133   3.620   4.148   0.518  0.8877 -1.3479  0.2602
 3709TIP3    H211134   3.737   4.216   0.450  0.2026  0.4018  0.7844
 3710TIP3   OH211135   0.029   2.201   0.813  0.2504 -0.9637  0.1952
 3710TIP3    H111136   0.082   2.124   0.794  1.4341 -0.5998  1.8018
 3710TIP3    H211137  -0.030   2.173   0.884 -1.2013 -1.1268 -1.0199
 3711TIP3   OH211138   1.513   4.560   0.396  0.2007 -0.1247  0.4160
 3711TIP3    H111139   1.590   4.514   0.363 -1.1643 -1.3826 -1.2015
 3711TIP3    H211140   1.538   4.588   0.484  1.9518 -1.8399  0.5409
 3712TIP3   OH211141   6.264   2.175   2.333 -0.5991 -0.1393  0.0849
 3712TIP3    H111142   6.170   2.167   2.346 -0.5487 -0.5862  0.1616
 3712TIP3    H211143   6.301   2.094   2.366 -0.3311 -0.6409 -1.3543
 3713TIP3   OH211144   3.536   5.468   0.135  0.6177 -0.2077  0.1778
 3713TIP3    H111145   3.501   5.424   0.057 -0.2230  0.1294  0.3481
 3713TIP3    H211146   3.628   5.442   0.139  0.8717  0.3760 -1.3587
 3714TIP3   OH211147   4.562   3.598   0.203 -0.5930 -0.4407  0.5233
 3714TIP3    H111148   4.494   3.629   0.143  0.8444  0.1152 -0.8744
 3714TIP3    H211149   4.534   3.630   0.289 -1.2813  1.1995 -0.2623
 3715TIP3   OH211150   2.346   1.743   0.889 -0.3040  0.0218  0.3588
 3715TIP3    H111151   2.263   1.695   0.890 -1.0032  1.1860 -0.0941
 3715TIP3    H211152   2.372   1.745   0.797  1.4897 -2.3563  0.7021
 3716TIP3   OH211153   4.204   1.163   4.345  0.2734  0.8561  0.1507
 3716TIP3    H111154   4.139   1.175   4.415  0.5951  2.1474  0.2554
 3716TIP3    H211155   4.196   1.243   4.292 -0.5852 -0.4672 -1.8392
 3717TIP3   OH211156   2.663   4.854   3.757 -0.1159  0.0943 -0.6423
 3717TIP3    H111157   2.583   4.802   3.753  0.1425 -0.2932 -1.0039
 3717TIP3    H211158   2.711   4.818   3.831  0.2308 -0.4493 -1.1171
 3718TIP3   OH211159   2.133   4.761   4.300 -0.1608  0.8918 -0.4594
 3718TIP3    H111160   2.206   4.704   4.324  0.5617  1.8252 -0.3822
 3718TIP3    H211161   2.064   4.740   4.364  1.0072  1.8990  1.2377
 3719TIP3   OH211162   5.116   0.888   5.047  0.2204 -0.0053  0.6065
 3719TIP3    H111163   5.088   0.952   5.112  0.3524  0.3211  0.3472
 3719TIP3    H211164   5.211   0.901   5.040  0.2458 -0.2211  0.5449
 3720TIP3   OH211165   1.049   5.577   4.115  0.4983 -0.3991 -0.9413
 3720TIP3    H111166   1.084   5.619   4.193  1.0031 -0.5787 -1.0601
 3720TIP3    H211167   1.052   5.484   4.135 -0.2896 -0.3954 -0.8078
 3721TIP3   OH211168   1.858   0.377   3.150 -0.3266 -0.1535  0.1311
 3721TIP3    H111169   1.788   0.350   3.089 -2.0367  2.2398  0.9051
 3721TIP3    H211170   1.877   0.298   3.200 -2.1490 -1.0029 -0.4306
 3722TIP3   OH211171   0.368   1.167   3.641 -0.2854 -0.0948 -0.3162
 3722TIP3    H111172   0.360   1.236   3.575 -1.2548  0.8729  0.7708
 3722TIP3    H211173   0.309   1.098   3.610  1.1215 -0.7337 -1.7071
 3723TIP3   OH211174   0.566   3.245   2.946  0.3050 -0.0030 -0.1910
 3723TIP3    H111175   0.628   3.221   2.877  0.6371  0.6926 -0.1441
 3723TIP3    H211176   0.588   3.336   2.967  0.3470 -0.2753  0.9826
 3724TIP3   OH211177   5.955   0.630   3.671 -0.0880 -0.1810 -0.1811
 3724TIP3    H111178   5.955   0.715   3.626  1.9929 -0.1776 -0.2477
 3724TIP3    H211179   5.942   0.653   3.763 -0.5242  0.1237 -0.3128
 3725TIP3   OH211180   4.722   3.671   1.430 -0.2427 -0.2023 -0.0406
 3725TIP3    H111181   4.644   3.721   1.452 -0.7519 -0.7589 -0.5508
 3725TIP3    H211182   4.730   3.606   1.499  0.0730  0.1827  0.2924
 3726TIP3   OH211183   6.241   2.371   1.061  0.4024  0.8890 -0.7109
 3726TIP3    H111184   6.312   2.311   1.082  0.9022  1.3534 -1.0565
 3726TIP3    H211185   6.189   2.376   1.141  0.6903  0.4612 -0.4953
 3727TIP3   OH211186   4.774   0.559   4.545  0.4007  0.1971  0.0711
 3727TIP3    H111187   4.780   0.491   4.478 -3.0142  0.7105 -0.9576
 3727TIP3    H211188   4.774   0.511   4.628 -0.6849 -0.9617 -0.5730
 3728TIP3   OH211189   0.717   4.781   0.800  0.1375 -0.1865  0.0854
 3728TIP3    H111190   0.750   4.819   0.719 -0.5692  0.6862  0.1896
 3728TIP3    H211191   0.631   4.747   0.777 -0.2186  0.3880  0.5474
 3729TIP3   OH211192   5.499   3.742   3.326 -0.2296  0.1144 -0.2395
 3729TIP3    H111193   5.448   3.661   3.320  1.0580 -1.2138  3.5887
 3729TIP3    H211194   5.590   3.714   3.317  0.1620  1.4512 -0.6886
 3730TIP3   OH211195   5.982   5.960   3.421  0.2784  0.4476 -0.1971
 3730TIP3    H111196   5.948   5.916   3.499 -0.5915 -0.5249 -1.0846
 3730TIP3    H211197   5.909   6.013   3.389  0.7944  1.2551 -0.0771
 3731TIP3   OH211198   3.315   2.453   1.110 -0.4182  0.1571 -0.1405
 3731TIP3    H111199   3.382   2.440   1.176  0.4601  0.5863 -0.9312
 3731TIP3    H211200   3.232   2.437   1.156  0.1200  1.1928  1.2571
 3732TIP3   OH211201   4.869   5.355   1.979 -0.2529 -0.0570  0.6236
 3732TIP3    H111202   4.898   5.265   1.993  0.3528  0.1762  0.8956
 3732TIP3    H211203   4.778   5.356   2.010 -0.4388 -0.6945  0.1339
 3733TIP3   OH211204   0.097   5.747   0.145 -0.2016 -0.0796 -0.1863
 3733TIP3    H111205   0.014   5.704   0.128  0.3834 -1.4391  0.2513
 3733TIP3    H211206   0.129   5.773   0.058 -1.0700  0.4514 -0.3546
 3734TIP3   OH211207   5.541   4.893   0.510 -0.6419 -0.5301  0.3522
 3734TIP3    H111208   5.583   4.970   0.549  1.2957 -0.9283 -0.7926
 3734TIP3    H211209   5.472   4.869   0.572  1.0952 -0.0618  2.6003
 3735TIP3   OH211210   4.140   2.569   3.948 -0.3830 -0.2077  0.6948
 3735TIP3    H111211   4.170   2.603   3.864  2.2783 -0.1544  1.5803
 3735TIP3    H211212   4.189   2.620   4.013 -2.4367 -0.1767  2.3177
 3736TIP3   OH211213   5.933   3.262   0.877  0.4247  0.3895 -0.4299
 3736TIP3    H111214   5.859   3.204   0.895 -0.7358  1.1762 -2.3860
 3736TIP3    H211215   5.985   3.216   0.811  0.9385  0.4611 -0.0891
 3737TIP3   OH211216   0.182   0.058   3.596 -0.1715 -0.8592 -0.0674
 3737TIP3    H111217   0.128   0.090   3.668 -0.3364  1.3820 -1.0914
 3737TIP3    H211218   0.121   0.011   3.539 -0.7244  0.1470 -0.3330
 3738TIP3   OH211219   4.451   1.088   3.376 -0.3380 -1.0501 -0.8177
 3738TIP3    H111220   4.545   1.098   3.389 -0.5177 -0.2104  0.0176
 3738TIP3    H211221   4.419   1.053   3.459 -0.8646 -0.5354 -0.7977
 3739TIP3   OH211222   1.255   2.633   0.983 -0.4222 -0.3017 -0.3571
 3739TIP3    H111223   1.330   2.644   1.041 -1.1102 -0.9196  0.6853
 3739TIP3    H211224   1.263   2.544   0.949 -0.4500 -0.2127 -0.6031
 3740TIP3   OH211225   0.633   0.715   0.637  0.0042 -0.0511 -0.2641
 3740TIP3    H111226   0.655   0.665   0.558 -0.1863 -0.6101  0.0373
 3740TIP3    H211227   0.650   0.806   0.612  0.2197 -0.2470 -0.8596
 3741TIP3   OH211228   2.990   5.492   0.893 -0.3770  0.1529  0.2913
 3741TIP3    H111229   2.959   5.550   0.962 -1.6513 -0.8752  0.6300
 3741TIP3    H211230   2.919   5.428   0.882  1.1498 -1.6109  0.2487
 3742TIP3   OH211231   3.919   3.760   3.662  0.3211 -0.3489 -0.5094
 3742TIP3    H111232   3.864   3.709   3.722 -0.0607  2.0111  1.3157
 3742TIP3    H211233   4.006   3.719   3.668 -0.6262 -2.7187 -1.6751
 3743TIP3   OH211234   0.986   3.761   2.137  0.8167  0.4987 -0.2548
 3743TIP3    H111235   1.007   3.853   2.123 -1.2724  1.5635  2.6531
 3743TIP3    H211236   1.056   3.728   2.193  2.5423 -0.3183 -2.7170
 3744TIP3   OH211237   2.031   4.392   4.622 -0.0343 -0.1439 -0.1525
 3744TIP3    H111238   2.082   4.375   4.701  0.3779 -0.2611 -0.4410
 3744TIP3    H211239   1.992   4.308   4.600 -1.2907  0.1938  0.7142
 3745TIP3   OH211240   2.866   1.382   3.456  0.1167  0.0419 -0.2997
 3745TIP3    H111241   2.889   1.462   3.503  0.8261  0.0535 -0.6641
 3745TIP3    H211242   2.882   1.402   3.364  0.8643 -0.7086 -0.3420
 3746TIP3   OH211243   0.272   1.827   2.193  0.1446 -0.0419 -0.2936
 3746TIP3    H111244   0.342   1.886   2.221 -0.2037  0.6892 -0.9125
 3746TIP3    H211245   0.214   1.882   2.140 -0.4105 -0.8501 -0.5495
 3747TIP3   OH211246   5.687   4.385   0.963 -0.3839 -0.1140 -0.1269
 3747TIP3    H111247   5.729   4.308   1.002 -1.2483 -0.3594  0.3513
 3747TIP3    H211248   5.664   4.440   1.037  0.8562  0.9590 -0.5125
 3748TIP3   OH211249   2.033   3.485   4.309 -0.1598 -0.6595 -0.2223
 3748TIP3    H111250   1.993   3.571   4.296 -2.3578 -1.6015 -0.1504
 3748TIP3    H211251   1.980   3.445   4.378  2.7917 -0.9226  2.1117
 3749TIP3   OH211252   1.957   0.049   0.869 -0.3690 -0.1886  0.3635
 3749TIP3    H111253   1.917   0.084   0.789  1.2117 -0.6102 -0.6860
 3749TIP3    H211254   1.944   0.117   0.935 -0.2984  0.9166 -0.7178
 3750TIP3   OH211255   2.910   3.507   2.191  0.2009  0.6264 -0.3433
 3750TIP3    H111256   2.996   3.466   2.199  0.2596  0.9325  0.7268
 3750TIP3    H211257   2.848   3.436   2.208  0.2114  0.2645 -1.7304
 3751TIP3   OH211258   1.159   4.928   4.972 -0.1591  0.3305 -1.0207
 3751TIP3    H111259   1.147   5.023   4.977  1.1734  0.4969 -0.6226
 3751TIP3    H211260   1.072   4.892   4.990 -0.2303  1.4260  1.1520
 3752TIP3   OH211261   5.776   2.312   0.827  0.0737 -0.4973  0.6161
 3752TIP3    H111262   5.849   2.327   0.887  0.6095  1.5548 -0.4363
 3752TIP3    H211263   5.780   2.219   0.807  2.1057 -0.5426  0.9864
 3753TIP3   OH211264   3.447   3.913   2.630 -0.1300  0.0330  0.4168
 3753TIP3    H111265   3.454   3.841   2.692  0.6156 -1.4049 -1.2443
 3753TIP3    H211266   3.353   3.921   2.613 -0.1509 -1.4222 -0.3030
 3754TIP3   OH211267   1.307   0.503   4.896 -0.0289 -0.5524  0.0754
 3754TIP3    H111268   1.336   0.572   4.955 -3.5338 -0.3797  1.8544
 3754TIP3    H211269   1.243   0.545   4.839  1.1970 -1.3966 -2.0701
 3755TIP3   OH211270   4.881   4.401   4.178  0.0420  0.4177 -0.3736
 3755TIP3    H111271   4.881   4.387   4.272 -0.2695 -1.9391 -0.6774
 3755TIP3    H211272   4.791   4.384   4.150  0.5067 -0.6811 -1.2995
 3756TIP3   OH211273   5.903   5.046   4.152  0.3455  0.1319  0.2650
 3756TIP3    H111274   5.876   4.984   4.219 -0.2642 -1.3620 -1.2910
 3756TIP3    H211275   5.833   5.044   4.087  0.2049  2.6484  0.2312
 3757TIP3   OH211276   1.123   1.192   4.200  0.0874 -0.9056 -0.5456
 3757TIP3    H111277   1.196   1.136   4.226  0.5874 -0.5030 -1.0609
 3757TIP3    H211278   1.045   1.147   4.234  0.7703  1.2398  4.8792
 3758TIP3   OH211279   4.591   3.677   3.628 -0.1728 -0.2424  0.4530
 3758TIP3    H111280   4.529   3.699   3.697 -1.2187 -1.1064 -0.1770
 3758TIP3    H211281   4.571   3.739   3.557 -0.1439 -0.3521  0.3475
 3759TIP3   OH211282   0.246   3.275   3.455  0.5457  0.4377 -0.1111
 3759TIP3    H111283   0.340   3.292   3.466  0.0640  3.0624  0.6457
 3759TIP3    H211284   0.210   3.284   3.543 -0.6347  1.0850 -0.6416
 3760TIP3   OH211285   4.896   4.433   2.431  0.2772  0.6502  0.3042
 3760TIP3    H111286   4.962   4.500   2.412  0.5404  1.2914  3.0692
 3760TIP3    H211287   4.830   4.479   2.482 -0.5573 -0.7838  0.5490
 3761TIP3   OH211288   1.230   5.307   0.820  0.3882  0.0192 -0.3629
 3761TIP3    H111289   1.318   5.269   0.823  1.2923  1.8433 -1.6542
 3761TIP3    H211290   1.210   5.314   0.727 -0.7879  0.3761 -0.0967
 3762TIP3   OH211291   2.495   1.217   4.358 -0.1803  0.0602 -0.1250
 3762TIP3    H111292   2.591   1.216   4.364 -0.2301 -1.9028  2.6369
 3762TIP3    H211293   2.476   1.164   4.281  0.8830  2.4855 -2.1806
 3763TIP3   OH211294   3.850   5.680   0.220  0.2667 -0.5458  0.1206
 3763TIP3    H111295   3.859   5.704   0.313  0.5147 -1.7260  0.4122
 3763TIP3    H211296   3.823   5.589   0.221 -1.9582  0.0502 -0.9475
 3764TIP3   OH211297   5.789   2.801   1.030 -0.1937  0.3988  0.2286
 3764TIP3    H111298   5.825   2.730   1.084 -0.7873  1.7379  2.5335
 3764TIP3    H211299   5.860   2.865   1.024 -0.3183  0.5054 -0.1257
 3765TIP3   OH211300   1.512   4.449   4.936  0.4674 -0.3865 -0.1581
 3765TIP3    H111301   1.471   4.419   4.855  0.8982 -0.3525 -0.3921
 3765TIP3    H211302   1.440   4.486   4.987  0.0212 -1.3453 -0.0792
 3766TIP3   OH211303   2.497   4.799   2.200 -0.0600 -0.3303 -0.0759
 3766TIP3    H111304   2.442   4.721   2.190 -1.0394  0.2477  0.5900
 3766TIP3    H211305   2.438   4.865   2.235  1.0374  0.3719  0.4969
 3767TIP3   OH211306   3.132   0.516   4.865 -0.3744  0.2952  0.5091
 3767TIP3    H111307   3.097   0.442   4.915  0.7983 -0.2414  0.5674
 3767TIP3    H211308   3.066   0.532   4.797 -0.0433 -1.7273 -0.3834
 3768TIP3   OH211309   4.696   5.548   4.538  0.6449 -0.2197  0.1403
 3768TIP3    H111310   4.609   5.536   4.576  0.7361 -2.0329 -0.1641
 3768TIP3    H211311   4.696   5.494   4.460  2.4010 -1.1170  0.7157
 3769TIP3   OH211312   0.744   0.188   0.473  0.1135 -0.3728  0.1415
 3769TIP3    H111313   0.656   0.225   0.473  0.3685  0.2598  0.7318
 3769TIP3    H211314   0.756   0.152   0.385  0.0379  1.3682 -0.6146
 3770TIP3   OH211315   4.021   4.263   1.205 -0.0972  0.1500 -0.3427
 3770TIP3    H111316   4.077   4.315   1.147 -1.7394  1.6983 -0.6236
 3770TIP3    H211317   3.975   4.327   1.259  0.9160 -1.2242  2.3364
 3771TIP3   OH211318   1.074   4.102   2.262  0.1907 -0.2391  0.4994
 3771TIP3    H111319   1.113   4.156   2.332  1.2497 -2.6416  1.8925
 3771TIP3    H211320   0.987   4.080   2.295  1.0081 -2.0892  1.5617
 3772TIP3   OH211321   2.463   2.925   2.262  0.0639  0.3768 -0.1637
 3772TIP3    H111322   2.546   2.957   2.228  1.3452 -0.3340  2.0500
 3772TIP3    H211323   2.441   2.850   2.206  3.0334 -1.9031  1.4149
 3773TIP3   OH211324   1.800   2.434   0.731 -0.1078 -0.0485  0.3402
 3773TIP3    H111325   1.870   2.437   0.796 -1.0214  0.1679  1.3497
 3773TIP3    H211326   1.766   2.345   0.737  0.2300 -0.2236 -0.3154
 3774TIP3   OH211327   2.197   5.162   0.614  1.1251 -0.1356  0.0748
 3774TIP3    H111328   2.279   5.177   0.567  0.4503 -0.0636 -1.1133
 3774TIP3    H211329   2.210   5.076   0.656  1.2609 -0.8618 -1.3744
 3775TIP3   OH211330   1.983   4.721   2.095 -0.2012 -0.3826  0.0943
 3775TIP3    H111331   2.027   4.737   2.012  2.3130  2.3852  1.7517
 3775TIP3    H211332   1.891   4.739   2.078 -0.1012 -1.8493 -2.4646
 3776TIP3   OH211333   5.115   2.405   4.834  0.3441  0.2538  0.0165
 3776TIP3    H111334   5.024   2.383   4.854  0.9564 -3.5459 -0.5983
 3776TIP3    H211335   5.122   2.395   4.739  1.1735  1.5868 -0.0828
 3777TIP3   OH211336   3.594   5.181   3.011 -0.4912 -0.0876 -0.5542
 3777TIP3    H111337   3.627   5.241   2.944 -0.5069  0.5079 -0.0488
 3777TIP3    H211338   3.499   5.196   3.011 -0.5301 -0.3438 -0.6483
 3778TIP3   OH211339   5.686   4.161   4.111 -0.1607 -0.1284  0.0604
 3778TIP3    H111340   5.682   4.068   4.087  1.2659  0.0532 -0.9792
 3778TIP3    H211341   5.739   4.163   4.191  0.1380 -0.1702 -0.1373
 3779TIP3   OH211342   1.949   2.476   0.471 -0.4072 -0.3788  0.0940
 3779TIP3    H111343   1.860   2.447   0.491  0.0626 -1.0808  1.2650
 3779TIP3    H211344   1.992   2.399   0.434 -0.2674 -0.0503 -0.4437
 3780TIP3   OH211345   3.919   4.644   2.583  0.0803 -0.2726  0.2768
 3780TIP3    H111346   3.955   4.555   2.583  1.0145  0.0568 -1.3485
 3780TIP3    H211347   3.831   4.634   2.619  0.4800 -1.7047  0.9461
 3781TIP3   OH211348   3.539   0.843   5.072 -0.3915 -0.0679 -0.3825
 3781TIP3    H111349   3.513   0.786   4.999  2.9785 -1.1025 -0.9510
 3781TIP3    H211350   3.600   0.905   5.033  2.1523 -1.1506  1.5930
 3782TIP3   OH211351   2.930   1.866   2.624  0.3481 -0.4503 -0.0162
 3782TIP3    H111352   2.986   1.921   2.568  1.5312 -1.8849 -0.2974
 3782TIP3    H211353   2.878   1.814   2.562  0.6842 -1.0767  0.2229
 3783TIP3   OH211354   3.358   0.856   2.136  0.4693 -0.4521  0.0607
 3783TIP3    H111355   3.278   0.808   2.116 -0.4674  0.0534  2.2623
 3783TIP3    H211356   3.383   0.825   2.223  2.8441 -0.7721 -0.6844
 3784TIP3   OH211357   2.091   1.815   4.417  0.0392 -0.4904 -0.1238
 3784TIP3    H111358   2.166   1.834   4.360  1.0359 -1.1149  0.9374
 3784TIP3    H211359   2.015   1.837   4.364  0.9199 -1.3393 -1.8180
 3785TIP3   OH211360   1.887   1.521   1.070 -0.2596  0.3159  0.2346
 3785TIP3    H111361   1.911   1.554   1.157  0.4629  2.1074 -0.6002
 3785TIP3    H211362   1.852   1.433   1.087 -0.9519  0.9502  2.4187
 3786TIP3   OH211363   4.774   0.437   2.353 -0.4882  0.1115 -0.0238
 3786TIP3    H111364   4.828   0.464   2.427 -1.3257  0.0603  0.6277
 3786TIP3    H211365   4.836   0.415   2.284  0.2806  1.5482  0.1713
 3787TIP3   OH211366   4.433   4.335   4.767  0.1746 -1.0633 -0.1504
 3787TIP3    H111367   4.368   4.269   4.792  2.1352 -2.7934  0.7666
 3787TIP3    H211368   4.515   4.286   4.764  1.9959  1.5977  1.8765
 3788TIP3   OH211369   0.033   5.655   3.813  0.3959  0.1876  0.2870
 3788TIP3    H111370  -0.048   5.630   3.769  0.4425  1.2503 -0.4362
 3788TIP3    H211371   0.097   5.590   3.783  0.0592 -0.0299  0.0338
 3789TIP3   OH211372   5.775   2.838   3.486 -0.3398 -0.0670 -0.0080
 3789TIP3    H111373   5.716   2.766   3.465 -0.4129 -0.2861  0.8948
 3789TIP3    H211374   5.724   2.918   3.468 -1.4179 -0.2417  2.0356
 3790TIP3   OH211375   1.115   2.459   2.628 -0.1333  0.2924  0.3810
 3790TIP3    H111376   1.126   2.510   2.548  0.3263 -0.0180  0.2398
 3790TIP3    H211377   1.040   2.402   2.609  0.2638 -0.1063 -0.0061
 3791TIP3   OH211378   6.164   2.084   1.992  0.2451  0.3057 -0.4556
 3791TIP3    H111379   6.111   2.158   2.023  0.6963  0.5981 -0.3636
 3791TIP3    H211380   6.167   2.095   1.897 -0.0108  0.1864 -0.4763
 3792TIP3   OH211381   3.308   5.706   2.746  0.0104 -0.3386 -0.0111
 3792TIP3    H111382   3.391   5.661   2.729 -0.8221 -1.6909 -0.5862
 3792TIP3    H211383   3.264   5.708   2.661 -1.6232 -1.8703  0.7399
 3793TIP3   OH211384   0.863   2.351   0.605 -0.0980 -0.0757  0.6009
 3793TIP3    H111385   0.775   2.375   0.632 -0.5894  0.3816 -1.2307
 3793TIP3    H211386   0.883   2.411   0.533  1.4613 -0.5939  0.5673
 3794TIP3   OH211387   4.800   5.607   2.329 -0.6867 -0.4171 -0.1908
 3794TIP3    H111388   4.844   5.691   2.344 -0.5541 -0.4472 -0.4069
 3794TIP3    H211389   4.777   5.607   2.236 -1.9281 -0.0321  0.0930
 3795TIP3   OH211390   1.325   2.846   1.369  0.5937  0.0891  0.0926
 3795TIP3    H111391   1.344   2.762   1.327 -0.6448  0.5427 -1.4374
 3795TIP3    H211392   1.366   2.838   1.456  0.0637 -2.2846  0.2028
 3796TIP3   OH211393   1.179   1.326   1.756 -0.2925  0.1157  0.6322
 3796TIP3    H111394   1.256   1.369   1.719 -0.8655  0.5897 -0.0361
 3796TIP3    H211395   1.211   1.239   1.782  0.7220  0.6904  1.4020
 3797TIP3   OH211396   1.840   5.141   4.265  0.6289  0.2017  0.2905
 3797TIP3    H111397   1.770   5.078   4.249 -0.6836  1.8854 -0.9164
 3797TIP3    H211398   1.916   5.105   4.221 -0.7266  0.5674 -2.5275
 3798TIP3   OH211399   0.302   1.719   4.596  0.1338  0.2943  0.0594
 3798TIP3    H111400   0.244   1.686   4.527  0.8583 -1.8366  0.3839
 3798TIP3    H211401   0.348   1.793   4.556  1.5759 -1.7159 -2.3422
 3799TIP3   OH211402   6.278   3.745   1.809 -0.0750 -0.3635  0.1222
 3799TIP3    H111403   6.275   3.650   1.793  0.7281 -0.3770 -0.0116
 3799TIP3    H211404   6.352   3.757   1.868 -0.2956  0.1631  0.2979
 3800TIP3   OH211405   2.514   2.318   2.943  0.7712  0.1143 -0.0019
 3800TIP3    H111406   2.423   2.346   2.951  0.0464 -2.2086  0.8301
 3800TIP3    H211407   2.519   2.274   2.858  0.9042 -0.4404  0.2893
 3801TIP3   OH211408   5.251   4.132   4.374 -0.3345 -0.0521  0.1104
 3801TIP3    H111409   5.235   4.212   4.425 -1.5636  0.3579 -0.8595
 3801TIP3    H211410   5.208   4.149   4.290 -0.4436 -1.6747 -0.1843
 3802TIP3   OH211411   3.094   3.192   0.149 -0.0941 -0.3008 -0.3666
 3802TIP3    H111412   3.004   3.172   0.174 -0.0428 -1.0400 -0.7313
 3802TIP3    H211413   3.100   3.287   0.152 -1.3003 -0.1475 -1.6593
 3803TIP3   OH211414   4.203   4.253   2.488 -0.4878 -0.5881 -0.1138
 3803TIP3    H111415   4.260   4.311   2.438  1.1976  0.3543  2.6577
 3803TIP3    H211416   4.176   4.305   2.564 -1.2169 -2.5478  1.0463
 3804TIP3   OH211417   2.879   0.349   0.784  0.2747  0.0676 -0.0527
 3804TIP3    H111418   2.927   0.364   0.865 -0.9628  0.5888  0.6102
 3804TIP3    H211419   2.925   0.277   0.742 -0.3218 -1.6966  2.1387
 3805TIP3   OH211420   1.970   0.329   0.213  0.4457  0.4100 -0.5100
 3805TIP3    H111421   1.928   0.386   0.278 -0.7038  0.0136 -0.8871
 3805TIP3    H211422   1.911   0.330   0.138 -0.5657 -2.6974  0.1224
 3806TIP3   OH211423   5.944   0.876   2.562  0.3079 -0.1856 -0.0078
 3806TIP3    H111424   5.879   0.921   2.615 -1.0310 -2.5707  0.5355
 3806TIP3    H211425   6.008   0.843   2.625 -0.1084 -1.1713 -0.0791
 3807TIP3   OH211426   2.361   3.190   2.234  0.1260 -0.4201  0.6421
 3807TIP3    H111427   2.309   3.201   2.154 -0.9352  0.0266  1.3637
 3807TIP3    H211428   2.381   3.097   2.237 -0.0688 -0.4884 -0.0071
 3808TIP3   OH211429   2.995   3.464   2.669  0.0333 -0.4723 -0.1022
 3808TIP3    H111430   3.048   3.541   2.689  0.0835  0.0061 -1.8879
 3808TIP3    H211431   2.984   3.420   2.753  0.2140  1.3430  0.9242
 3809TIP3   OH211432  -0.005   0.195   2.075 -0.0489  0.0375 -0.3783
 3809TIP3    H111433  -0.014   0.132   2.146  1.0328 -0.0023 -0.2640
 3809TIP3    H211434   0.089   0.208   2.066 -0.2357  1.4768 -0.5397
 3810TIP3   OH211435   5.373   3.187   1.437 -0.2343  0.8369  0.0719
 3810TIP3    H111436   5.447   3.139   1.397  0.0024  0.1964  1.2340
 3810TIP3    H211437   5.389   3.278   1.414  1.3142  0.7981  0.8776
 3811TIP3   OH211438   3.543   5.572   2.749  0.0773 -0.6274 -0.1667
 3811TIP3    H111439   3.572   5.522   2.673  0.7092 -0.8265  0.2047
 3811TIP3    H211440   3.615   5.631   2.769 -0.1501 -0.4634  0.1853
 3812TIP3   OH211441   4.945   0.943   1.596 -0.3233  0.0278  0.0804
 3812TIP3    H111442   4.881   0.931   1.667  0.2683 -1.6645  0.3729
 3812TIP3    H211443   5.011   1.002   1.634  0.4660 -1.5735  1.3043
 3813TIP3   OH211444   6.216   0.210   1.819 -0.2444  0.1094  0.0376
 3813TIP3    H111445   6.126   0.179   1.829  0.0598 -0.8584 -0.1076
 3813TIP3    H211446   6.250   0.214   1.908  0.3991 -2.1489 -0.0582
 3814TIP3   OH211447   0.041   0.109   2.563 -0.2816 -0.0526  0.3320
 3814TIP3    H111448   0.108   0.170   2.595  1.7017 -1.6334 -0.6350
 3814TIP3    H211449   0.028   0.047   2.635  0.1086 -0.3826  0.1204
 3815TIP3   OH211450   4.564   4.077   4.154  0.5402  0.0166  0.0181
 3815TIP3    H111451   4.614   4.003   4.190  1.8522  0.2818 -1.1794
 3815TIP3    H211452   4.515   4.040   4.081 -1.2469 -0.2797  1.2876
 3816TIP3   OH211453   0.882   2.466   3.471 -0.5081 -0.1133 -0.6033
 3816TIP3    H111454   0.907   2.385   3.517  2.0798  0.9400  0.0303
 3816TIP3    H211455   0.877   2.440   3.379  2.0974 -0.7299 -0.6618
 3817TIP3   OH211456   4.928   3.409   0.150  0.1325 -0.6532 -0.2832
 3817TIP3    H111457   4.864   3.392   0.219 -1.0795  0.0201 -1.2014
 3817TIP3    H211458   4.947   3.322   0.113 -1.0451 -0.7584 -0.6712
 3818TIP3   OH211459   2.088   1.429   3.149  0.4775  0.0849 -0.0862
 3818TIP3    H111460   2.002   1.400   3.178 -0.3534  0.5712 -1.9465
 3818TIP3    H211461   2.082   1.525   3.146  1.3105  0.1703  0.3732
 3819TIP3   OH211462   1.598   0.450   2.270  0.0575  0.5203 -0.3048
 3819TIP3    H111463   1.589   0.542   2.247  0.1598  1.0307  1.5567
 3819TIP3    H211464   1.691   0.440   2.293  0.1970 -0.2200 -1.1244
 3820TIP3   OH211465   5.648   0.295   2.015  0.2927 -1.1018 -0.5686
 3820TIP3    H111466   5.567   0.345   2.022 -0.0260 -1.6939  0.2012
 3820TIP3    H211467   5.705   0.349   1.961 -0.1255 -0.0329  0.0321
 3821TIP3   OH211468   3.300   2.404   2.142 -0.0932 -0.0599  0.6359
 3821TIP3    H111469   3.296   2.313   2.115  0.0774 -0.1215  0.8138
 3821TIP3    H211470   3.317   2.453   2.061 -0.1521 -0.1874  0.5465
 3822TIP3   OH211471   2.805   0.358   3.491  0.0634 -0.2655 -0.4437
 3822TIP3    H111472   2.889   0.395   3.517 -0.1920 -0.6942  1.0622
 3822TIP3    H211473   2.824   0.266   3.474 -0.1650 -0.4620  0.3199
 3823TIP3   OH211474   5.973   4.315   4.764 -0.9270  0.5046 -0.2379
 3823TIP3    H111475   6.059   4.285   4.793 -1.9598 -3.0998 -0.5139
 3823TIP3    H211476   5.942   4.369   4.837  0.3715 -0.5973  1.2088
 3824TIP3   OH211477   0.613   4.592   4.934 -0.5051  0.4170 -0.4139
 3824TIP3    H111478   0.551   4.568   5.002 -0.9712 -1.6438 -1.4981
 3824TIP3    H211479   0.685   4.530   4.944  1.0166  2.1667  0.2197
 3825TIP3   OH211480   2.398   0.625   1.489  0.6471 -0.3164  0.0719
 3825TIP3    H111481   2.416   0.537   1.457  2.4787 -0.2034  0.6819
 3825TIP3    H211482   2.480   0.653   1.530 -0.4731  0.9294  1.6059
 3826TIP3   OH211483   5.923   2.422   2.358 -0.1361 -0.0399  0.1113
 3826TIP3    H111484   5.965   2.340   2.382 -1.3910 -0.0944  2.3092
 3826TIP3    H211485   5.996   2.480   2.336  0.8940 -1.0265  0.8167
 3827TIP3   OH211486   6.104   2.149   1.710 -0.0871 -0.1713 -0.5399
 3827TIP3    H111487   6.123   2.235   1.672 -0.9532 -0.4031 -1.5435
 3827TIP3    H211488   6.019   2.125   1.673  0.5630 -1.8661 -1.0049
 3828TIP3   OH211489   0.797   1.892   0.875 -0.6647 -0.2018 -0.3380
 3828TIP3    H111490   0.718   1.877   0.822 -0.0578 -0.5968 -1.1515
 3828TIP3    H211491   0.843   1.963   0.831  0.6211 -1.5468 -1.2892
 3829TIP3   OH211492   6.292   2.083   1.103 -0.1899  0.1441 -0.2673
 3829TIP3    H111493   6.294   2.104   1.196 -1.3833 -2.1205  0.3640
 3829TIP3    H211494   6.199   2.076   1.082  0.0804 -0.3167 -1.3805
 3830TIP3   OH211495   0.946   5.628   3.794  0.6115 -0.5351 -0.4963
 3830TIP3    H111496   0.962   5.681   3.872 -1.4695  0.8604 -0.9081
 3830TIP3    H211497   1.024   5.641   3.740  0.1063  2.5171 -0.7073
 3831TIP3   OH211498   1.378   1.359   3.071  0.2233  0.3846  0.5051
 3831TIP3    H111499   1.327   1.285   3.039  0.7112 -0.6868  2.0954
 3831TIP3    H211500   1.314   1.418   3.110 -0.2360  1.1351 -1.2808
 3832TIP3   OH211501   0.166   5.089   0.383 -0.1856  0.4879 -0.1919
 3832TIP3    H111502   0.097   5.046   0.332  1.1105 -0.0434 -1.5742
 3832TIP3    H211503   0.241   5.031   0.375  0.0827  0.3832  2.3932
 3833TIP3   OH211504   2.267   0.175   4.805 -0.0570 -0.2129  0.0227
 3833TIP3    H111505   2.344   0.120   4.821 -0.7098 -0.3956  3.0526
 3833TIP3    H211506   2.299   0.264   4.812  0.2110 -0.2486 -0.6600
 3834TIP3   OH211507   3.165   5.681   0.777  0.3178  0.1933  0.1803
 3834TIP3    H111508   3.176   5.603   0.831  3.4930  0.7063  0.4899
 3834TIP3    H211509   3.179   5.652   0.688 -2.1252 -0.1491 -0.1553
 3835TIP3   OH211510   1.619   1.412   2.995  0.5249 -0.7282  0.8333
 3835TIP3    H111511   1.603   1.455   2.911  0.1476  0.7799  1.6441
 3835TIP3    H211512   1.532   1.388   3.027  0.5997 -0.4397  1.2421
 3836TIP3   OH211513   4.233   2.537   2.456 -0.0331  0.3718  0.2592
 3836TIP3    H111514   4.172   2.592   2.408  0.0547 -0.1892 -0.5262
 3836TIP3    H211515   4.319   2.564   2.425  0.0445  0.2543  0.3709
 3837TIP3   OH211516   3.688   4.618   4.376 -0.1197 -0.2485 -0.0659
 3837TIP3    H111517   3.695   4.702   4.329  0.2898  0.0915  0.5857
 3837TIP3    H211518   3.654   4.642   4.462  2.3049 -0.3881  1.0294
 3838TIP3   OH211519   1.059   5.015   3.186  0.5207 -0.3682  0.6365
 3838TIP3    H111520   0.980   4.996   3.135  1.2537  0.1988 -0.7597
 3838TIP3    H211521   1.050   5.107   3.210 -0.8742 -1.1323  3.5313
 3839TIP3   OH211522   1.077   2.968   3.481 -0.3494 -0.3894 -0.4736
 3839TIP3    H111523   1.059   2.874   3.480 -0.4795 -0.3931  0.9352
 3839TIP3    H211524   0.991   3.009   3.477 -0.2492 -0.2706 -2.7048
 3840TIP3   OH211525   5.643   4.822   2.721 -0.1027  0.0744 -0.2007
 3840TIP3    H111526   5.573   4.765   2.689  0.4027  0.0526 -1.3133
 3840TIP3    H211527   5.611   4.856   2.804 -1.8151  0.7530 -1.1041
 3841TIP3   OH211528   4.662   4.149   4.611 -0.0575 -0.4251 -0.2480
 3841TIP3    H111529   4.609   4.072   4.629  0.6885 -1.0250 -0.5618
 3841TIP3    H211530   4.686   4.184   4.697 -1.1221 -0.0265 -0.1075
 3842TIP3   OH211531   1.100   4.796   4.128 -0.0593  0.5124  0.0235
 3842TIP3    H111532   1.014   4.757   4.147  0.2996 -0.2856  0.0554
 3842TIP3    H211533   1.155   4.772   4.202 -0.5625  3.5961  1.5367
 3843TIP3   OH211534   3.946   1.409   1.769 -0.1715  0.5107  0.1383
 3843TIP3    H111535   3.948   1.463   1.691  1.6911  0.3207  0.0158
 3843TIP3    H211536   4.035   1.414   1.805 -0.4121 -1.0844  1.0756
 3844TIP3   OH211537   0.127   0.550   4.652  0.3938  0.5557  0.0388
 3844TIP3    H111538   0.073   0.628   4.637  1.0202  0.7205 -1.6032
 3844TIP3    H211539   0.189   0.577   4.720 -0.0700  1.1383  0.2445
 3845TIP3   OH211540   4.675   2.651   0.955  0.1896  0.0259 -0.6511
 3845TIP3    H111541   4.647   2.735   0.992 -0.2783 -0.1141 -0.6860
 3845TIP3    H211542   4.768   2.645   0.976  0.0289  0.1570  0.0943
 3846TIP3   OH211543   5.136   4.259   3.642  0.1036  0.4007 -0.6070
 3846TIP3    H111544   5.120   4.178   3.690  0.4201  1.7697  1.9666
 3846TIP3    H211545   5.200   4.235   3.575  0.9164 -1.2795  0.7126
 3847TIP3   OH211546   1.453   4.513   1.917 -0.0283 -0.2883 -0.4090
 3847TIP3    H111547   1.367   4.474   1.901  0.2076  0.0217 -2.7359
 3847TIP3    H211548   1.508   4.440   1.944 -0.6113 -0.7820 -0.5447
 3848TIP3   OH211549   5.138   4.302   4.185  0.8337 -0.6113 -0.2705
 3848TIP3    H111550   5.044   4.295   4.168  0.8273 -0.1642 -0.4299
 3848TIP3    H211551   5.152   4.394   4.207  1.3716 -0.4952 -1.0622
 3849TIP3   OH211552   1.236   5.542   0.569  0.0828  0.0874  0.1320
 3849TIP3    H111553   1.319   5.519   0.611 -0.0780 -0.4704  0.1580
 3849TIP3    H211554   1.259   5.606   0.502  0.3825  0.8143  0.8971
 3850TIP3   OH211555   4.976   2.117   4.281  0.0712  0.0160 -0.4815
 3850TIP3    H111556   5.010   2.046   4.226 -0.4698 -1.4682  1.0019
 3850TIP3    H211557   4.944   2.073   4.360  0.5472  2.0136  0.9135
 3851TIP3   OH211558   0.744   4.901   0.326 -0.6127  0.1339 -0.2629
 3851TIP3    H111559   0.782   4.973   0.276 -0.2861  0.4044  0.3571
 3851TIP3    H211560   0.808   4.830   0.316  0.2389  0.6847  1.0251
 3852TIP3   OH211561   0.765   5.934   1.311 -0.2782  0.2449  0.0634
 3852TIP3    H111562   0.729   5.858   1.265  1.1610 -0.2143 -0.3610
 3852TIP3    H211563   0.689   5.974   1.354 -1.3440 -0.4290 -1.1199
 3853TIP3   OH211564   1.040   0.505   4.492  0.0446 -0.0808 -0.2185
 3853TIP3    H111565   1.117   0.544   4.534 -0.9293  1.2027  0.4853
 3853TIP3    H211566   1.038   0.415   4.523  0.7459  0.1494  0.5348
 3854TIP3   OH211567   3.928   0.060   0.340  0.1023 -0.4586  0.5516
 3854TIP3    H111568   3.861   0.065   0.273  0.9061  0.4035 -0.2087
 3854TIP3    H211569   4.005   0.025   0.295  0.7932  0.5832  0.8895
 3855TIP3   OH211570   3.179   3.752   2.103  0.1044 -0.0496 -0.0724
 3855TIP3    H111571   3.205   3.668   2.066 -3.2364 -0.6003 -1.4888
 3855TIP3    H211572   3.104   3.732   2.160 -0.1378  1.8437  0.3579
 3856TIP3   OH211573   1.480   3.369   2.442  0.1139  0.4238  0.3410
 3856TIP3    H111574   1.530   3.352   2.363  1.1892 -0.4613  1.1690
 3856TIP3    H211575   1.415   3.435   2.417 -1.1612 -1.5491 -1.8788
 3857TIP3   OH211576   3.374   4.192   0.317 -0.1431 -0.3282  0.3274
 3857TIP3    H111577   3.323   4.264   0.354  2.3982  1.8795 -0.2077
 3857TIP3    H211578   3.457   4.194   0.364  1.4374 -0.4028 -2.2748
 3858TIP3   OH211579   3.230   4.152   4.542 -0.6898 -0.1427  0.2575
 3858TIP3    H111580   3.284   4.231   4.539 -0.7357 -0.0144  1.9333
 3858TIP3    H211581   3.246   4.115   4.629 -1.1484 -1.6551 -0.2552
 3859TIP3   OH211582   5.115   1.737   2.949  0.3837 -0.1370 -0.5686
 3859TIP3    H111583   5.155   1.661   2.907 -0.1131 -0.5833 -0.2560
 3859TIP3    H211584   5.034   1.703   2.988  0.9439  0.1890  0.9526
 3860TIP3   OH211585   4.458   0.297  -0.007  0.1642  0.2120  0.4395
 3860TIP3    H111586   4.422   0.217  -0.043  0.3727  0.4530 -0.3174
 3860TIP3    H211587   4.481   0.275   0.084  0.6014 -0.6992  0.1151
 3861TIP3   OH211588   3.169   2.365   5.121  0.3090 -0.3802 -0.3537
 3861TIP3    H111589   3.241   2.318   5.078  3.3876  2.1150  1.6467
 3861TIP3    H211590   3.133   2.302   5.183  0.1944 -1.9156 -1.8883
 3862TIP3   OH211591   1.732   5.504   4.596  0.4286  0.5289  0.5917
 3862TIP3    H111592   1.802   5.442   4.573  1.0454  0.9612  1.2433
 3862TIP3    H211593   1.690   5.463   4.672  0.9682  0.9926  1.1498
 3863TIP3   OH211594   3.437   1.902   0.657  0.1779 -0.4649 -0.1111
 3863TIP3    H111595   3.360   1.878   0.708  0.5622  2.0677  1.8399
 3863TIP3    H211596   3.407   1.903   0.566 -1.4897 -1.5561  0.3897
 3864TIP3   OH211597   5.479   3.510   2.131 -0.4987 -0.3591 -0.4113
 3864TIP3    H111598   5.509   3.536   2.044 -1.5941 -2.2087 -1.3981
 3864TIP3    H211599   5.510   3.420   2.141 -1.4934 -0.6141  0.5623
 3865TIP3   OH211600   1.466   0.993   0.217 -0.2746 -0.2060 -0.0869
 3865TIP3    H111601   1.380   0.973   0.254 -0.3173 -1.1444 -0.6660
 3865TIP3    H211602   1.474   1.088   0.224 -1.2813 -0.1308  0.1368
 3866TIP3   OH211603   2.833   1.561   2.140 -0.3540 -0.5775 -0.0836
 3866TIP3    H111604   2.865   1.479   2.101  3.7182 -0.1326  1.7328
 3866TIP3    H211605   2.882   1.630   2.095 -0.9471  0.5278  0.9116
 3867TIP3   OH211606   2.133   0.399   3.122  0.0729  0.4718  0.2438
 3867TIP3    H111607   2.039   0.384   3.119  0.3023 -1.1822  0.3303
 3867TIP3    H211608   2.170   0.328   3.070  1.2789  0.9845  0.3805
 3868TIP3   OH211609   1.122   0.877   1.766  0.5112  0.7751  0.1666
 3868TIP3    H111610   1.181   0.952   1.775  0.7618  0.7098 -0.8292
 3868TIP3    H211611   1.053   0.908   1.708 -0.7762  1.0359  1.7776
 3869TIP3   OH211612   0.404   4.259   1.662 -0.1447  0.3549 -0.0098
 3869TIP3    H111613   0.426   4.331   1.721 -0.0760  1.2341 -1.0677
 3869TIP3    H211614   0.486   4.212   1.651 -0.2145  0.0372  0.7770
 3870TIP3   OH211615   2.149   0.215   0.996  0.5003  0.4499  0.0768
 3870TIP3    H111616   2.181   0.301   0.968  0.3090  0.1872 -0.9941
 3870TIP3    H211617   2.157   0.160   0.918  1.4526 -0.7486  0.9948
 3871TIP3   OH211618   2.267   0.270   0.204  0.4161 -0.1594 -0.3619
 3871TIP3    H111619   2.276   0.248   0.296  0.4093 -1.6643 -0.6948
 3871TIP3    H211620   2.176   0.299   0.195  0.7520  1.1870  0.3087
 3872TIP3   OH211621   0.536   5.797   3.194  0.1258  0.0074 -0.0945
 3872TIP3    H111622   0.603   5.826   3.255  0.7852  0.8259 -1.1846
 3872TIP3    H211623   0.486   5.732   3.243  1.0739  0.1256  1.0692
 3873TIP3   OH211624   1.363   3.685   5.152  0.1830 -0.2407  0.0842
 3873TIP3    H111625   1.406   3.703   5.068 -0.2239  2.2474  0.3178
 3873TIP3    H211626   1.432   3.648   5.207  1.3975  1.2438 -0.3549
 3874TIP3   OH211627   0.772   5.623   4.120  0.2288 -0.3306 -0.2290
 3874TIP3    H111628   0.866   5.618   4.100  0.1506  1.0114 -1.0234
 3874TIP3    H211629   0.732   5.657   4.039 -0.7512  0.4671  0.5663
 3875TIP3   OH211630   2.834   2.653   2.970  0.4019  0.0413  0.3819
 3875TIP3    H111631   2.885   2.576   2.996  1.0849  0.9121  1.7515
 3875TIP3    H211632   2.793   2.683   3.052 -0.4026  0.7412 -0.2588
 3876TIP3   OH211633   3.201   3.460   2.263 -0.2908 -0.5127  0.3680
 3876TIP3    H111634   3.193   3.432   2.354 -0.8945 -0.9518  0.1866
 3876TIP3    H211635   3.293   3.485   2.254  0.2864 -2.3677  0.5735
 3877TIP3   OH211636   1.469   5.444   1.074  0.6167 -0.5921  0.5591
 3877TIP3    H111637   1.413   5.416   1.002 -0.4254 -0.7210  1.4007
 3877TIP3    H211638   1.550   5.472   1.031 -0.0230 -0.5391 -0.6703
 3878TIP3   OH211639   2.176   3.960   1.916 -0.2033 -0.6677 -0.0758
 3878TIP3    H111640   2.120   4.020   1.966  0.3675  0.1492 -0.3882
 3878TIP3    H211641   2.258   4.008   1.906 -0.1314 -1.0330 -1.3481
 3879TIP3   OH211642   2.491   3.064   0.561 -0.1707  0.0127 -0.3731
 3879TIP3    H111643   2.438   3.099   0.489  0.4722 -1.1943 -1.4765
 3879TIP3    H211644   2.443   2.987   0.591  0.2823 -0.3168 -0.4823
 3880TIP3   OH211645   0.110   2.601   4.898 -0.1854  0.1299  0.3576
 3880TIP3    H111646   0.128   2.683   4.853 -2.3711  0.8868  0.7578
 3880TIP3    H211647   0.075   2.627   4.983 -1.1170 -1.1926  0.4179
 3881TIP3   OH211648   4.123   3.973   4.331 -0.5428 -0.1122 -0.2084
 3881TIP3    H111649   4.056   3.975   4.400 -0.2878  0.6834  0.0193
 3881TIP3    H211650   4.103   3.893   4.282 -1.2979 -0.2016  0.2195
 3882TIP3   OH211651   4.092   3.337   4.390  0.6711 -0.1820 -0.2046
 3882TIP3    H111652   4.133   3.388   4.320 -0.4199  2.2518  0.8072
 3882TIP3    H211653   4.068   3.402   4.456 -2.2387 -1.8237  0.5073
 3883TIP3   OH211654   5.564   5.746   1.826 -0.2113 -0.3158 -0.1459
 3883TIP3    H111655   5.556   5.681   1.895 -1.6666  0.3129  0.3157
 3883TIP3    H211656   5.481   5.792   1.827 -0.2217 -0.1925 -2.2356
 3884TIP3   OH211657   4.758   2.875   4.810  0.2499 -0.3553  0.6489
 3884TIP3    H111658   4.783   2.820   4.885 -0.1529 -0.4539  0.7176
 3884TIP3    H211659   4.663   2.884   4.819  0.2014 -0.3651  0.1488
 3885TIP3   OH211660   4.713   2.395   2.006 -0.1141  0.4722 -0.5405
 3885TIP3    H111661   4.792   2.343   1.992  0.2535  1.0531 -0.6810
 3885TIP3    H211662   4.696   2.436   1.921 -0.4064  0.5681 -0.4369
 3886TIP3   OH211663   5.768   3.985   2.131 -0.3751  0.5992 -0.2094
 3886TIP3    H111664   5.685   3.944   2.107  0.0329  0.1472 -0.8576
 3886TIP3    H211665   5.794   3.941   2.212 -0.0415 -0.2870 -0.7903
 3887TIP3   OH211666   0.897   5.807   2.659 -0.1389 -0.2329 -0.1323
 3887TIP3    H111667   0.869   5.890   2.621 -0.6736  0.3596  1.4410
 3887TIP3    H211668   0.816   5.757   2.669 -0.0300 -0.3188  0.3387
 3888TIP3   OH211669   4.132   1.143   1.341 -0.1834  0.0506  0.0539
 3888TIP3    H111670   4.172   1.064   1.304 -1.0595  0.1564 -1.2127
 3888TIP3    H211671   4.097   1.115   1.425 -0.3736 -0.8885 -0.3194
 3889TIP3   OH211672   3.871   2.789   4.536  0.1431 -0.1004  0.1475
 3889TIP3    H111673   3.866   2.853   4.607  0.8378 -1.0691  1.1177
 3889TIP3    H211674   3.918   2.715   4.575  0.8817 -0.5105 -1.4507
 3890TIP3   OH211675   5.704   5.886   2.509 -0.6982  0.1134 -0.2117
 3890TIP3    H111676   5.768   5.841   2.563  1.9882  3.5169 -0.2321
 3890TIP3    H211677   5.722   5.855   2.420  0.9701  0.9885 -0.2129
 3891TIP3   OH211678   1.461   1.780   1.401  0.4058  0.0595  0.3601
 3891TIP3    H111679   1.419   1.828   1.474 -0.6763 -1.1521  0.5737
 3891TIP3    H211680   1.407   1.702   1.391  1.1365 -0.2717 -1.1129
 3892TIP3   OH211681   5.355   0.632   1.919  0.0606  0.1754  0.2963
 3892TIP3    H111682   5.410   0.710   1.931 -0.2116  0.4149 -0.0027
 3892TIP3    H211683   5.405   0.578   1.858  0.4879 -0.1189  0.8989
 3893TIP3   OH211684   1.323   1.726   0.417  0.1831  0.8096 -0.0465
 3893TIP3    H111685   1.339   1.716   0.323 -0.4111 -1.3066  0.0203
 3893TIP3    H211686   1.310   1.820   0.429 -1.9743  0.9584 -2.4869
 3894TIP3   OH211687   0.399   2.112  -0.005  0.1047  0.0938  0.6339
 3894TIP3    H111688   0.424   2.031   0.040  1.6642 -0.2292 -0.7007
 3894TIP3    H211689   0.304   2.112  -0.003 -0.0485 -2.8252 -0.9767
 3895TIP3   OH211690   1.582   5.238   1.602  0.6583 -0.1342  0.5546
 3895TIP3    H111691   1.630   5.185   1.666 -1.3387 -2.0662  0.5844
 3895TIP3    H211692   1.562   5.178   1.531 -2.0097  0.3999  0.7398
 3896TIP3   OH211693   4.686   0.651   0.230  0.3067  0.1652  0.0847
 3896TIP3    H111694   4.707   0.723   0.289 -0.0948  0.1004  0.3072
 3896TIP3    H211695   4.647   0.584   0.286 -0.3222  0.2095 -0.2898
 3897TIP3   OH211696   3.671   0.678   4.564 -0.3450 -0.4212  0.7515
 3897TIP3    H111697   3.629   0.737   4.627  1.3820  0.0500  1.5240
 3897TIP3    H211698   3.652   0.590   4.597 -1.7638 -0.2937  0.3643
 3898TIP3   OH211699   4.946   1.810   2.520  0.1490 -0.0436  0.0909
 3898TIP3    H111700   5.037   1.781   2.520  0.5692  0.9663  3.1090
 3898TIP3    H211701   4.930   1.841   2.609 -3.3434 -0.7461 -0.1213
 3899TIP3   OH211702   2.042   5.078   1.632  0.4065  0.2504  0.0324
 3899TIP3    H111703   2.033   5.062   1.727  1.2725 -0.2114  0.0506
 3899TIP3    H211704   1.988   5.155   1.615 -2.3805 -1.4708  0.3341
 3900TIP3   OH211705   2.685   3.966   1.575 -0.0757 -0.3107  0.2751
 3900TIP3    H111706   2.684   4.031   1.504  0.9026  0.8850  1.3227
 3900TIP3    H211707   2.594   3.935   1.580 -0.5887  1.0442 -0.1954
 3901TIP3   OH211708   3.790   4.451   0.916 -0.5727 -0.4323  0.0046
 3901TIP3    H111709   3.726   4.414   0.977  0.2084  0.1538  1.2062
 3901TIP3    H211710   3.863   4.477   0.971  1.2753 -2.2149 -1.4474
 3902TIP3   OH211711   2.056   4.364   3.634  0.2331  0.0813  0.3628
 3902TIP3    H111712   2.053   4.276   3.596  0.7629  0.9665 -1.9211
 3902TIP3    H211713   1.964   4.385   3.653  0.1357 -1.0501  1.1957
 3903TIP3   OH211714   1.370   0.392   1.178 -0.2096  0.2788 -0.2100
 3903TIP3    H111715   1.339   0.479   1.204 -0.7677 -0.3957  1.5215
 3903TIP3    H211716   1.423   0.363   1.252  0.7651 -0.4939 -1.1710
 3904TIP3   OH211717   5.884   0.205   2.616  0.3197  0.0195  0.6528
 3904TIP3    H111718   5.832   0.278   2.581  0.5374  0.9406  2.1522
 3904TIP3    H211719   5.937   0.175   2.542 -0.0295  1.1613 -0.0829
 3905TIP3   OH211720   0.789   1.260   5.157  0.1464 -0.2308  0.0931
 3905TIP3    H111721   0.824   1.171   5.160 -0.1360 -0.3230  1.3246
 3905TIP3    H211722   0.698   1.249   5.129  0.5572 -0.1540 -1.3675
 3906TIP3   OH211723   2.021   1.593   0.397 -0.0565  0.6354 -0.5711
 3906TIP3    H111724   2.013   1.676   0.349 -4.0875  0.8283  0.0683
 3906TIP3    H211725   1.985   1.612   0.483  1.4911 -1.1650  0.5324
 3907TIP3   OH211726   3.643   2.951   4.437  0.0353  0.2378  0.8091
 3907TIP3    H111727   3.704   2.881   4.459 -0.4194 -0.2179  0.6293
 3907TIP3    H211728   3.652   3.014   4.509 -0.1783 -0.4149  1.4196
 3908TIP3   OH211729   3.659   3.530   3.613  0.2627 -0.0071  0.1808
 3908TIP3    H111730   3.689   3.439   3.603  0.5028  0.0413  0.4204
 3908TIP3    H211731   3.680   3.551   3.704 -0.9803 -0.1343  0.5068
 3909TIP3   OH211732   0.257   5.702   5.045  0.1540 -0.3153  0.2398
 3909TIP3    H111733   0.324   5.731   5.107  0.2498 -1.3572  0.6345
 3909TIP3    H211734   0.281   5.744   4.962 -0.7127  2.2005  1.1405
 3910TIP3   OH211735   1.930   1.532   4.356 -0.5966  0.4905  0.7326
 3910TIP3    H111736   1.920   1.627   4.359  0.4686  0.6976 -0.9879
 3910TIP3    H211737   1.998   1.516   4.290  0.0826 -1.4207  1.8002
 3911TIP3   OH211738   3.560   0.128   1.704 -0.2738 -0.9537 -0.1603
 3911TIP3    H111739   3.523   0.199   1.652 -1.0458 -0.4926  0.9705
 3911TIP3    H211740   3.615   0.173   1.769 -0.4489 -1.4148  0.3114
 3912TIP3   OH211741   0.651   5.817   1.647 -0.1914 -0.1857 -0.6758
 3912TIP3    H111742   0.673   5.910   1.648  0.9068 -0.4254 -0.9162
 3912TIP3    H211743   0.566   5.812   1.603 -0.3970  0.7248 -0.3876
 3913TIP3   OH211744   0.075   3.309   4.360 -0.4533 -0.1554 -0.0041
 3913TIP3    H111745   0.126   3.298   4.280  1.1128  2.9276  0.4008
 3913TIP3    H211746   0.140   3.301   4.430 -1.4926 -1.0718  0.8867
 3914TIP3   OH211747   0.286   2.822   2.995 -0.0936 -0.2292 -0.4432
 3914TIP3    H111748   0.332   2.800   2.914  1.5427  0.2299  0.3252
 3914TIP3    H211749   0.316   2.911   3.016  0.4716 -0.8084  1.3124
 3915TIP3   OH211750   5.897   5.044   0.465  0.3318  0.0520 -0.5593
 3915TIP3    H111751   5.868   5.116   0.409 -0.1663  0.0966 -0.2506
 3915TIP3    H211752   5.881   5.076   0.554  1.1660  0.0055 -0.3815
 3916TIP3   OH211753   3.239   2.722   4.973 -0.3223 -0.1355 -0.2416
 3916TIP3    H111754   3.220   2.780   5.047 -2.2006  2.2305 -2.3822
 3916TIP3    H211755   3.214   2.773   4.896  2.4477 -2.0668 -2.6448
 3917TIP3   OH211756   6.097   3.568   3.354 -0.0946 -0.3156 -0.3470
 3917TIP3    H111757   6.056   3.643   3.310 -0.4871 -0.7041 -0.6508
 3917TIP3    H211758   6.189   3.573   3.328  0.0861  0.6267  0.4235
 3918TIP3   OH211759   2.905   2.871   1.218  0.2390 -0.0725 -0.3463
 3918TIP3    H111760   2.961   2.820   1.159 -1.3690 -1.1560 -1.0072
 3918TIP3    H211761   2.898   2.817   1.296  1.0538  0.6163  0.2181
 3919TIP3   OH211762   5.029   5.671   2.685 -0.6145 -0.0932  0.6442
 3919TIP3    H111763   4.947   5.711   2.656 -0.5352  0.2702  0.9079
 3919TIP3    H211764   5.068   5.636   2.606 -0.6085  0.5021  0.3756
 3920TIP3   OH211765   2.365   4.712   3.561  0.2237  0.0673 -0.2178
 3920TIP3    H111766   2.340   4.759   3.641  0.0773  0.2401 -0.3645
 3920TIP3    H211767   2.282   4.696   3.515  0.1050 -1.6135  0.5203
 3921TIP3   OH211768   6.129   5.486   0.322  0.5618  0.3430  0.4463
 3921TIP3    H111769   6.094   5.504   0.409 -0.2589  1.4467 -0.0892
 3921TIP3    H211770   6.224   5.496   0.331  0.7893 -2.3093  1.8371
 3922TIP3   OH211771   3.574   1.405   1.663  0.1232 -0.5728 -0.7107
 3922TIP3    H111772   3.491   1.378   1.624  1.3138 -2.1836 -2.2606
 3922TIP3    H211773   3.603   1.478   1.608 -0.9069  0.9841  0.7206
 3923TIP3   OH211774   1.805   5.076   0.208 -0.0091 -0.2749 -0.0572
 3923TIP3    H111775   1.748   5.129   0.264 -0.7306 -0.7937 -0.2906
 3923TIP3    H211776   1.782   4.985   0.228  1.8129 -0.5656  0.9670
 3924TIP3   OH211777   2.950   2.729   4.188  0.1512  0.0664 -0.0336
 3924TIP3    H111778   2.983   2.703   4.102  0.5853  2.0005 -0.5034
 3924TIP3    H211779   2.870   2.779   4.169 -0.2659 -0.2741  0.7644
 3925TIP3   OH211780   0.124   5.076   4.908  0.2998 -0.6995  0.0943
 3925TIP3    H111781   0.087   5.040   4.989  1.2349 -1.1459  0.3354
 3925TIP3    H211782   0.187   5.010   4.878  1.0721  0.1289 -0.1764
 3926TIP3   OH211783   3.619   4.936   3.543  0.5547 -0.1055 -0.0528
 3926TIP3    H111784   3.627   4.858   3.488  0.2969 -0.7947  0.8618
 3926TIP3    H211785   3.706   4.945   3.583  0.7170  0.3444 -0.5014
 3927TIP3   OH211786   6.080   2.355   1.267 -0.2217  0.0230  0.0847
 3927TIP3    H111787   6.122   2.276   1.301  0.2871  0.4311  0.4111
 3927TIP3    H211788   5.986   2.341   1.283 -0.1899 -0.7344 -0.3248
 3928TIP3   OH211789   4.482   1.349   2.454 -0.5028  0.1395 -0.7667
 3928TIP3    H111790   4.566   1.334   2.410 -0.8874  0.6242 -1.6950
 3928TIP3    H211791   4.503   1.412   2.523  0.0807 -0.5128 -0.3305
 3929TIP3   OH211792   0.172   4.855   1.455 -0.2890  0.2635  0.2619
 3929TIP3    H111793   0.219   4.862   1.372 -1.9044  0.0414 -0.7289
 3929TIP3    H211794   0.240   4.861   1.522  1.2459 -1.0479 -1.0960
 3930TIP3   OH211795   0.522   1.029   4.303 -0.0562  0.0277 -0.4301
 3930TIP3    H111796   0.469   0.949   4.305  0.1022 -0.0818 -0.5753
 3930TIP3    H211797   0.507   1.070   4.388 -0.6526  0.1780 -0.6026
 3931TIP3   OH211798   5.870   5.494   0.512  0.1328 -0.4238  0.0263
 3931TIP3    H111799   5.918   5.577   0.510  2.3472 -1.5205  2.3334
 3931TIP3    H211800   5.809   5.501   0.438  1.7637  2.3149 -1.2604
 3932TIP3   OH211801   1.861   4.803   3.476  0.3373  0.0380 -0.2863
 3932TIP3    H111802   1.912   4.762   3.546 -0.0156  0.7826  0.4273
 3932TIP3    H211803   1.831   4.886   3.514 -0.3446  0.1881 -1.1225
 3933TIP3   OH211804   3.694   5.454   0.484  0.0711  0.1230  0.3254
 3933TIP3    H111805   3.742   5.533   0.460 -0.4938  0.6453  0.8857
 3933TIP3    H211806   3.707   5.446   0.579 -0.2876 -0.1796  0.3500
 3934TIP3   OH211807   6.314   5.626   0.675  0.4751  0.0633  0.0554
 3934TIP3    H111808   6.318   5.631   0.580 -0.1140  0.5252  0.0481
 3934TIP3    H211809   6.251   5.693   0.700  2.8691  2.1315  0.9831
 3935TIP3   OH211810   0.077   4.252   0.602 -0.6773  1.0973 -0.1894
 3935TIP3    H111811  -0.009   4.283   0.574 -1.2260 -0.8153 -0.7762
 3935TIP3    H211812   0.110   4.203   0.527 -0.4226 -0.7566  1.0788
 3936TIP3   OH211813   3.710   1.191   3.550 -0.1139 -0.6073  0.3550
 3936TIP3    H111814   3.616   1.175   3.556  0.1330 -1.8220  1.3644
 3936TIP3    H211815   3.718   1.286   3.558 -1.2548 -0.4810  0.2277
 3937TIP3   OH211816   6.055   1.072   3.778  0.3820 -0.1191 -0.2117
 3937TIP3    H111817   5.984   1.095   3.718  0.5371 -0.3028 -0.4718
 3937TIP3    H211818   6.011   1.027   3.850  0.2419 -0.3273 -0.4223
 3938TIP3   OH211819   1.503   1.676   4.860  0.2442 -0.1131 -0.1599
 3938TIP3    H111820   1.495   1.616   4.935  1.1062  0.3642  0.3371
 3938TIP3    H211821   1.560   1.629   4.798  0.6780  0.0625  0.1008
 3939TIP3   OH211822   1.975   1.108   1.415  0.2223  0.1616  0.0719
 3939TIP3    H111823   2.045   1.107   1.350  1.2520  2.2984  1.0484
 3939TIP3    H211824   1.990   1.028   1.466 -0.0342 -1.0473 -1.6502
 3940TIP3   OH211825   2.083   4.237   1.952  0.2963  0.0609  0.0083
 3940TIP3    H111826   2.079   4.291   1.874 -0.6429  0.1338  0.0969
 3940TIP3    H211827   2.044   4.291   2.021 -0.0606 -0.4809  0.2413
 3941TIP3   OH211828   2.693   5.986   2.243 -0.3665 -0.0537 -0.5893
 3941TIP3    H111829   2.652   5.900   2.255 -0.6721  0.3689  2.0059
 3941TIP3    H211830   2.762   5.990   2.310  0.6788  1.1434 -1.6796
 3942TIP3   OH211831   1.851   1.104   4.183  0.2157  0.1471  0.3388
 3942TIP3    H111832   1.805   1.021   4.167 -1.7036  1.0559  0.9172
 3942TIP3    H211833   1.871   1.137   4.095  0.4968 -0.6324  0.0924
 3943TIP3   OH211834   2.733   0.569   0.234  0.0590  0.2433  0.2561
 3943TIP3    H111835   2.799   0.509   0.200  1.0068  2.2592 -1.7098
 3943TIP3    H211836   2.650   0.536   0.199  0.5987  0.2496 -1.0676
 3944TIP3   OH211837   1.930   2.831   4.017  0.2840  0.4783  0.0513
 3944TIP3    H111838   1.954   2.896   3.950  0.6385  1.9804  1.5579
 3944TIP3    H211839   1.960   2.747   3.981 -1.1102  0.9313 -2.4378
 3945TIP3   OH211840   1.979   2.481   4.582  0.4026  0.2928  0.7738
 3945TIP3    H111841   1.975   2.564   4.536 -3.1150 -0.5439 -0.7934
 3945TIP3    H211842   1.916   2.490   4.654 -0.4804 -1.1399  0.2245
 3946TIP3   OH211843   1.770   5.314   1.851  0.2757  0.1200 -0.1271
 3946TIP3    H111844   1.804   5.341   1.936  0.1319 -0.0628 -0.0098
 3946TIP3    H211845   1.767   5.395   1.799  0.1072  0.2807  0.1298
 3947TIP3   OH211846   2.157   5.804   4.434 -0.6200 -0.3943  0.0548
 3947TIP3    H111847   2.139   5.898   4.425  0.6349 -0.0753  0.5612
 3947TIP3    H211848   2.072   5.762   4.428 -1.1953  0.7749 -0.2720
 3948TIP3   OH211849   0.620   5.390   0.160 -0.0703 -0.2237  0.2525
 3948TIP3    H111850   0.532   5.424   0.173  0.2413  0.3491  0.9238
 3948TIP3    H211851   0.676   5.467   0.157  0.2794 -0.4946 -1.4876
 3949TIP3   OH211852   0.042   0.909   5.164  0.0775  1.1293 -0.0108
 3949TIP3    H111853   0.105   0.948   5.103  0.8024  0.6065  0.3864
 3949TIP3    H211854   0.021   0.980   5.225 -0.4436  1.5760 -0.7031
 3950TIP3   OH211855   5.813   5.785   3.612 -0.3524 -0.6171 -0.1431
 3950TIP3    H111856   5.868   5.791   3.691  1.1746  1.7634 -1.2478
 3950TIP3    H211857   5.728   5.817   3.641 -0.4925 -1.9300  1.0214
 3951TIP3   OH211858   0.299   3.886   1.487  0.2200  0.4048  0.3734
 3951TIP3    H111859   0.388   3.881   1.454  0.9637  2.7903  1.8272
 3951TIP3    H211860   0.271   3.794   1.493  1.6332 -0.3047 -2.3663
 3952TIP3   OH211861   4.452   0.388   4.643 -0.5062 -0.2347 -0.2484
 3952TIP3    H111862   4.506   0.314   4.616  0.7639  1.0900 -1.4994
 3952TIP3    H211863   4.403   0.412   4.564 -1.3222 -0.0744  0.2981
 3953TIP3   OH211864   6.153   1.493   4.636  0.0315 -0.1473 -0.1680
 3953TIP3    H111865   6.169   1.575   4.589  0.7555  1.1993  2.2717
 3953TIP3    H211866   6.058   1.479   4.627 -0.0053  0.6039 -1.1268
 3954TIP3   OH211867   4.381   1.620   2.252 -0.5650  0.4835 -0.5828
 3954TIP3    H111868   4.342   1.548   2.301 -0.2938  0.3370 -0.5816
 3954TIP3    H211869   4.333   1.698   2.281 -1.4141  0.1998 -1.1934
 3955TIP3   OH211870   5.742   1.590   3.601 -0.2072  0.2834 -0.1990
 3955TIP3    H111871   5.671   1.550   3.550 -2.1381  1.3295  1.5236
 3955TIP3    H211872   5.745   1.539   3.681  0.8960  0.3587 -0.1864
 3956TIP3   OH211873   4.846   1.689   0.903 -0.0440 -0.2266  0.4673
 3956TIP3    H111874   4.839   1.784   0.907 -0.4459 -0.2708  1.0424
 3956TIP3    H211875   4.776   1.658   0.960 -1.1333 -0.9024 -1.1593
 3957TIP3   OH211876   4.655   0.632   3.028  0.2576  0.5210  0.1424
 3957TIP3    H111877   4.726   0.582   3.068  0.1082  0.5177  0.4075
 3957TIP3    H211878   4.664   0.720   3.065 -0.3830  0.3101  0.8287
 3958TIP3   OH211879   0.757   3.104   0.625 -0.4604 -0.4212 -0.2737
 3958TIP3    H111880   0.807   3.185   0.633  1.8412 -1.8329  0.8997
 3958TIP3    H211881   0.761   3.083   0.532 -0.5810  0.5002 -0.4982
 3959TIP3   OH211882   4.744   5.511   0.348  0.0403 -0.1141 -0.3486
 3959TIP3    H111883   4.711   5.436   0.298 -1.4724  1.0832 -1.2462
 3959TIP3    H211884   4.777   5.571   0.281  3.6451 -0.9626  0.4771
 3960TIP3   OH211885   1.671   5.355   4.334 -0.1272 -0.0926 -0.2403
 3960TIP3    H111886   1.634   5.341   4.421  0.4334  0.4803  0.1013
 3960TIP3    H211887   1.716   5.272   4.314  1.2422  0.3499  0.7875
 3961TIP3   OH211888   5.913   5.738   2.610 -0.5671 -0.2749 -0.7136
 3961TIP3    H111889   5.926   5.703   2.698 -1.9770  0.5674 -0.1348
 3961TIP3    H211890   5.964   5.680   2.553  1.0046 -0.3775  0.7243
 3962TIP3   OH211891   2.711   4.079   3.980  0.2279 -0.5466  0.2807
 3962TIP3    H111892   2.642   4.093   4.046 -1.2998 -2.6405 -0.7816
 3962TIP3    H211893   2.671   4.024   3.914  1.7040  1.4813 -2.4996
 3963TIP3   OH211894   0.276   0.158   0.704 -0.2582 -0.6151  0.1594
 3963TIP3    H111895   0.184   0.182   0.716 -0.3472  0.0951 -1.7079
 3963TIP3    H211896   0.319   0.240   0.681  0.5357 -1.2425 -0.6302
 3964TIP3   OH211897   3.450   4.994   2.601 -0.0783 -0.3019  0.0238
 3964TIP3    H111898   3.369   4.959   2.637  0.2582 -0.5440  0.5560
 3964TIP3    H211899   3.503   4.917   2.581  0.7872 -0.1184  1.4929
 3965TIP3   OH211900   4.535   2.574   0.533 -0.3196  0.1539  0.3101
 3965TIP3    H111901   4.508   2.660   0.566 -0.4115  0.0506  0.5052
 3965TIP3    H211902   4.603   2.594   0.468  0.4258  0.3275  1.1251
 3966TIP3   OH211903   3.912   2.195   3.732  0.1326  0.3858  0.0886
 3966TIP3    H111904   3.936   2.125   3.672 -0.8835  0.9588 -1.0421
 3966TIP3    H211905   3.848   2.156   3.791  0.0290  0.1986 -0.1476
 3967TIP3   OH211906   3.542   5.789   2.008 -0.6501  0.1545  0.4250
 3967TIP3    H111907   3.611   5.795   2.075 -1.4885  0.5932  1.2733
 3967TIP3    H211908   3.520   5.696   2.004  0.2599 -0.0449 -0.1371
 3968TIP3   OH211909   4.260   4.731   3.729 -0.6677  0.0567 -0.1297
 3968TIP3    H111910   4.209   4.694   3.657  0.0294  0.7059 -0.9828
 3968TIP3    H211911   4.337   4.770   3.687  0.5358 -0.8482  1.0926
 3969TIP3   OH211912   3.471   4.180   0.706  0.1599 -0.2913  0.0256
 3969TIP3    H111913   3.554   4.151   0.744 -0.4667 -0.2133  1.5334
 3969TIP3    H211914   3.411   4.182   0.780 -0.8597  0.9098 -0.7983
 3970TIP3   OH211915   2.587   2.270   1.346  0.0455 -0.2215 -0.2401
 3970TIP3    H111916   2.647   2.196   1.345 -0.1419 -0.3749 -0.5093
 3970TIP3    H211917   2.500   2.230   1.356  0.0580  0.0564  1.1687
 3971TIP3   OH211918   3.755   1.155   3.259  0.1973 -0.2910 -0.1059
 3971TIP3    H111919   3.743   1.157   3.354 -2.7476 -1.3411 -0.3479
 3971TIP3    H211920   3.684   1.100   3.227 -0.2436  1.7722 -3.1061
 3972TIP3   OH211921   0.221   2.036   1.074 -0.1446  0.3392  0.3511
 3972TIP3    H111922   0.141   2.064   1.029  0.5605 -1.1743 -2.0594
 3972TIP3    H211923   0.199   1.948   1.107 -0.0869  0.7376  1.4787
 3973TIP3   OH211924   3.565   5.548   4.026  0.4642  0.1825 -0.4215
 3973TIP3    H111925   3.496   5.505   3.975 -0.7847 -0.8964  1.9569
 3973TIP3    H211926   3.599   5.478   4.083  1.5683  1.3469  0.4040
 3974TIP3   OH211927   5.482   2.497   2.394 -0.7854  0.2247  0.9602
 3974TIP3    H111928   5.519   2.423   2.346  0.1546  1.2696 -0.0194
 3974TIP3    H211929   5.393   2.506   2.360 -0.4789  0.2981  0.1459
 3975TIP3   OH211930   5.287   1.725   2.041  0.1055  0.1939  0.5098
 3975TIP3    H111931   5.369   1.764   2.010  0.3669 -0.7026  0.0357
 3975TIP3    H211932   5.277   1.759   2.130  0.2780  1.3813  0.0965
 3976TIP3   OH211933   5.307   5.029   0.550 -0.6469  0.4695  0.3790
 3976TIP3    H111934   5.391   5.074   0.544 -0.2239 -0.3650 -0.1118
 3976TIP3    H211935   5.303   4.974   0.472 -0.6729 -1.1377  1.4640
 3977TIP3   OH211936   2.041   0.006   4.755  0.0809  0.3842 -0.2954
 3977TIP3    H111937   2.044  -0.042   4.838  1.2540  0.6543 -0.1668
 3977TIP3    H211938   2.120   0.059   4.755 -1.0470  2.1304 -0.5648
 3978TIP3   OH211939   5.843   5.342   1.108 -0.5426 -0.3205 -0.5460
 3978TIP3    H111940   5.888   5.259   1.127 -1.7268 -0.8331  0.0904
 3978TIP3    H211941   5.802   5.366   1.191  2.1220  2.4287  0.1249
 3979TIP3   OH211942   5.761   0.332   3.902  0.2778 -0.2929  0.0685
 3979TIP3    H111943   5.838   0.275   3.895 -0.5104 -1.3892  0.0606
 3979TIP3    H211944   5.738   0.330   3.995 -0.1744 -0.5756 -0.0442
 3980TIP3   OH211945   6.070   2.751   2.662 -0.7913  0.6547  0.1733
 3980TIP3    H111946   6.022   2.714   2.587  0.0726 -1.0527  0.4110
 3980TIP3    H211947   6.153   2.703   2.663 -0.3021  1.4918  1.5236
 3981TIP3   OH211948   2.884   5.134   0.873  0.8711 -0.1267  0.7025
 3981TIP3    H111949   2.968   5.167   0.839 -0.0067 -0.5364 -2.1332
 3981TIP3    H211950   2.825   5.210   0.867  0.8458 -0.0186  2.0737
 3982TIP3   OH211951   4.882   0.260   2.898  0.4778 -0.2741  0.1868
 3982TIP3    H111952   4.964   0.263   2.948  0.5476  0.5110  0.0358
 3982TIP3    H211953   4.869   0.167   2.880 -0.7213 -0.9394  3.6051
 3983TIP3   OH211954   1.487   4.389   3.846 -0.0011 -0.0485 -0.0553
 3983TIP3    H111955   1.421   4.458   3.850  1.2374  1.1745 -0.0488
 3983TIP3    H211956   1.496   4.370   3.752 -1.8900 -1.8055  0.0430
 3984TIP3   OH211957   3.696   5.762   3.738 -0.1423  0.2555  0.0991
 3984TIP3    H111958   3.608   5.782   3.707 -0.5034 -1.2773  0.0720
 3984TIP3    H211959   3.683   5.703   3.812  0.8655 -0.1506 -0.0320
 3985TIP3   OH211960   5.820   0.383   3.399  0.1632  0.0358  0.4128
 3985TIP3    H111961   5.760   0.318   3.360  0.9392 -0.0368 -0.6906
 3985TIP3    H211962   5.793   0.387   3.490 -0.1407 -1.5896  0.4343
 3986TIP3   OH211963   3.048   1.851   4.212  0.2385  0.0987  0.2127
 3986TIP3    H111964   2.990   1.913   4.258  0.2765 -0.7343  1.4255
 3986TIP3    H211965   3.013   1.848   4.123 -1.4295 -0.1547  0.8307
 3987TIP3   OH211966   2.353   5.075   2.965 -0.3179  0.3793 -0.0885
 3987TIP3    H111967   2.332   5.129   3.041 -0.8609 -0.0663  0.0858
 3987TIP3    H211968   2.409   5.130   2.910  1.0530  0.2920  1.1797
 3988TIP3   OH211969   0.943   0.002   3.079 -0.2710  0.3993 -0.2365
 3988TIP3    H111970   0.872   0.064   3.073 -0.0377  0.8626  1.3622
 3988TIP3    H211971   0.993   0.029   3.155  0.4796 -1.0890 -0.1496
 3989TIP3   OH211972   0.612   4.057   2.521 -0.1887  0.2499  0.4258
 3989TIP3    H111973   0.550   4.034   2.451  0.1970  1.2920 -0.2809
 3989TIP3    H211974   0.568   4.126   2.571  0.3204  0.8824  0.0177
 3990TIP3   OH211975   6.041   3.292   3.288 -0.0471  0.5800 -0.0181
 3990TIP3    H111976   6.065   3.377   3.325 -0.7453  0.8261 -0.1046
 3990TIP3    H211977   5.981   3.254   3.352  0.7738 -0.1372  0.3284
 3991TIP3   OH211978   4.393   5.901   4.163 -0.3581  0.3214  0.7276
 3991TIP3    H111979   4.441   5.904   4.246  0.6987 -1.5229  0.2610
 3991TIP3    H211980   4.399   5.990   4.129 -1.3707  1.2853  2.8840
 3992TIP3   OH211981   2.085   1.768   4.675  0.0018  0.0451 -0.2009
 3992TIP3    H111982   2.072   1.776   4.580 -1.1183 -0.7294 -0.1390
 3992TIP3    H211983   2.158   1.826   4.695  0.8435 -0.4704 -1.6756
 3993TIP3   OH211984   2.825   1.347   4.096  0.0399 -0.3448  0.0191
 3993TIP3    H111985   2.919   1.351   4.115  0.2193  0.1189 -0.9049
 3993TIP3    H211986   2.787   1.415   4.152  0.4742  0.5572 -0.7441
 3994TIP3   OH211987   2.025   2.754   0.652 -0.0766  0.4032 -0.3502
 3994TIP3    H111988   1.970   2.802   0.591  0.2352  0.7121 -0.3925
 3994TIP3    H211989   1.997   2.663   0.644  0.6548  0.2737 -1.7088
 3995TIP3   OH211990   4.204   4.947   4.581  0.6122  0.2314  0.1170
 3995TIP3    H111991   4.187   4.853   4.592 -1.2595  0.3995 -0.9949
 3995TIP3    H211992   4.165   4.987   4.659 -2.0974  0.3567 -1.1627
 3996TIP3   OH211993   1.043   4.263   3.258 -0.0988  0.3457  0.1616
 3996TIP3    H111994   1.107   4.196   3.282 -1.3179 -0.6498  0.7169
 3996TIP3    H211995   1.091   4.345   3.268  2.5301 -0.4195 -3.7694
 3997TIP3   OH211996   0.351   0.598   0.296 -0.6123  0.0358 -0.0995
 3997TIP3    H111997   0.398   0.675   0.328  0.4207 -0.5170 -0.2161
 3997TIP3    H211998   0.287   0.632   0.234  1.3681  0.6500 -1.9501
 3998TIP3   OH211999   2.047   4.625   0.750  0.0308  0.4490 -0.9967
 3998TIP3    H112000   2.031   4.586   0.836  0.7396  1.2719 -0.4830
 3998TIP3    H212001   1.979   4.587   0.694  0.0596 -0.7270 -0.2785
 3999TIP3   OH212002   1.674   2.081   3.295  0.1124 -0.0932  0.9736
 3999TIP3    H112003   1.615   2.086   3.220  1.2131  0.5753  0.1154
 3999TIP3    H212004   1.655   1.996   3.336  0.0444 -0.8244 -0.5237
 4000TIP3   OH212005   5.515   1.562   0.391 -0.7527 -0.1566  0.0395
 4000TIP3    H112006   5.508   1.594   0.481  1.7299  0.7216  0.0217
 4000TIP3    H212007   5.571   1.485   0.397  0.8225  0.8477 -0.8526
 4001TIP3   OH212008   5.904   3.763   3.975 -0.4371  0.3297  0.2000
 4001TIP3    H112009   5.947   3.698   4.030 -0.1375  2.0142  2.0984
 4001TIP3    H212010   5.974   3.821   3.947 -0.8580  0.5698 -0.3792
 4002TIP3   OH212011   4.343   1.854   1.449 -0.0611  0.1772 -0.7547
 4002TIP3    H112012   4.385   1.899   1.523 -0.3790 -1.6961  0.6330
 4002TIP3    H212013   4.249   1.871   1.461 -0.0970  0.0290 -0.8230
 4003TIP3   OH212014   4.206   1.136   1.787  0.1657 -0.3516 -0.1750
 4003TIP3    H112015   4.196   1.062   1.847 -0.1897 -0.9085 -0.9082
 4003TIP3    H212016   4.300   1.150   1.782  0.3039 -1.4126 -0.8008
 4004TIP3   OH212017   5.008   4.358   3.294  0.3884 -0.5811  0.7544
 4004TIP3    H112018   4.949   4.351   3.219 -0.3076  1.2528  1.0735
 4004TIP3    H212019   5.094   4.334   3.260  0.3969  1.7060 -1.1142
 4005TIP3   OH212020   4.802   1.970   2.047 -0.4991  0.2458 -0.8265
 4005TIP3    H112021   4.846   1.998   2.127  0.0512  0.3989 -1.1711
 4005TIP3    H212022   4.728   1.918   2.076 -1.7474  2.3031 -0.1261
 4006TIP3   OH212023   1.314   0.795   4.356  0.2434 -0.1773 -0.0885
 4006TIP3    H112024   1.280   0.755   4.436 -2.1982 -1.2455 -1.5507
 4006TIP3    H212025   1.394   0.746   4.337 -1.5376 -3.0293 -0.6716
 4007TIP3   OH212026   3.462   3.819   0.146  0.1235  0.1986 -0.2736
 4007TIP3    H112027   3.519   3.769   0.204  1.1058  1.4595 -0.0893
 4007TIP3    H212028   3.518   3.890   0.113 -0.8352  0.4007 -1.5652
 4008TIP3   OH212029   0.375   1.341   0.322  0.2518 -0.2932  0.2140
 4008TIP3    H112030   0.417   1.255   0.315 -0.6923 -0.7902  0.4556
 4008TIP3    H212031   0.390   1.382   0.238  2.4547  0.1417  0.7637
 4009TIP3   OH212032   0.680   4.796   2.279  0.3552  0.1352  0.0744
 4009TIP3    H112033   0.587   4.816   2.286  0.4640  0.0958  3.1507
 4009TIP3    H212034   0.716   4.867   2.227 -0.8573  2.3110  2.0340
 4010TIP3   OH212035   0.791   3.828   3.937  1.5131 -0.4497 -0.6848
 4010TIP3    H112036   0.772   3.886   4.011  1.5941  1.9705 -2.4125
 4010TIP3    H212037   0.778   3.740   3.971 -1.3493  0.6320  1.4241
 4011TIP3   OH212038   5.996   2.891   1.467 -0.5721 -0.2425 -0.2067
 4011TIP3    H112039   5.907   2.866   1.490 -0.1972 -1.7821 -0.2993
 4011TIP3    H212040   6.007   2.861   1.376 -0.3014  0.9128 -0.5737
 4012TIP3   OH212041   1.709   2.827   3.135  0.0434 -0.4885 -0.5461
 4012TIP3    H112042   1.689   2.892   3.202  1.2101  0.2745 -0.9179
 4012TIP3    H212043   1.804   2.815   3.140 -0.2873 -3.6278  0.8403
 4013TIP3   OH212044   1.316   5.107   1.068 -0.2660  0.3212 -0.1424
 4013TIP3    H112045   1.307   5.018   1.035  0.1654  1.2141 -2.9364
 4013TIP3    H212046   1.393   5.142   1.023 -0.4055  2.1247  0.8992
 4014TIP3   OH212047   1.235   0.211   1.733 -0.0669  0.3935  0.0258
 4014TIP3    H112048   1.278   0.161   1.803 -0.5318  1.3529  1.0172
 4014TIP3    H212049   1.307   0.247   1.682  0.2897 -1.3337 -0.7821
 4015TIP3   OH212050   0.791   5.915   4.612  0.1017 -0.5622  0.0813
 4015TIP3    H112051   0.772   6.005   4.637 -0.4762 -0.6507 -0.0293
 4015TIP3    H212052   0.856   5.923   4.542  2.0634 -0.3281  1.8344
 4016TIP3   OH212053   4.460   5.405   4.203 -0.0469  0.6944  0.5059
 4016TIP3    H112054   4.509   5.444   4.131  0.2560 -1.3301 -0.4464
 4016TIP3    H212055   4.396   5.348   4.161  0.8532 -1.3928  1.8324
 4017TIP3   OH212056   1.747   3.787   0.459 -0.3779 -0.0713 -0.4946
 4017TIP3    H112057   1.678   3.851   0.438  0.4136  0.8124 -0.4562
 4017TIP3    H212058   1.813   3.838   0.505  0.3330 -0.9032 -0.5779
 4018TIP3   OH212059   0.530   1.997   1.321 -0.1847 -0.2571 -0.3386
 4018TIP3    H112060   0.464   1.936   1.354  0.1683 -0.1744  0.5434
 4018TIP3    H212061   0.514   2.001   1.227 -2.1409  0.5864 -0.0230
 4019TIP3   OH212062   3.812  -0.017   2.410 -0.4417  0.1277  0.3549
 4019TIP3    H112063   3.724   0.022   2.410 -0.0554  1.4845  4.4105
 4019TIP3    H212064   3.865   0.045   2.360 -1.5896 -0.4565 -1.7226
 4020TIP3   OH212065   1.859   5.826   3.818 -0.1678 -0.5639 -0.7297
 4020TIP3    H112066   1.871   5.785   3.904  2.0868  0.9631 -0.2374
 4020TIP3    H212067   1.869   5.754   3.756 -0.2526 -1.4230  0.2207
 4021TIP3   OH212068   3.398   2.111   1.689  0.2777 -0.2960 -0.1715
 4021TIP3    H112069   3.303   2.110   1.678 -0.2347 -1.4424  3.2569
 4021TIP3    H212070   3.428   2.028   1.652  0.0261  0.0772 -1.2773
 4022TIP3   OH212071   3.502   3.189   2.324  0.1026 -0.0044 -0.3751
 4022TIP3    H112072   3.483   3.281   2.308 -0.1839  0.1398  0.7484
 4022TIP3    H212073   3.525   3.184   2.417 -0.4371 -1.1487 -0.2820
 4023TIP3   OH212074   4.556   5.809   3.138 -0.0410 -0.2375 -0.3314
 4023TIP3    H112075   4.585   5.818   3.048  1.1975 -0.4375  0.0359
 4023TIP3    H212076   4.636   5.804   3.190 -0.7245 -0.3688  0.7626
 4024TIP3   OH212077   1.424   5.296   4.529  0.0721  0.2781 -0.2888
 4024TIP3    H112078   1.502   5.242   4.521 -0.0552  0.1086 -0.4035
 4024TIP3    H212079   1.429   5.333   4.617 -0.2370 -0.5470  0.0921
 4025TIP3   OH212080   5.541   2.846   4.529 -0.0670  0.4767  0.0116
 4025TIP3    H112081   5.612   2.810   4.477 -0.1565 -0.3501  0.4555
 4025TIP3    H212082   5.584   2.886   4.605 -0.1627 -1.7801  1.3280
 4026TIP3   OH212083   6.025   5.400   1.656 -0.1542 -0.1919 -0.0829
 4026TIP3    H112084   6.080   5.441   1.723 -1.8240 -1.2772  2.0503
 4026TIP3    H212085   6.088   5.360   1.596  1.4296 -0.8117  1.8913
 4027TIP3   OH212086   1.331   1.070   4.324 -0.5173  0.1462  0.0699
 4027TIP3    H112087   1.296   1.106   4.406  0.6873  2.3968 -0.3232
 4027TIP3    H212088   1.333   0.975   4.339 -1.9057  0.3450  1.9822
 4028TIP3   OH212089   2.070   0.199   1.697 -0.1138 -0.2289 -0.2681
 4028TIP3    H112090   2.030   0.279   1.662  0.4681 -0.6516 -1.9900
 4028TIP3    H212091   2.132   0.172   1.630  2.0904 -0.3596  1.6848
 4029TIP3   OH212092   0.997   1.958   0.010 -0.2486  0.3801  0.2953
 4029TIP3    H112093   1.085   1.996   0.012  0.4314 -1.0631 -0.3000
 4029TIP3    H212094   1.005   1.878   0.062 -1.4958  0.7525  1.1009
 4030TIP3   OH212095   3.247   0.204   1.071  0.0520 -0.3665 -0.9246
 4030TIP3    H112096   3.201   0.125   1.098 -1.7380  0.3669 -1.7047
 4030TIP3    H212097   3.273   0.245   1.153  0.1809 -1.2815 -0.4932
 4031TIP3   OH212098   2.187   5.656   0.018  0.5182 -0.1485  0.1111
 4031TIP3    H112099   2.138   5.643   0.099 -0.5900  0.2827 -0.4678
 4031TIP3    H212100   2.278   5.662   0.046  0.2001 -0.4504  1.2742
 4032TIP3   OH212101   1.712   5.875   0.114  0.1146 -0.7492 -0.2567
 4032TIP3    H112102   1.791   5.898   0.065  0.4594 -1.3009  0.0291
 4032TIP3    H212103   1.739   5.802   0.170 -0.6433 -1.0510 -0.2772
 4033TIP3   OH212104   0.771   5.382   2.431  0.3016 -0.7519  0.1481
 4033TIP3    H112105   0.741   5.293   2.413  1.1653 -1.3088  1.3181
 4033TIP3    H212106   0.862   5.371   2.460  1.2696  0.7428 -2.0327
 4034TIP3   OH212107   3.320   3.461   1.260  0.3197 -0.5584 -0.1184
 4034TIP3    H112108   3.248   3.496   1.208  2.0384  1.1255 -1.5149
 4034TIP3    H212109   3.278   3.420   1.335 -2.0510  1.1102 -0.4268
 4035TIP3   OH212110   2.787   2.697   2.267 -0.5678 -1.1403 -0.2250
 4035TIP3    H112111   2.832   2.612   2.270  0.7315 -0.4646  3.4177
 4035TIP3    H212112   2.713   2.687   2.326 -0.8033  0.0639 -0.2928
 4036TIP3   OH212113   0.064   4.666   4.604 -0.2874  0.1048 -0.0003
 4036TIP3    H112114   0.156   4.682   4.626 -0.7455  1.0913  1.3612
 4036TIP3    H212115   0.059   4.572   4.589  1.2713  0.2591 -1.8284
 4037TIP3   OH212116   6.195   0.021   5.095  0.4443 -0.5269  0.4470
 4037TIP3    H112117   6.279  -0.014   5.122  1.1840  0.9936  0.2153
 4037TIP3    H212118   6.192   0.109   5.133  0.1472  0.4593 -1.7040
 4038TIP3   OH212119   0.615   4.086   1.586 -0.2353 -0.1950 -0.2272
 4038TIP3    H112120   0.625   4.047   1.499  0.5032  0.7635 -0.5931
 4038TIP3    H212121   0.593   4.012   1.643 -1.0261 -0.7860 -1.2690
 4039TIP3   OH212122   1.257   5.664   3.865 -0.2290  0.4946  0.0169
 4039TIP3    H112123   1.308   5.621   3.933  1.1265  0.5714 -0.9120
 4039TIP3    H212124   1.251   5.755   3.893  0.8476  0.6564 -0.2505
 4040TIP3   OH212125   2.662   4.703   4.809 -0.0016  0.3659  0.3155
 4040TIP3    H112126   2.657   4.608   4.797 -0.0355  0.2236  1.3853
 4040TIP3    H212127   2.571   4.730   4.827 -0.1141  0.7151 -0.6941
 4041TIP3   OH212128   5.092   1.094   0.110  0.2123  0.4175  0.0952
 4041TIP3    H112129   5.117   1.169   0.057  0.6765 -0.1710 -0.5370
 4041TIP3    H212130   5.160   1.087   0.177  2.7950 -2.0697 -2.4882
 4042TIP3   OH212131   2.206   3.095   1.398  0.3548  0.3022 -0.2315
 4042TIP3    H112132   2.124   3.065   1.358  0.4865  1.2062 -1.2231
 4042TIP3    H212133   2.273   3.071   1.335  0.6565  1.0693 -0.2107
 4043TIP3   OH212134   1.628   2.554   3.775 -0.1230  0.3793 -0.3126
 4043TIP3    H112135   1.638   2.462   3.796 -1.3541 -0.0290 -1.3726
 4043TIP3    H212136   1.563   2.556   3.705 -1.5309  2.1890  0.9340
 4044TIP3   OH212137   1.621   5.716   3.243 -0.4513  0.5986 -0.3275
 4044TIP3    H112138   1.613   5.621   3.236 -2.0463  0.3347  2.9723
 4044TIP3    H212139   1.698   5.729   3.299 -0.6894  1.1861 -0.1247
 4045TIP3   OH212140   0.676   1.348   0.142  0.0747  0.4252  0.0856
 4045TIP3    H112141   0.725   1.327   0.222  1.9427 -0.1674 -1.1441
 4045TIP3    H212142   0.639   1.264   0.114  0.8631  0.2652 -0.5437
 4046TIP3   OH212143   6.107   3.356   1.915 -0.9749 -0.1121 -1.0759
 4046TIP3    H112144   6.079   3.370   2.005  0.5474 -1.9268 -0.2419
 4046TIP3    H212145   6.197   3.388   1.912 -0.6564 -1.0144 -1.6526
 4047TIP3   OH212146   5.362   0.814   3.381 -0.1048 -0.5561  1.1253
 4047TIP3    H112147   5.426   0.801   3.451 -0.6804 -0.7704  1.6186
 4047TIP3    H212148   5.309   0.888   3.410 -0.6596 -0.9587  1.1508
 4048TIP3   OH212149   5.280   5.128   2.794 -0.4397 -0.4179 -0.2828
 4048TIP3    H112150   5.286   5.179   2.875 -0.1196  0.5673 -0.9071
 4048TIP3    H212151   5.368   5.132   2.757 -0.0706 -2.4396  0.2225
 4049TIP3   OH212152   4.732   5.952   1.982 -0.0763  0.2019  0.1858
 4049TIP3    H112153   4.694   5.926   2.067 -0.5533 -0.9999 -0.3672
 4049TIP3    H212154   4.826   5.952   1.997  0.0037 -2.4747  0.1068
 4050TIP3   OH212155   5.376   4.756   2.377 -0.0974 -0.3234  0.1055
 4050TIP3    H112156   5.412   4.736   2.291 -1.4937 -1.2776 -0.2838
 4050TIP3    H212157   5.396   4.849   2.390 -0.1077 -0.0899 -1.3746
 4051TIP3   OH212158   4.985   4.601   4.012  0.1001 -0.1755 -0.0236
 4051TIP3    H112159   4.956   4.533   4.073  2.1473 -1.6142 -0.5552
 4051TIP3    H212160   5.041   4.658   4.065  1.3645 -1.0654 -0.3432
 4052TIP3   OH212161   2.378   3.146   5.051  0.2506  0.2555  0.5036
 4052TIP3    H112162   2.375   3.197   4.970 -1.2776 -0.1379  0.2891
 4052TIP3    H212163   2.423   3.065   5.026 -1.6803 -0.5893 -0.4098
 4053TIP3   OH212164   2.527   4.094   0.093 -0.4652  0.1773 -0.3097
 4053TIP3    H112165   2.515   4.188   0.109 -0.0685  0.5286 -1.9750
 4053TIP3    H212166   2.559   4.060   0.177 -1.7040  1.3076  0.6615
 4054TIP3   OH212167   0.089   0.717   2.558  0.4755 -0.5591 -0.1941
 4054TIP3    H112168  -0.003   0.704   2.581  0.6150  1.2382  1.7707
 4054TIP3    H212169   0.132   0.636   2.584 -0.3266 -0.7996  0.4436
 4055TIP3   OH212170   0.138   5.601   4.095 -0.2602  0.2812  0.1624
 4055TIP3    H112171   0.116   5.647   4.013 -0.4758 -0.5971 -0.2820
 4055TIP3    H212172   0.064   5.618   4.153 -0.8551 -0.3894 -0.3805
 4056TIP3   OH212173   3.184   2.122   3.502  0.3844  0.8708 -0.6862
 4056TIP3    H112174   3.248   2.151   3.567 -0.5367  2.5736 -0.4737
 4056TIP3    H212175   3.133   2.200   3.483 -2.1590 -0.5861 -0.2626
 4057TIP3   OH212176   0.547   4.538   2.138 -0.4788  0.0734  0.2176
 4057TIP3    H112177   0.510   4.502   2.218 -0.5119  1.6385  0.9372
 4057TIP3    H212178   0.585   4.622   2.164  0.9445 -0.1210 -1.0897
 4058TIP3   OH212179   5.533   5.187   4.485 -0.1782 -0.1937 -0.3212
 4058TIP3    H112180   5.574   5.158   4.404  1.6626 -0.1876  0.5556
 4058TIP3    H212181   5.564   5.125   4.551  1.0478  1.6969  0.9694
 4059TIP3   OH212182   4.468   2.371   1.821  0.0467  0.3549 -0.5191
 4059TIP3    H112183   4.555   2.409   1.810  0.5445 -1.3127 -3.2266
 4059TIP3    H212184   4.415   2.412   1.754 -1.7848  2.3895  1.9750
 4060TIP3   OH212185   2.058   4.126   0.179  0.2506 -0.4047  0.2997
 4060TIP3    H112186   1.970   4.124   0.217 -0.2087 -0.4180 -0.7432
 4060TIP3    H212187   2.117   4.122   0.255 -0.6412 -0.4505  1.0040
 4061TIP3   OH212188   5.064   4.709   1.349 -0.2082 -0.5526 -0.1572
 4061TIP3    H112189   5.089   4.800   1.367  0.3545 -0.7031 -0.1539
 4061TIP3    H212190   4.969   4.707   1.362 -0.3576  0.2343 -0.9923
 4062TIP3   OH212191   0.528   4.655   1.667  0.1435  0.0314  0.0358
 4062TIP3    H112192   0.459   4.606   1.622  0.8241 -0.8953 -0.0056
 4062TIP3    H212193   0.542   4.608   1.749  0.1119  0.7300  0.4498
 4063TIP3   OH212194   1.565   4.671   4.773  0.0904 -0.0032 -0.3369
 4063TIP3    H112195   1.604   4.586   4.792 -0.3397  0.2725  1.9937
 4063TIP3    H212196   1.595   4.729   4.843 -1.4783  1.1656 -0.5550
 4064TIP3   OH212197   3.673   4.215   4.902 -0.0021  0.2433 -0.3426
 4064TIP3    H112198   3.669   4.120   4.910  0.1367  0.3096  0.6772
 4064TIP3    H212199   3.731   4.231   4.827  0.8197 -0.4645  0.1245
 4065TIP3   OH212200   0.668   2.035   1.770  0.3121  0.1929  0.5036
 4065TIP3    H112201   0.619   2.061   1.692  0.4455 -1.0240 -0.0205
 4065TIP3    H212202   0.603   1.998   1.829  0.5867 -1.7351 -0.3314
 4066TIP3   OH212203   5.471   1.753   0.626  0.3996  0.1375 -0.0004
 4066TIP3    H112204   5.385   1.717   0.646 -0.2035  1.6575  0.2881
 4066TIP3    H212205   5.532   1.703   0.680 -0.2752 -1.0531 -0.3140
 4067TIP3   OH212206   2.462   2.836   4.814 -0.6309 -0.0652  0.0452
 4067TIP3    H112207   2.480   2.833   4.908 -1.3809 -1.9052  0.1878
 4067TIP3    H212208   2.549   2.831   4.772 -0.3843 -1.8651  0.6811
 4068TIP3   OH212209   4.052   0.880   1.116 -0.6140 -0.0133  0.2616
 4068TIP3    H112210   3.957   0.871   1.119 -0.5978  0.0254  2.2607
 4068TIP3    H212211   4.069   0.931   1.037 -2.2109 -0.3869 -0.3538
 4069TIP3   OH212212   2.419   1.846   3.406  0.1506 -0.0131  0.0012
 4069TIP3    H112213   2.450   1.809   3.488  1.3939  0.9533  0.0015
 4069TIP3    H212214   2.460   1.793   3.338 -0.4045 -0.4395 -0.0102
 4070TIP3   OH212215   3.006   3.279   1.673 -0.4315 -0.2503 -0.1178
 4070TIP3    H112216   3.065   3.318   1.738  1.3133  0.3963 -1.9717
 4070TIP3    H212217   2.920   3.282   1.714  0.5350  0.4129  2.0245
 4071TIP3   OH212218   1.873   0.407   2.317  0.0239  0.2612  0.2900
 4071TIP3    H112219   1.879   0.313   2.302 -1.4678  0.1913 -0.0437
 4071TIP3    H212220   1.959   0.441   2.292 -0.0497 -0.7658 -1.4741
 4072TIP3   OH212221   1.613   0.540   2.608  0.3356 -0.1435 -0.2995
 4072TIP3    H112222   1.574   0.564   2.524  2.8631  2.0245 -0.9996
 4072TIP3    H212223   1.542   0.548   2.671 -0.9664  1.1190 -1.8372
 4073TIP3   OH212224   5.771   5.093   2.710 -0.0996  0.1033  0.4764
 4073TIP3    H112225   5.839   5.101   2.777 -0.4672  1.5758  0.7095
 4073TIP3    H212226   5.750   4.999   2.708  1.5160 -0.2880  0.7997
 4074TIP3   OH212227   1.477   5.168   2.947  0.0007  0.5261  0.1980
 4074TIP3    H112228   1.549   5.181   2.884 -0.5209 -1.4439 -0.8847
 4074TIP3    H212229   1.406   5.223   2.914 -0.0324  0.0390 -0.5796
 4075TIP3   OH212230   2.829   5.961   1.603 -0.6225  0.6705  0.1911
 4075TIP3    H112231   2.841   5.997   1.515 -0.8936  0.6591  0.1492
 4075TIP3    H212232   2.752   5.905   1.595 -1.1633  1.3371  0.6388
 4076TIP3   OH212233   5.786   1.027   3.728 -0.3332  0.3934  0.5147
 4076TIP3    H112234   5.722   0.958   3.707 -1.2295  1.1982  0.5193
 4076TIP3    H212235   5.788   1.029   3.823 -0.6067  0.6346  0.5170
 4077TIP3   OH212236   1.153   2.535   0.430 -0.0154  0.1430  0.4328
 4077TIP3    H112237   1.159   2.631   0.434  0.2991  0.2532 -1.5205
 4077TIP3    H212238   1.060   2.518   0.419 -0.0838  0.2087  0.8854
 4078TIP3   OH212239   6.284   3.597   4.526 -0.8587 -0.2139 -0.2275
 4078TIP3    H112240   6.281   3.594   4.622 -1.9756  0.6889 -0.2097
 4078TIP3    H212241   6.376   3.582   4.505 -0.1326  1.8212  1.1230
 4079TIP3   OH212242   5.087   3.216   0.065 -0.6016 -0.0884 -0.6211
 4079TIP3    H112243   5.144   3.223   0.142  0.3130 -0.6537 -1.2235
 4079TIP3    H212244   5.085   3.122   0.046 -1.3539 -0.0199 -0.8975
 4080TIP3   OH212245   5.881   0.938   3.984 -0.3408  0.2622 -0.5020
 4080TIP3    H112246   5.841   0.998   4.047 -0.6717  0.2247 -0.6756
 4080TIP3    H212247   5.903   0.861   4.035  1.5700  1.1351  0.0747
 4081TIP3   OH212248   3.076   4.646   4.272 -0.0492  0.0822  0.0296
 4081TIP3    H112249   3.045   4.729   4.235 -0.3099  1.3139  2.7426
 4081TIP3    H212250   3.021   4.579   4.232 -0.2548  1.2620 -1.7581
 4082TIP3   OH212251   2.064   2.118   0.580  0.0766  0.1035  0.1660
 4082TIP3    H112252   2.030   2.176   0.512 -0.7789  1.8483  1.9645
 4082TIP3    H212253   2.157   2.107   0.558 -0.2640  0.2893 -1.4708
 4083TIP3   OH212254   0.629   1.869   0.664  0.5196  0.6737  0.5544
 4083TIP3    H112255   0.652   1.910   0.580 -0.5478 -1.3455 -0.8042
 4083TIP3    H212256   0.539   1.896   0.680 -0.1528 -0.9424 -0.2925
 4084TIP3   OH212257   3.798   0.983   1.827  0.1854 -0.8951  1.2040
 4084TIP3    H112258   3.794   1.075   1.802  1.8561 -0.8348  1.0480
 4084TIP3    H212259   3.755   0.979   1.912  0.7284  0.1656  1.5396
 4085TIP3   OH212260   3.817   2.027   0.827 -0.3232  0.3465  0.3748
 4085TIP3    H112261   3.781   2.101   0.778  0.1937  1.0542  1.0436
 4085TIP3    H212262   3.907   2.054   0.847 -0.1454 -0.4484  0.6701
 4086TIP3   OH212263   2.241   5.004   4.873 -0.1265 -0.1401 -0.2404
 4086TIP3    H112264   2.185   5.008   4.796 -1.3923 -1.6686  0.5240
 4086TIP3    H212265   2.209   5.073   4.931 -1.7290 -1.4112  0.4616
 4087TIP3   OH212266   5.532   5.307   1.511  0.2498  0.3527  0.0073
 4087TIP3    H112267   5.608   5.349   1.470  1.2779 -0.4722  0.9791
 4087TIP3    H212268   5.501   5.245   1.445  1.9157 -1.0000  0.3985
 4088TIP3   OH212269   3.605   2.438   4.822 -0.2192 -0.1584 -0.3719
 4088TIP3    H112270   3.578   2.440   4.730 -0.3119 -0.5421 -0.3505
 4088TIP3    H212271   3.689   2.391   4.821  0.7663  1.4944 -0.5189
 4089TIP3   OH212272   0.873   5.984   1.951  0.0033  0.0184  0.0742
 4089TIP3    H112273   0.884   5.957   1.860  1.1739 -0.6982  0.4131
 4089TIP3    H212274   0.893   5.905   2.002 -1.3599  0.1997  0.9467
 4090TIP3   OH212275   0.192   1.137   2.361 -0.9252  0.5070  0.5196
 4090TIP3    H112276   0.122   1.072   2.357 -2.1028  1.7984 -1.9279
 4090TIP3    H212277   0.169   1.201   2.293  1.3678  2.2740  1.3000
 4091TIP3   OH212278   2.012   2.922   3.407 -0.8401  0.0310  0.2146
 4091TIP3    H112279   2.033   2.852   3.469 -2.4303 -0.7268 -0.0355
 4091TIP3    H212280   2.026   2.883   3.321 -0.6444  0.4007  0.0752
 4092TIP3   OH212281   5.986   5.433   4.045  0.2313 -0.1024 -0.0420
 4092TIP3    H112282   5.892   5.432   4.065  0.2129 -0.9754 -0.1343
 4092TIP3    H212283   6.019   5.351   4.082  0.9694  0.2326  0.0415
 4093TIP3   OH212284   0.979   5.029   4.683 -0.2201 -0.8648 -0.9489
 4093TIP3    H112285   0.893   5.055   4.649 -1.0906 -1.0214  1.0234
 4093TIP3    H212286   0.989   5.079   4.764  0.5839 -2.4732 -0.0248
 4094TIP3   OH212287   4.376   4.043   2.401  0.0080 -0.2201  0.0775
 4094TIP3    H112288   4.340   4.131   2.405 -1.2230 -0.4227 -3.3407
 4094TIP3    H212289   4.463   4.053   2.362  0.9119 -0.3977  1.9010
 4095TIP3   OH212290   5.397   5.098   1.756  0.3367  0.0129 -0.0088
 4095TIP3    H112291   5.403   5.193   1.749 -0.5290  0.0648 -0.2220
 4095TIP3    H212292   5.303   5.080   1.748  0.2046 -0.6700  2.4448
 4096TIP3   OH212293   5.832   2.042   0.779  0.2144 -0.3099  0.1140
 4096TIP3    H112294   5.924   2.060   0.801  0.0534  0.0712  0.4767
 4096TIP3    H212295   5.829   1.947   0.768  0.7941 -0.2663 -0.5502
 4097TIP3   OH212296   5.472   0.437   2.353  0.3257 -0.9579 -0.1463
 4097TIP3    H112297   5.501   0.510   2.299  0.4654 -2.1340 -1.7363
 4097TIP3    H212298   5.391   0.468   2.394  1.1108  0.5541  0.3267
 4098TIP3   OH212299   1.936   3.181   0.157  0.6429  0.5985  0.1540
 4098TIP3    H112300   2.018   3.230   0.157  0.4161  0.9901  1.0245
 4098TIP3    H212301   1.927   3.148   0.246 -0.3495  0.9075  0.1748
 4099TIP3   OH212302   2.190   3.183   2.033 -0.5069 -0.7430  0.3478
 4099TIP3    H112303   2.229   3.244   1.971 -0.7611 -0.7423  0.1869
 4099TIP3    H212304   2.096   3.194   2.022 -0.5875 -2.1573 -0.6942
 4100TIP3   OH212305   0.205   5.140   1.102  0.5819  0.4240  0.4900
 4100TIP3    H112306   0.202   5.235   1.114  0.3168  0.4754  0.0255
 4100TIP3    H212307   0.273   5.127   1.036  0.3494  0.3225  0.2680
 4101TIP3   OH212308   1.212   3.447   1.769 -0.1169 -0.0446  0.0704
 4101TIP3    H112309   1.151   3.454   1.842  0.6384 -0.7512  0.7839
 4101TIP3    H212310   1.233   3.537   1.746  0.4152  0.1814  1.3797
 4102TIP3   OH212311   4.181   4.997   2.591 -0.0122 -0.0066 -0.3141
 4102TIP3    H112312   4.235   4.920   2.573 -0.2200 -0.8256  2.1739
 4102TIP3    H212313   4.097   4.977   2.550 -0.4055 -1.6546  1.1569
 4103TIP3   OH212314   5.330   1.539   3.771 -0.4490 -0.2042 -0.0441
 4103TIP3    H112315   5.394   1.472   3.796  1.2933  0.7963 -1.5930
 4103TIP3    H212316   5.381   1.606   3.727 -2.4109  1.3089 -0.1460
 4104TIP3   OH212317   6.165   4.637   4.423 -0.0071  0.1035  0.9541
 4104TIP3    H112318   6.255   4.639   4.390 -0.0153  1.9593  0.9205
 4104TIP3    H212319   6.158   4.716   4.478 -2.3895  1.6208 -1.2747
 4105TIP3   OH212320   4.892   4.049   1.769 -0.0097 -0.2070  0.1440
 4105TIP3    H112321   4.798   4.057   1.758 -0.3379  0.3543  2.7410
 4105TIP3    H212322   4.921   4.137   1.793  1.0536 -0.5406  0.1370
 4106TIP3   OH212323   4.893   0.582   1.700  0.2936  0.0832  0.2706
 4106TIP3    H112324   4.821   0.623   1.653  1.3366  2.5911  0.6645
 4106TIP3    H212325   4.852   0.523   1.762 -1.6044  2.7213  1.7013
 4107TIP3   OH212326   5.247   2.764   3.989 -0.3429 -0.1148  0.4135
 4107TIP3    H112327   5.171   2.760   4.048  1.0454  0.2493  2.3170
 4107TIP3    H212328   5.311   2.706   4.028  0.7470  0.3719 -0.5875
 4108TIP3   OH212329   5.262   2.470   1.198 -0.3456 -0.1696  0.3868
 4108TIP3    H112330   5.278   2.555   1.156 -0.7124 -0.0170  0.5524
 4108TIP3    H212331   5.350   2.432   1.208 -0.3668 -1.2990 -2.6914
 4109TIP3   OH212332   0.564   2.057   4.386  0.7520  0.7481  0.0677
 4109TIP3    H112333   0.592   2.141   4.424 -0.7142  0.6000  1.6067
 4109TIP3    H212334   0.511   2.017   4.455 -0.4297 -0.4399 -1.4796
 4110TIP3   OH212335   0.944   1.683   1.930 -0.4284  0.1826  0.6190
 4110TIP3    H112336   0.929   1.596   1.966  0.2214 -1.3810 -2.5948
 4110TIP3    H212337   0.899   1.683   1.846  0.3848  2.6186  0.0997
 4111TIP3   OH212338   0.879   3.820   1.097 -0.6427  0.2771 -0.2995
 4111TIP3    H112339   0.904   3.808   1.005 -0.4353 -2.3013  0.0294
 4111TIP3    H212340   0.955   3.791   1.147 -0.8827  1.3091  0.7214
 4112TIP3   OH212341   1.329   2.584   3.319  0.0866 -0.0254  0.4991
 4112TIP3    H112342   1.307   2.493   3.338  0.4962 -0.0937  0.6686
 4112TIP3    H212343   1.257   2.616   3.264  1.1295 -1.1723 -1.6577
 4113TIP3   OH212344   0.712   2.684   5.156 -0.1741 -0.4234 -0.5292
 4113TIP3    H112345   0.799   2.693   5.119 -0.9389  0.4560 -2.2386
 4113TIP3    H212346   0.700   2.590   5.167  1.1939 -0.5179  0.3009
 4114TIP3   OH212347   3.904   2.959   4.756  0.1241  0.5995  0.7468
 4114TIP3    H112348   3.878   2.919   4.840 -0.0609  0.4465  0.6191
 4114TIP3    H212349   3.974   3.019   4.779  0.7338 -0.1447  0.8847
 4115TIP3   OH212350   2.936   3.042   2.983 -0.3162 -0.4369  0.1007
 4115TIP3    H112351   2.865   2.978   2.994  0.4310 -1.0958  1.3709
 4115TIP3    H212352   2.999   2.999   2.926 -0.4899 -0.2487 -0.2312
 4116TIP3   OH212353   3.644   3.223   2.085 -0.4770 -0.1539 -0.2770
 4116TIP3    H112354   3.717   3.161   2.091 -0.3348  0.0486  0.1708
 4116TIP3    H212355   3.604   3.221   2.173  0.2404  1.2471  0.1098
 4117TIP3   OH212356   2.719   3.479   2.650 -0.5422 -0.3375  0.4451
 4117TIP3    H112357   2.730   3.432   2.733 -0.8160  1.4404  1.5389
 4117TIP3    H212358   2.808   3.490   2.617 -0.1309  1.3771  1.9644
 4118TIP3   OH212359   4.719   5.782   4.697  0.1689  0.4284 -0.0418
 4118TIP3    H112360   4.774   5.752   4.625  0.0887  1.0258 -0.3573
 4118TIP3    H212361   4.765   5.751   4.776  0.9560  0.9054 -0.3008
 4119TIP3   OH212362   2.591   0.493   3.525 -0.0310 -0.3060  1.0605
 4119TIP3    H112363   2.681   0.461   3.516  0.1632  0.4292  0.3355
 4119TIP3    H212364   2.583   0.562   3.460 -1.3143 -0.7686  0.6943
 4120TIP3   OH212365   4.091   1.038   3.483 -0.7627  0.5082 -0.0051
 4120TIP3    H112366   4.173   1.071   3.519 -1.1743  2.6170 -0.8280
 4120TIP3    H212367   4.024   1.076   3.540 -1.2378  0.1677 -0.3326
 4121TIP3   OH212368   3.095   3.215   4.609 -0.4812  0.3238 -0.3998
 4121TIP3    H112369   3.047   3.286   4.567  1.2341  1.3084 -0.7885
 4121TIP3    H212370   3.123   3.159   4.537 -1.0854 -0.3010 -0.1660
 4122TIP3   OH212371   1.295   4.578   3.929  0.8097  0.4690  0.0622
 4122TIP3    H112372   1.288   4.673   3.918 -2.6233  0.2995 -0.2749
 4122TIP3    H212373   1.223   4.543   3.877  0.6109 -2.1712  1.9538
 4123TIP3   OH212374   4.119   1.714   1.750  0.1271 -0.4591 -0.5845
 4123TIP3    H112375   4.106   1.724   1.844 -0.4997 -0.4187 -0.6665
 4123TIP3    H212376   4.179   1.640   1.741  0.6164 -0.1159 -0.1370
 4124TIP3   OH212377   4.411   5.732   2.076 -0.4284 -0.0050  0.2712
 4124TIP3    H112378   4.348   5.683   2.129 -0.9683 -1.0484 -1.2510
 4124TIP3    H212379   4.358   5.778   2.011  0.3198 -2.5832 -2.4220
 4125TIP3   OH212380   2.690   2.326   0.970 -0.3085 -0.0622  0.4337
 4125TIP3    H112381   2.603   2.332   1.008 -0.2836  0.4389  0.4115
 4125TIP3    H212382   2.678   2.340   0.876 -0.2144 -0.0667  0.4201
 4126TIP3   OH212383   4.671   5.097   1.005 -0.5474  0.6532  0.3492
 4126TIP3    H112384   4.698   5.030   1.068 -1.0230 -0.8457 -0.9948
 4126TIP3    H212385   4.718   5.175   1.032  2.1409 -0.8809  0.3943
 4127TIP3   OH212386   0.465   5.177   0.627 -0.4049  0.1717  0.5836
 4127TIP3    H112387   0.502   5.266   0.631 -1.9696  0.9391 -0.8197
 4127TIP3    H212388   0.488   5.145   0.540 -0.0572 -0.7187  0.9965
 4128TIP3   OH212389   3.601   3.015   3.873 -0.0817  0.1971 -0.4667
 4128TIP3    H112390   3.680   2.996   3.923  0.4039  0.7584 -1.0131
 4128TIP3    H212391   3.530   3.004   3.936  0.5186  0.9425  0.3679
 4129TIP3   OH212392   5.642   4.219   0.293  0.4048  0.1735  0.1061
 4129TIP3    H112393   5.552   4.187   0.294 -0.2105  1.5779 -2.2678
 4129TIP3    H212394   5.635   4.309   0.261  2.6368  0.3742  0.0361
 4130TIP3   OH212395   2.727   1.514   1.769 -0.1781  0.5958 -0.3526
 4130TIP3    H112396   2.818   1.505   1.740 -0.2956  1.2122 -0.9380
 4130TIP3    H212397   2.708   1.432   1.815  1.3049  1.2735  1.5804
 4131TIP3   OH212398   0.048   5.341   0.219 -0.4744  0.1892 -0.1045
 4131TIP3    H112399   0.035   5.316   0.310  0.2033 -0.4342 -0.1712
 4131TIP3    H212400   0.125   5.292   0.191 -0.7987  0.2096 -1.0730
 4132TIP3   OH212401   3.874   4.492   4.758  0.6351 -0.1295  0.7535
 4132TIP3    H112402   3.873   4.435   4.835  1.7601 -0.8130  0.2767
 4132TIP3    H212403   3.858   4.434   4.684 -0.5078  0.5391  0.4633
 4133TIP3   OH212404   2.067   5.873   4.860  0.2212 -0.3568  0.3173
 4133TIP3    H112405   2.026   5.806   4.807 -2.3167  0.7960  0.6691
 4133TIP3    H212406   1.996   5.907   4.915  0.9942  3.4168 -0.7071
 4134TIP3   OH212407  -0.000   3.579   4.789 -0.2044  0.5283  0.1631
 4134TIP3    H112408   0.063   3.508   4.801  0.0624  0.9021  1.0183
 4134TIP3    H212409  -0.021   3.609   4.878  0.8755  2.5517 -0.2156
 4135TIP3   OH212410   1.086   0.199   2.294 -0.0554  0.4969 -0.3129
 4135TIP3    H112411   1.116   0.215   2.383  1.3585 -0.7176 -0.5229
 4135TIP3    H212412   1.020   0.266   2.278  0.4092  1.3826  1.2785
 4136TIP3   OH212413   2.359   3.446   2.203  0.6961  0.8382 -0.2745
 4136TIP3    H112414   2.373   3.358   2.239 -0.6428  0.2276 -1.1666
 4136TIP3    H212415   2.429   3.498   2.241  2.6738 -1.0080 -1.1622
 4137TIP3   OH212416   6.113   2.345   4.221  0.1792 -0.4114  0.0246
 4137TIP3    H112417   6.196   2.320   4.181 -0.3844 -1.2626 -0.6509
 4137TIP3    H212418   6.124   2.438   4.244  1.0331 -0.3047 -0.7760
 4138TIP3   OH212419   2.438   3.615   1.739 -0.8043 -0.2457 -0.2903
 4138TIP3    H112420   2.439   3.542   1.801 -1.3367  0.2540  0.3269
 4138TIP3    H212421   2.466   3.577   1.656 -0.9168 -1.1150  0.0623
 4139TIP3   OH212422   4.648   4.751   1.685  0.1014  0.6842 -0.4204
 4139TIP3    H112423   4.713   4.821   1.686 -0.0094  0.7854  0.3631
 4139TIP3    H212424   4.569   4.791   1.720  0.5899 -0.3291  2.0568
 4140TIP3   OH212425   3.460   5.911   3.028 -0.5020 -0.1232  0.2616
 4140TIP3    H112426   3.407   5.983   3.061 -0.3056  0.5036 -0.7628
 4140TIP3    H212427   3.431   5.899   2.937  0.3421 -0.4864  0.0267
 4141TIP3   OH212428   2.233   1.337   4.909  0.4909 -0.0852 -0.1557
 4141TIP3    H112429   2.156   1.363   4.960  0.8128  0.0878  0.2556
 4141TIP3    H212430   2.202   1.267   4.852 -0.2872  0.8682 -0.9467
 4142TIP3   OH212431   0.935   5.497   3.315  0.3177  0.5502  0.1114
 4142TIP3    H112432   0.907   5.553   3.243  0.5181 -1.1853 -1.3831
 4142TIP3    H212433   0.896   5.537   3.393  0.8000  2.9617 -0.8053
 4143TIP3   OH212434   1.333   1.077   2.979 -0.3124  0.0477  0.2570
 4143TIP3    H112435   1.429   1.078   2.978 -0.2766 -1.0123  0.6413
 4143TIP3    H212436   1.307   1.128   2.902  0.5562  0.5934  0.3227
 4144TIP3   OH212437   3.487   3.952   3.012 -0.3131 -0.1954  0.3277
 4144TIP3    H112438   3.576   3.989   3.019 -0.8237  0.7902  2.2485
 4144TIP3    H212439   3.477   3.934   2.918  1.2664  1.3345 -0.2043
 4145TIP3   OH212440   1.726   5.031   1.746 -0.0878 -0.0063  0.2185
 4145TIP3    H112441   1.791   4.967   1.719  0.3769  0.4717  0.2039
 4145TIP3    H212442   1.774   5.092   1.803 -0.4682  0.4678  0.0395
 4146TIP3   OH212443   3.526   1.853   0.176  0.6582  0.0808  0.8423
 4146TIP3    H112444   3.500   1.911   0.247  0.2852 -1.6382  2.1911
 4146TIP3    H212445   3.444   1.814   0.146  0.9946 -0.5219  0.6849
 4147TIP3   OH212446   0.901   2.241   1.477 -0.4707  0.4780 -0.2061
 4147TIP3    H112447   0.842   2.293   1.422 -0.0449  1.3908  0.1818
 4147TIP3    H212448   0.972   2.215   1.418 -0.2716  1.0298 -0.2169
 4148TIP3   OH212449   2.487   4.220   3.587 -0.5365 -0.3144  0.5677
 4148TIP3    H112450   2.488   4.314   3.572 -0.0886 -0.0763  1.9622
 4148TIP3    H212451   2.425   4.186   3.522  0.3165  0.7532 -0.8657
 4149TIP3   OH212452   6.316   1.043   0.203  0.0485 -0.6247 -0.2057
 4149TIP3    H112453   6.384   1.099   0.242  0.4780 -1.4170  0.2102
 4149TIP3    H212454   6.319   1.065   0.109 -1.9669  2.3271  0.2919
 4150TIP3   OH212455   4.163   1.142   2.903  0.3827 -0.1547 -0.8545
 4150TIP3    H112456   4.225   1.070   2.893 -0.8704 -1.2858 -0.7873
 4150TIP3    H212457   4.108   1.116   2.977  1.0423  1.7517  0.3818
 4151TIP3   OH212458   2.939   4.000   2.131 -0.1732 -0.5432  0.2020
 4151TIP3    H112459   2.966   4.042   2.213 -0.1391  2.0377 -1.0340
 4151TIP3    H212460   2.852   4.034   2.115  0.1351 -0.3979 -1.2359
 4152TIP3   OH212461   5.363   1.567   1.391  0.6062 -0.1459 -0.0065
 4152TIP3    H112462   5.407   1.526   1.466  0.5387 -1.0493 -0.4397
 4152TIP3    H212463   5.434   1.593   1.332  0.6001 -1.8062 -0.8086
 4153TIP3   OH212464   1.804   3.171   5.138 -0.2666  0.8131 -0.0094
 4153TIP3    H112465   1.877   3.109   5.135 -0.1199  0.8442  1.6763
 4153TIP3    H212466   1.828   3.239   5.075  0.0236 -0.3401 -1.1810
 4154TIP3   OH212467   4.469   4.531   1.633  0.1080 -0.8699 -0.2374
 4154TIP3    H112468   4.383   4.567   1.658  0.1505 -1.0558  0.1783
 4154TIP3    H212469   4.528   4.606   1.639  0.5986 -1.3930  2.6214
 4155TIP3   OH212470   6.002   5.213   3.193 -0.1852  0.2634  0.3847
 4155TIP3    H112471   6.066   5.237   3.261 -0.1388 -0.9282  0.7894
 4155TIP3    H212472   5.919   5.210   3.240  0.0869 -2.3241  0.8802
 4156TIP3   OH212473   6.167   3.862   2.465  0.8570  0.2239 -0.1864
 4156TIP3    H112474   6.112   3.785   2.451 -1.0761  0.7694  3.1916
 4156TIP3    H212475   6.123   3.933   2.419  2.1756 -0.4238 -2.5802
 4157TIP3   OH212476   2.051   1.335   1.974 -0.0531  0.1168 -0.2089
 4157TIP3    H112477   2.088   1.386   2.045 -0.0300 -0.0451 -0.1046
 4157TIP3    H212478   2.067   1.244   1.998  0.6944  0.0735 -0.8183
 4158TIP3   OH212479   0.789   1.040   3.161  0.0227  0.1134 -0.6182
 4158TIP3    H112480   0.851   1.088   3.105 -0.7092  0.7532 -0.9049
 4158TIP3    H212481   0.766   0.962   3.109 -2.5358  1.8829 -2.4242
 4159TIP3   OH212482   1.117   5.901   0.296  0.4918 -0.0338  0.8840
 4159TIP3    H112483   1.126   5.934   0.207 -0.5282 -0.8914  0.4416
 4159TIP3    H212484   1.170   5.821   0.298  0.9994  0.3104  1.2252
 4160TIP3   OH212485   2.261   0.292   0.470 -0.6839  0.1898  0.3648
 4160TIP3    H112486   2.190   0.356   0.483 -0.4524  0.0140  2.9907
 4160TIP3    H212487   2.326   0.315   0.536 -0.0904 -2.0597  0.6324
 4161TIP3   OH212488   0.552   1.751   3.694  0.2000 -0.3972 -0.8783
 4161TIP3    H112489   0.569   1.845   3.701 -1.4654 -0.0864 -0.5424
 4161TIP3    H212490   0.636   1.710   3.713  0.4222  0.9716  1.4978
 4162TIP3   OH212491   3.951   4.006   4.576  0.1210 -0.3918 -0.5834
 4162TIP3    H112492   3.882   3.957   4.529 -0.2656 -0.0057 -0.4252
 4162TIP3    H212493   3.965   3.956   4.656 -0.5378 -0.0518 -0.2466
 4163TIP3   OH212494   4.824   4.518   5.114 -0.2021 -0.1465 -0.0654
 4163TIP3    H112495   4.820   4.526   5.019  0.1501  1.0467  0.0014
 4163TIP3    H212496   4.912   4.549   5.138 -0.6115  0.4662  0.7141
 4164TIP3   OH212497   1.245   5.728   2.360  0.7200  0.4843  0.3916
 4164TIP3    H112498   1.261   5.696   2.271  1.7177 -2.0137  1.3680
 4164TIP3    H212499   1.151   5.715   2.374  0.6229  0.5702 -0.1840
 4165TIP3   OH212500   3.837  -0.001   4.568 -0.2400 -0.1343  0.0462
 4165TIP3    H112501   3.748   0.011   4.537 -0.1431 -1.3746 -0.7463
 4165TIP3    H212502   3.832   0.018   4.662 -1.4454 -0.6940  0.1131
 4166TIP3   OH212503   6.040   3.609   4.629  0.1121  0.9132  0.6899
 4166TIP3    H112504   6.076   3.542   4.686 -1.2631 -0.8271 -0.3781
 4166TIP3    H212505   6.102   3.615   4.556 -0.2314  0.0724  0.3151
 4167TIP3   OH212506   5.088   0.073   1.810 -0.4803 -0.0478 -0.0313
 4167TIP3    H112507   5.033   0.053   1.735 -0.5602  0.0704 -0.0037
 4167TIP3    H212508   5.161   0.123   1.774 -1.2412  1.2706  0.1668
 4168TIP3   OH212509   5.751   2.443   4.833 -0.1575 -0.6519 -0.0245
 4168TIP3    H112510   5.711   2.499   4.766 -0.0505  1.0021  1.2565
 4168TIP3    H212511   5.779   2.365   4.784 -0.4848  0.2940 -1.8180
 4169TIP3   OH212512   3.155   5.310   0.483  0.1891  0.3118  0.6899
 4169TIP3    H112513   3.225   5.362   0.444  0.8332 -0.6555  0.5163
 4169TIP3    H212514   3.173   5.221   0.454 -0.5103 -0.1091  1.5144
 4170TIP3   OH212515   3.048   1.848   2.894  0.1064 -0.6074 -0.2509
 4170TIP3    H112516   3.136   1.819   2.869 -0.5602 -0.9500 -2.4335
 4170TIP3    H212517   3.006   1.869   2.811 -1.4910  0.7333  0.8381
 4171TIP3   OH212518   3.827   1.111   1.134 -0.2337 -0.0535 -0.7189
 4171TIP3    H112519   3.757   1.112   1.199  0.1712 -2.1170 -0.1966
 4171TIP3    H212520   3.815   1.028   1.087  1.7412 -0.3720 -0.7431
 4172TIP3   OH212521   4.808   5.297   1.111  0.2147  0.0891  0.3949
 4172TIP3    H112522   4.797   5.308   1.205 -0.0871 -0.0456  0.3783
 4172TIP3    H212523   4.899   5.320   1.094  0.8739 -1.8853  1.0154
 4173TIP3   OH212524   4.546   2.892   4.188  0.3919 -0.6214  0.2514
 4173TIP3    H112525   4.476   2.951   4.215  1.0116  0.3575 -0.2242
 4173TIP3    H212526   4.599   2.880   4.266  1.0408  0.5834  0.0232
 4174TIP3   OH212527   2.001   5.614   2.598 -0.0273 -0.7678 -0.2118
 4174TIP3    H112528   1.947   5.658   2.532 -0.5504  0.9177  1.2797
 4174TIP3    H212529   1.941   5.596   2.671  0.9759 -0.7564  0.6370
 4175TIP3   OH212530   1.783   0.868   4.566 -0.0843 -0.0086 -0.3538
 4175TIP3    H112531   1.695   0.904   4.561  0.1933  0.8749  0.7069
 4175TIP3    H212532   1.840   0.942   4.544  0.4338 -0.2534  0.1418
 4176TIP3   OH212533   6.011   1.114   1.407  0.2599 -0.7380  0.8046
 4176TIP3    H112534   5.942   1.086   1.468  0.7700 -0.2272  1.6479
 4176TIP3    H212535   6.044   1.033   1.369 -1.9477 -0.9037 -0.9365
 4177TIP3   OH212536   1.100   1.824   5.044 -0.1184  0.4544 -0.1942
 4177TIP3    H112537   1.069   1.843   4.956  0.3410  0.3277 -0.3874
 4177TIP3    H212538   1.020   1.822   5.098 -0.2741  1.9177 -0.3336
 4178TIP3   OH212539   0.241   1.951   4.168 -0.0794  0.3574  0.5267
 4178TIP3    H112540   0.189   1.897   4.228 -1.5134  0.4367 -0.5926
 4178TIP3    H212541   0.180   1.975   4.098  1.3558  0.8487 -0.6096
 4179TIP3   OH212542   1.114   1.548   1.288  0.1174 -0.3798 -0.4432
 4179TIP3    H112543   1.162   1.582   1.363 -0.7408 -0.9534  0.3916
 4179TIP3    H212544   1.161   1.582   1.211  0.5521  0.8666  0.3457
 4180TIP3   OH212545   2.727   1.939   3.727 -0.2085 -0.5588 -0.4159
 4180TIP3    H112546   2.795   1.962   3.664  0.5799 -4.0838 -1.0432
 4180TIP3    H212547   2.775   1.910   3.805 -1.0060 -1.5868 -0.2892
 4181TIP3   OH212548   0.438   3.359   2.084  0.2583  0.3525 -0.5406
 4181TIP3    H112549   0.401   3.436   2.127  0.1239  0.0220 -0.0598
 4181TIP3    H212550   0.378   3.287   2.106 -0.2944  0.3320 -1.9962
 4182TIP3   OH212551   3.623   5.425   2.543 -0.5442 -0.0698 -0.1558
 4182TIP3    H112552   3.547   5.415   2.486  0.2181  0.1288 -1.2311
 4182TIP3    H212553   3.634   5.339   2.584  0.2747 -0.9478 -2.0915
 4183TIP3   OH212554   1.530   2.433   2.657 -0.2946 -0.4884  0.1081
 4183TIP3    H112555   1.485   2.516   2.675 -0.4315 -0.6262  0.4188
 4183TIP3    H212556   1.623   2.455   2.660 -0.3323  0.0718 -1.8594
 4184TIP3   OH212557   1.715   5.419   2.488 -0.5350  0.3870 -0.4746
 4184TIP3    H112558   1.805   5.446   2.501 -0.2654 -0.4075 -0.6334
 4184TIP3    H212559   1.665   5.468   2.553  0.3301 -1.0123  1.3130
 4185TIP3   OH212560   6.041   1.990   1.463  0.3487 -0.2321 -0.1358
 4185TIP3    H112561   5.966   2.013   1.518  0.6841  1.4503 -0.3326
 4185TIP3    H212562   6.048   1.895   1.471 -0.2728 -0.1498  1.8520
 4186TIP3   OH212563   2.673   1.340   4.793 -0.2565  0.5049  0.5179
 4186TIP3    H112564   2.604   1.403   4.816  0.2793  0.8116  1.3554
 4186TIP3    H212565   2.627   1.257   4.780 -1.0115  1.1109 -0.8760
 4187TIP3   OH212566   5.810   3.584   1.917  0.4161 -0.0585 -0.7426
 4187TIP3    H112567   5.832   3.594   2.010  1.0490 -2.0324 -0.6478
 4187TIP3    H212568   5.886   3.621   1.871  1.1013 -1.0565 -0.4425
 4188TIP3   OH212569   0.827   5.003   4.427 -0.2263 -0.1362  0.0992
 4188TIP3    H112570   0.753   4.948   4.402  0.7865 -0.7449 -1.7206
 4188TIP3    H212571   0.787   5.084   4.461 -1.7244 -0.0096 -1.8343
 4189TIP3   OH212572   5.036   0.961   3.651  0.2101 -0.7061  0.0822
 4189TIP3    H112573   5.034   1.024   3.723 -1.5563  0.9393 -1.3083
 4189TIP3    H212574   5.112   0.988   3.599  2.4009 -2.8014  1.9603
 4190TIP3   OH212575   5.235   5.472   4.204  0.4586 -0.1659 -0.2137
 4190TIP3    H112576   5.306   5.492   4.143  0.6530 -1.0190 -0.2699
 4190TIP3    H212577   5.279   5.464   4.289  0.3008  0.1977 -0.0953
 4191TIP3   OH212578   2.228   2.898   5.001  0.3742 -0.5641  0.1882
 4191TIP3    H112579   2.272   2.847   4.933 -1.6784 -0.0094 -1.6896
 4191TIP3    H212580   2.282   2.976   5.010  0.7575 -0.7025 -0.7527
 4192TIP3   OH212581   2.580   5.849   3.560 -0.3450  0.5041 -0.0389
 4192TIP3    H112582   2.590   5.860   3.654  1.6711 -1.1040  0.0195
 4192TIP3    H212583   2.582   5.938   3.525  1.0895  1.0378  1.2830
 4193TIP3   OH212584   2.235   5.595   3.531  0.3183 -0.1688  0.8623
 4193TIP3    H112585   2.295   5.621   3.461 -0.9670  1.5291  0.3125
 4193TIP3    H212586   2.238   5.499   3.531  0.9549 -0.1972 -1.0040
 4194TIP3   OH212587   3.634   1.069   1.392  0.9546 -0.0805  0.2062
 4194TIP3    H112588   3.671   1.157   1.379  2.5096 -0.5236  1.3161
 4194TIP3    H212589   3.606   1.068   1.483  1.9194 -1.0456  0.5123
 4195TIP3   OH212590   1.968   3.438   2.896  0.2756  0.3460 -0.4146
 4195TIP3    H112591   1.873   3.439   2.883  0.1577 -0.2239  0.3407
 4195TIP3    H212592   1.995   3.350   2.870  0.6964  0.6987 -1.2145
 4196TIP3   OH212593   5.276   4.273   2.201  0.7179 -0.6158  0.0811
 4196TIP3    H112594   5.212   4.261   2.271  0.7991 -2.1543 -0.0799
 4196TIP3    H212595   5.263   4.198   2.144  2.1393 -0.5353 -0.3832
 4197TIP3   OH212596   0.404   2.279   0.770  0.1724  0.2096  0.1503
 4197TIP3    H112597   0.325   2.324   0.741 -0.6474 -0.8263  0.6772
 4197TIP3    H212598   0.466   2.349   0.791 -0.1029  1.0205 -1.5896
 4198TIP3   OH212599   5.484   5.777   3.145  0.1289 -1.3331  0.0596
 4198TIP3    H112600   5.456   5.702   3.092  0.7687 -0.4624 -1.5803
 4198TIP3    H212601   5.464   5.853   3.091  1.2566 -0.4311  0.8648
 4199TIP3   OH212602   5.509   1.349   3.856  0.2028 -0.5462  0.0260
 4199TIP3    H112603   5.499   1.287   3.929  0.0830  0.7920  1.1887
 4199TIP3    H212604   5.603   1.347   3.837  0.4520  0.0509  1.1159
 4200TIP3   OH212605   2.750   2.845   0.680 -1.0180  0.1222  0.5068
 4200TIP3    H112606   2.687   2.907   0.643  0.8762  2.2241  0.6046
 4200TIP3    H212607   2.832   2.894   0.684  0.1591 -1.8447  2.2945
 4201TIP3   OH212608   2.432   1.382   3.285 -0.0115  0.0546 -0.4594
 4201TIP3    H112609   2.359   1.435   3.317 -0.1417 -0.4563  0.1092
 4201TIP3    H212610   2.400   1.346   3.202 -0.3024  0.0512 -0.3484
 4202TIP3   OH212611   0.002   0.268   0.249  0.0703 -0.3778  0.0908
 4202TIP3    H112612   0.087   0.242   0.213 -0.1123 -0.7413 -0.0802
 4202TIP3    H212613  -0.001   0.227   0.336  1.0598  1.5448  1.0966
 4203TIP3   OH212614   3.719   4.593   0.699  0.8639 -0.1236  0.0571
 4203TIP3    H112615   3.754   4.544   0.773  0.1652 -0.1748  0.3617
 4203TIP3    H212616   3.645   4.541   0.668 -0.1046  0.8703  0.5942
 4204TIP3   OH212617   4.157   4.197   4.641  0.1707 -0.2776 -0.0782
 4204TIP3    H112618   4.153   4.113   4.596  0.3059 -0.4886  0.2932
 4204TIP3    H212619   4.175   4.174   4.733  0.4324  0.1676 -0.0142
 4205TIP3   OH212620   1.885   1.823   4.215 -0.5594 -0.2530 -0.1959
 4205TIP3    H112621   1.921   1.773   4.142  1.0221  1.0633 -0.3499
 4205TIP3    H212622   1.806   1.864   4.180 -1.2095 -1.6221 -0.4043
 4206TIP3   OH212623   0.053   4.252   2.304  0.1603 -0.2675 -0.1954
 4206TIP3    H112624  -0.015   4.266   2.371  0.0802  0.4674 -0.4195
 4206TIP3    H212625   0.018   4.181   2.250  0.4156 -1.1752  0.7760
 4207TIP3   OH212626   1.767   1.297   4.383  0.0612 -0.4755  0.5455
 4207TIP3    H112627   1.818   1.377   4.372  1.0793 -1.1107  0.5564
 4207TIP3    H212628   1.775   1.252   4.299  0.2244 -0.9865  0.8334
 4208TIP3   OH212629   4.735   4.941   0.285 -0.1524 -0.1069 -0.4926
 4208TIP3    H112630   4.762   4.872   0.225  0.9351 -0.9457  0.8813
 4208TIP3    H212631   4.793   4.931   0.361  0.4779  2.7042 -0.4690
 4209TIP3   OH212632   5.075   5.755   0.944  0.6663  0.0750 -0.0776
 4209TIP3    H112633   5.168   5.767   0.926  0.7689 -0.5790 -0.0299
 4209TIP3    H212634   5.030   5.817   0.886  1.1100  0.0489 -0.4515
 4210TIP3   OH212635   0.346   5.315   5.172  0.5187 -0.5694  0.2043
 4210TIP3    H112636   0.378   5.231   5.204  3.0593 -0.5683 -2.0211
 4210TIP3    H212637   0.343   5.305   5.077  1.0798  1.8845 -0.1305
 4211TIP3   OH212638   5.955   1.167   4.871 -0.0707 -0.5463 -0.1643
 4211TIP3    H112639   5.995   1.122   4.946 -2.7165 -1.3853  0.8764
 4211TIP3    H212640   5.935   1.255   4.904  0.5274 -0.2753 -0.5270
 4212TIP3   OH212641   1.772   0.659   1.518  0.2685  0.2461  0.2417
 4212TIP3    H112642   1.773   0.570   1.553 -0.0246 -0.5108 -1.5856
 4212TIP3    H212643   1.799   0.714   1.592 -1.7018 -1.0957  2.0638
 4213TIP3   OH212644   1.312   0.123   4.538 -0.4905 -0.1314  0.1369
 4213TIP3    H112645   1.367   0.180   4.592  0.0893 -0.7801  0.2416
 4213TIP3    H212646   1.251   0.083   4.600  1.1148 -1.9992  0.5897
 4214TIP3   OH212647   1.135   3.064   2.862 -0.5049  0.4734  0.2320
 4214TIP3    H112648   1.147   3.098   2.951  0.9489  1.9615 -0.4832
 4214TIP3    H212649   1.220   3.026   2.839 -1.0549 -0.4789 -0.3267
 4215TIP3   OH212650   5.639   2.511   2.860 -0.4464  0.2792  0.1979
 4215TIP3    H112651   5.625   2.483   2.770  0.4388  1.0007 -0.1748
 4215TIP3    H212652   5.732   2.533   2.865 -0.3447 -0.3303  1.4564
 4216TIP3   OH212653   1.087   2.316   2.192 -0.2138  0.6351 -0.2167
 4216TIP3    H112654   1.079   2.257   2.117  0.6345  0.5753 -0.2701
 4216TIP3    H212655   1.175   2.354   2.183  0.2835 -0.0926  1.2567
 4217TIP3   OH212656   3.634   5.796   0.872  0.1832 -0.2963  0.0071
 4217TIP3    H112657   3.681   5.866   0.918 -0.3883 -0.5916  1.0745
 4217TIP3    H212658   3.685   5.781   0.792  1.2253  0.2108  0.5615
 4218TIP3   OH212659   5.668   3.888   0.515 -0.0567  0.1899  0.2803
 4218TIP3    H112660   5.757   3.905   0.483 -0.5388  0.0102 -1.2317
 4218TIP3    H212661   5.671   3.799   0.550  0.4775  0.3801  0.7376
 4219TIP3   OH212662   1.673   0.258   2.984 -0.8088 -0.2854  0.1409
 4219TIP3    H112663   1.717   0.178   2.953 -1.3120 -0.3148 -0.5061
 4219TIP3    H212664   1.590   0.260   2.936 -1.3242  0.0066  1.0326
 4220TIP3   OH212665   2.178   1.399   1.727  0.1546  0.2194  0.4926
 4220TIP3    H112666   2.111   1.400   1.658  0.4101  3.1311  0.1603
 4220TIP3    H212667   2.132   1.374   1.806 -1.0408  0.8483  0.0095
 4221TIP3   OH212668   2.223   0.545   1.969  0.5945  0.1748  0.2141
 4221TIP3    H112669   2.225   0.570   1.876 -0.0167  2.0337  0.6510
 4221TIP3    H212670   2.147   0.591   2.004 -0.6373 -2.4022  1.1708
 4222TIP3   OH212671   4.720   1.934   3.874 -0.4436 -0.2378 -0.3751
 4222TIP3    H112672   4.786   1.867   3.893  0.1960  0.3318 -0.5763
 4222TIP3    H212673   4.769   2.007   3.838 -0.9982  0.7623  0.8200
 4223TIP3   OH212674   2.423   1.162   4.937 -0.3257  0.1854  0.0583
 4223TIP3    H112675   2.349   1.122   4.982 -0.0914 -0.0411  0.2515
 4223TIP3    H212676   2.387   1.240   4.895 -0.6295  0.1838  0.3141
 4224TIP3   OH212677   3.586   0.034   3.559 -0.4367  0.3022  0.0606
 4224TIP3    H112678   3.595  -0.007   3.473 -1.3794  2.4704 -1.1489
 4224TIP3    H212679   3.676   0.052   3.587 -0.1378  0.4632 -0.9595
 4225TIP3   OH212680   2.199   4.503   4.353  0.1302 -0.1435 -0.2035
 4225TIP3    H112681   2.122   4.555   4.331 -1.6129 -2.7236 -0.6842
 4225TIP3    H212682   2.220   4.456   4.272 -0.3124 -2.4421  0.9366
 4226TIP3   OH212683   3.589   0.397   0.203 -0.4060  0.1921 -0.2741
 4226TIP3    H112684   3.565   0.310   0.236  0.5324  0.0384  0.0160
 4226TIP3    H212685   3.669   0.383   0.153 -0.4749  0.8241 -0.5728
 4227TIP3   OH212686   3.601   5.906   4.244  0.1665  0.8609  0.1396
 4227TIP3    H112687   3.629   5.995   4.265 -1.6300  1.2733  1.0554
 4227TIP3    H212688   3.672   5.870   4.192  1.1175  2.6971  0.0707
 4228TIP3   OH212689   6.186   2.591   0.884 -0.2559 -0.2421  0.3743
 4228TIP3    H112690   6.217   2.509   0.921  2.3279 -0.3810 -1.7487
 4228TIP3    H212691   6.235   2.659   0.931 -1.3856  0.0369  1.1953
 4229TIP3   OH212692   1.432   4.942   0.011  0.5118 -0.2348 -0.0156
 4229TIP3    H112693   1.424   4.911   0.101  1.0876  0.8457  0.4174
 4229TIP3    H212694   1.403   4.867  -0.042 -0.0685 -0.8034  1.0585
 4230TIP3   OH212695   5.592   5.819   4.675 -0.0140 -0.1526 -0.0324
 4230TIP3    H112696   5.601   5.805   4.769  0.5720 -2.0015 -0.3148
 4230TIP3    H212697   5.652   5.755   4.636 -0.8014  0.0669 -1.6688
 4231TIP3   OH212698   0.652   4.588   3.842  0.5796  0.9063  0.3935
 4231TIP3    H112699   0.584   4.521   3.847  0.2809  1.0922 -0.8364
 4231TIP3    H212700   0.619   4.660   3.896  1.2316 -0.1670  2.3371
 4232TIP3   OH212701   2.837   5.039   0.439  0.1889  0.1064 -0.4356
 4232TIP3    H112702   2.810   5.113   0.385 -0.1133  1.6172  1.6354
 4232TIP3    H212703   2.771   4.971   0.422 -1.0543  1.2836 -0.4775
 4233TIP3   OH212704   2.934   1.322   2.027 -0.0809 -0.0291 -0.5890
 4233TIP3    H112705   2.853   1.316   1.976 -1.6091  0.4497  1.6422
 4233TIP3    H212706   2.947   1.234   2.062  1.1463 -0.4408 -1.9861
 4234TIP3   OH212707   1.280   4.059   5.144  0.3438  0.0336  0.1392
 4234TIP3    H112708   1.244   4.027   5.226  0.5250 -0.6889 -0.0593
 4234TIP3    H212709   1.257   4.152   5.142 -1.6917 -0.4278 -0.0739
 4235TIP3   OH212710   2.564   1.322   0.099 -0.0706 -0.5333  0.3601
 4235TIP3    H112711   2.612   1.335   0.181  0.3887  0.0960  0.0011
 4235TIP3    H212712   2.616   1.369   0.033 -1.2625  0.3100 -0.0176
 4236TIP3   OH212713   4.129   4.700   2.863  0.0229  0.1112  0.2704
 4236TIP3    H112714   4.134   4.635   2.793 -0.8470 -0.0496  0.3431
 4236TIP3    H212715   4.198   4.674   2.925 -0.9160 -1.3284  0.7729
 4237TIP3   OH212716   1.669   0.681   1.927 -0.2634 -0.1270  0.0371
 4237TIP3    H112717   1.758   0.709   1.910 -0.5785  0.1000 -1.3799
 4237TIP3    H212718   1.650   0.711   2.016  0.4873  1.3475 -0.2747
 4238TIP3   OH212719   5.037   4.303   2.655  0.2077  0.5033  0.1952
 4238TIP3    H112720   4.999   4.344   2.577 -0.6946  0.3314  0.5373
 4238TIP3    H212721   4.975   4.234   2.678  2.0897 -1.6817 -0.8915
 4239TIP3   OH212722   5.473   4.832   3.221  0.4822 -0.4310 -0.6815
 4239TIP3    H112723   5.403   4.832   3.286  1.1519 -1.6322  0.0849
 4239TIP3    H212724   5.540   4.775   3.259  1.4537 -0.0883 -1.8380
 4240TIP3   OH212725   4.399   3.343   4.214 -0.3979  0.1062 -0.5281
 4240TIP3    H112726   4.374   3.428   4.250  1.8217  0.9116 -0.7080
 4240TIP3    H212727   4.409   3.359   4.120 -2.8789 -1.1510 -1.0770
 4241TIP3   OH212728   5.317   4.301   1.055 -0.4613  0.0971  0.2850
 4241TIP3    H112729   5.344   4.233   1.116  0.0519 -1.0905 -1.2332
 4241TIP3    H212730   5.381   4.372   1.068  0.8717 -0.9698 -0.2942
 4242TIP3   OH212731   2.027   2.341   2.022  0.0195 -0.1430  0.6181
 4242TIP3    H112732   1.951   2.396   2.006 -1.0226 -1.1278  1.9127
 4242TIP3    H212733   2.097   2.401   2.047 -0.0843  0.8368 -1.2778
 4243TIP3   OH212734   0.909   0.066   2.476  0.3660 -0.3406  0.0556
 4243TIP3    H112735   0.927   0.159   2.470  0.5138 -0.3216  0.6810
 4243TIP3    H212736   0.991   0.028   2.509  0.2779 -0.6794 -0.1110
 4244TIP3   OH212737   0.528   3.191   3.264  0.1093 -0.1546  0.0268
 4244TIP3    H112738   0.541   3.214   3.172  0.5016  0.2090  0.1678
 4244TIP3    H212739   0.451   3.134   3.264 -0.3977  0.5062 -0.4394
 4245TIP3   OH212740   1.546   2.492   2.352  0.4394 -0.3711 -0.4381
 4245TIP3    H112741   1.485   2.562   2.374  0.5753  0.6065 -2.8828
 4245TIP3    H212742   1.615   2.499   2.418 -1.1589 -0.3826  1.3349
 4246TIP3   OH212743   1.677   0.405   1.580  0.1467 -0.2715 -0.1452
 4246TIP3    H112744   1.669   0.374   1.670  0.6205 -1.8646 -0.6317
 4246TIP3    H212745   1.586   0.415   1.550 -0.1068 -2.8970 -0.5011
 4247TIP3   OH212746   6.029   1.934   2.890  0.2278 -0.1882  0.6588
 4247TIP3    H112747   6.028   1.968   2.980  0.4949  0.0148  0.5852
 4247TIP3    H212748   5.937   1.932   2.865  0.2069  0.5461  0.6418
 4248TIP3   OH212749   2.775   4.013   2.572  0.3875  0.3020 -0.6195
 4248TIP3    H112750   2.798   4.088   2.626  0.6290  1.3446 -2.1208
 4248TIP3    H212751   2.696   4.039   2.526 -0.1927 -0.8269 -0.2948
 4249TIP3   OH212752   6.261   4.561   1.253 -0.1589 -0.4046  0.0496
 4249TIP3    H112753   6.223   4.646   1.278  1.0222 -0.5019  2.5078
 4249TIP3    H212754   6.342   4.583   1.207  0.1434 -0.1854  0.6800
 4250TIP3   OH212755   2.845   5.512   4.193  0.5085 -0.2273 -0.0207
 4250TIP3    H112756   2.934   5.503   4.227 -0.0826 -1.7640  1.2329
 4250TIP3    H212757   2.818   5.423   4.171 -0.6497  0.2389 -0.6085
 4251TIP3   OH212758   0.801   4.569   1.980  0.2101  0.0943  0.3666
 4251TIP3    H112759   0.852   4.507   1.928  0.5138 -0.2502  1.0679
 4251TIP3    H212760   0.767   4.517   2.052  0.6041  0.7719  1.0520
 4252TIP3   OH212761   5.318   5.595   4.592 -0.9143 -0.2801 -0.2774
 4252TIP3    H112762   5.373   5.553   4.526  0.0455  2.1025 -1.0912
 4252TIP3    H212763   5.347   5.556   4.675 -0.6589 -1.7805 -1.0287
 4253TIP3   OH212764   4.142   4.034   1.215  0.3773  0.2589  0.0918
 4253TIP3    H112765   4.078   4.106   1.217  0.4128  0.3038 -0.4533
 4253TIP3    H212766   4.124   3.985   1.296 -1.5629 -0.7970 -0.9100
 4254TIP3   OH212767   2.470   3.029   0.124 -0.4162  0.0429 -0.3596
 4254TIP3    H112768   2.511   3.004   0.042  0.2663 -1.9139  0.5248
 4254TIP3    H212769   2.418   3.107   0.102  0.9142  0.4559 -2.2828
 4255TIP3   OH212770   0.217   1.827   0.424 -0.2018  0.7027  0.3884
 4255TIP3    H112771   0.228   1.913   0.382 -1.5587  1.5490  1.6650
 4255TIP3    H212772   0.253   1.765   0.361 -0.2716  2.0997 -1.0936
 4256TIP3   OH212773   4.110   1.291   2.655 -0.4656  0.5172  0.3076
 4256TIP3    H112774   4.021   1.316   2.629 -0.7550  0.5413  1.2909
 4256TIP3    H212775   4.106   1.285   2.751  0.5227  0.2450  0.3369
 4257TIP3   OH212776   4.334   3.002   1.052  0.1867 -0.2406 -0.1795
 4257TIP3    H112777   4.274   3.041   1.115  0.9861  0.3005  0.2717
 4257TIP3    H212778   4.305   2.911   1.044 -1.1074  0.1802 -0.4997
 4258TIP3   OH212779   5.882   5.596   1.021  0.9284  0.3077  0.4551
 4258TIP3    H112780   5.973   5.608   0.993  0.6343 -1.2916 -1.3845
 4258TIP3    H212781   5.875   5.503   1.040 -0.5268  0.2413 -0.2733
 4259TIP3   OH212782   4.322   3.672   3.481 -0.6467  0.2303 -0.2492
 4259TIP3    H112783   4.250   3.650   3.421  0.2611  1.6450 -1.9545
 4259TIP3    H212784   4.379   3.729   3.430  0.9330  0.3577  1.5468
 4260TIP3   OH212785   2.284   3.655   1.400  0.4704 -0.3305  0.0535
 4260TIP3    H112786   2.367   3.642   1.444  0.9808 -0.0993 -0.8177
 4260TIP3    H212787   2.248   3.568   1.388  0.8634 -0.4783 -0.0711
 4261TIP3   OH212788   3.866   0.297   0.995 -0.2933  1.1265  0.2044
 4261TIP3    H112789   3.773   0.305   1.014 -1.5616 -2.8329 -2.9199
 4261TIP3    H212790   3.880   0.354   0.919 -1.2450 -0.8357 -1.5746
 4262TIP3   OH212791   5.717   4.678   0.829 -0.2369 -0.2011 -0.4768
 4262TIP3    H112792   5.714   4.729   0.910 -1.5265 -2.4711  1.0031
 4262TIP3    H212793   5.745   4.591   0.856 -1.0650 -1.1305 -2.4214
 4263TIP3   OH212794   3.319   2.183   3.713 -0.1781  0.4699 -0.4830
 4263TIP3    H112795   3.296   2.266   3.754 -2.0079  0.2809 -1.0633
 4263TIP3    H212796   3.339   2.125   3.786 -1.0430  0.8087  0.0418
 4264TIP3   OH212797   1.387   4.743   4.577 -0.4014 -0.0249  0.4035
 4264TIP3    H112798   1.457   4.718   4.637 -0.1586  0.4284  0.3077
 4264TIP3    H212799   1.361   4.830   4.605 -1.3168 -0.4024  0.7922
 4265TIP3   OH212800   5.367   5.882   4.898  0.1644  0.5004 -0.2722
 4265TIP3    H112801   5.448   5.854   4.940  0.3345  0.1552 -0.8157
 4265TIP3    H212802   5.343   5.808   4.842 -0.3834  0.7062 -0.3158
 4266TIP3   OH212803   1.527   2.268   1.750  0.0340  0.2873  0.5294
 4266TIP3    H112804   1.502   2.249   1.840 -0.3023  1.7668  0.7813
 4266TIP3    H212805   1.452   2.315   1.714 -0.3741 -1.4001 -0.9640
 4267TIP3   OH212806   5.240   4.552   4.185 -0.3292  0.0483  0.4953
 4267TIP3    H112807   5.266   4.634   4.227  0.7533  0.7538 -1.4207
 4267TIP3    H212808   5.322   4.517   4.149 -1.2977  0.0642 -1.9126
 4268TIP3   OH212809   0.845   0.534   0.565 -0.0055 -0.3306  0.3204
 4268TIP3    H112810   0.820   0.456   0.616 -0.9455  0.4696  1.1259
 4268TIP3    H212811   0.849   0.604   0.629 -0.5747  0.5716 -0.6066
 4269TIP3   OH212812   1.684   2.526   4.285  0.3747 -0.0662 -0.7451
 4269TIP3    H112813   1.594   2.541   4.314 -0.0752  1.6120 -2.7451
 4269TIP3    H212814   1.721   2.614   4.276  2.0677 -0.7157 -0.4786
 4270TIP3   OH212815   6.145   0.807   2.711  0.6570  0.2705 -0.1759
 4270TIP3    H112816   6.212   0.853   2.761 -0.6556  0.2058  1.7521
 4270TIP3    H212817   6.150   0.716   2.742  0.1910  0.1116 -0.5522
 4271TIP3   OH212818   3.037   2.029   1.068  0.2277 -0.0983 -0.1207
 4271TIP3    H112819   3.065   2.088   1.138  1.8317 -1.5587  0.5316
 4271TIP3    H212820   3.017   1.947   1.112 -0.8393 -0.4128 -1.1404
 4272TIP3   OH212821   1.851   0.787   2.401  0.0781 -0.3303 -0.0671
 4272TIP3    H112822   1.908   0.791   2.478  1.1117 -0.4864 -0.7970
 4272TIP3    H212823   1.762   0.780   2.436  0.6942 -3.8636  1.1588
 4273TIP3   OH212824   4.648   0.203   2.125 -0.3446  0.1625 -0.3881
 4273TIP3    H112825   4.691   0.157   2.198  1.3197  0.7834 -0.9276
 4273TIP3    H212826   4.656   0.143   2.051 -1.7344 -0.3247 -0.1634
 4274TIP3   OH212827   3.154   3.678   2.439  0.5403 -0.2003 -0.5969
 4274TIP3    H112828   3.225   3.714   2.385  1.8025  0.4504  1.3492
 4274TIP3    H212829   3.075   3.690   2.387  1.6542  0.4840 -2.2166
 4275TIP3   OH212830   5.373   5.180   3.330 -0.2249 -0.0618 -0.2224
 4275TIP3    H112831   5.373   5.137   3.244  0.3571  2.3758 -1.5373
 4275TIP3    H212832   5.280   5.190   3.352 -0.5102  1.7474 -1.9584
 4276TIP3   OH212833   0.116   0.735   3.489 -0.3207 -0.1819  0.1952
 4276TIP3    H112834   0.071   0.725   3.573 -1.4875  1.0600 -0.2376
 4276TIP3    H212835   0.080   0.666   3.434 -2.8868  1.6340 -0.5838
 4277TIP3   OH212836   3.346   0.563   0.118 -0.4906 -0.3054 -0.1049
 4277TIP3    H112837   3.349   0.594   0.027 -0.6697  2.0736  0.6410
 4277TIP3    H212838   3.432   0.522   0.132  0.3932  1.2331 -0.7374
 4278TIP3   OH212839   3.289   0.651   4.157 -0.2312  0.2933 -0.5298
 4278TIP3    H112840   3.351   0.585   4.190 -0.7380  0.1549  0.1567
 4278TIP3    H212841   3.318   0.667   4.067  0.5832 -0.0391 -0.3399
 4279TIP3   OH212842   5.706   4.044   2.490  0.5224  0.0753 -0.1322
 4279TIP3    H112843   5.765   3.987   2.442  0.5141 -0.1912  0.1664
 4279TIP3    H212844   5.639   3.985   2.525  0.3817  0.3005 -0.0172
 4280TIP3   OH212845   5.913   2.666   3.877 -0.3242  0.1416 -0.1720
 4280TIP3    H112846   5.993   2.699   3.836  0.9859 -0.2755  1.9243
 4280TIP3    H212847   5.934   2.576   3.901 -0.5216  0.7403  2.5465
 4281TIP3   OH212848   1.885   3.568   1.053 -0.5543  0.1905  0.0521
 4281TIP3    H112849   1.856   3.550   1.143 -2.4404 -0.4441 -0.6208
 4281TIP3    H212850   1.804   3.565   1.001  0.4141  1.1024 -1.5886
 4282TIP3   OH212851   6.161   1.686   1.129 -0.0296  0.0422 -0.7733
 4282TIP3    H112852   6.166   1.746   1.055 -0.8925  0.3444 -0.5962
 4282TIP3    H212853   6.152   1.600   1.089 -1.7671  0.3216 -1.0427
 4283TIP3   OH212854   4.601   3.229   1.966 -0.2206 -0.6252 -0.1260
 4283TIP3    H112855   4.663   3.164   1.999 -0.3655 -1.2941 -1.1308
 4283TIP3    H212856   4.552   3.256   2.043  0.7774 -0.6765  0.5416
 4284TIP3   OH212857   1.381   0.028   1.888 -0.1924 -0.0731  0.2235
 4284TIP3    H112858   1.403  -0.065   1.892 -2.0049 -0.5179  0.8786
 4284TIP3    H212859   1.379   0.056   1.979  1.3296  0.8864 -0.0132
 4285TIP3   OH212860   5.202   2.167   0.171 -0.2129 -0.2105  0.0168
 4285TIP3    H112861   5.248   2.083   0.174 -0.7237 -0.4856  0.2507
 4285TIP3    H212862   5.110   2.143   0.166 -0.3262  0.3307 -0.7811
 4286TIP3   OH212863   4.461   4.973   4.088  0.8239 -0.0992  0.7333
 4286TIP3    H112864   4.417   4.923   4.157 -0.1148  0.2556  0.4133
 4286TIP3    H212865   4.554   4.959   4.104  0.6044 -0.7632  1.5196
 4287TIP3   OH212866   2.126   2.596   3.879 -0.3075  0.4513 -0.6274
 4287TIP3    H112867   2.199   2.536   3.865  0.4027  1.4544 -1.3378
 4287TIP3    H212868   2.049   2.540   3.882  0.4644 -0.6155  0.0291
 4288TIP3   OH212869   5.980   0.932   5.068 -0.7084  0.1794 -0.8062
 4288TIP3    H112870   6.047   0.920   5.000 -1.7192 -1.0820 -1.6264
 4288TIP3    H212871   5.920   0.859   5.055 -2.2692  1.2905 -0.1074
 4289TIP3   OH212872   2.642   1.112   1.101 -0.3642  0.1116 -0.6782
 4289TIP3    H112873   2.734   1.093   1.081 -0.2876  1.3160 -1.6141
 4289TIP3    H212874   2.601   1.026   1.108  0.8834 -0.4575  0.0526
 4290TIP3   OH212875   4.731   3.926   0.106  0.1038  0.1366  0.0449
 4290TIP3    H112876   4.819   3.895   0.084  0.8781  2.9304 -1.3038
 4290TIP3    H212877   4.675   3.885   0.041  0.8083  0.1905 -0.6164
 4291TIP3   OH212878   3.891   1.214   4.513 -0.4957  0.2615 -0.0204
 4291TIP3    H112879   3.826   1.146   4.494 -2.1533  1.5225  0.8965
 4291TIP3    H212880   3.870   1.242   4.602  0.3569  1.7480 -0.2628
 4292TIP3   OH212881   4.170   2.192   3.435  0.1848  0.3486  0.4044
 4292TIP3    H112882   4.258   2.209   3.402  1.1993 -2.4321  1.3924
 4292TIP3    H212883   4.133   2.128   3.375 -0.2869 -0.1775  1.2325
 4293TIP3   OH212884   4.042   5.845   2.934 -0.1305  0.4675  0.6164
 4293TIP3    H112885   3.997   5.890   3.005 -2.0555 -1.2423  0.5604
 4293TIP3    H212886   4.090   5.774   2.977  1.1687  1.2174  0.4768
 4294TIP3   OH212887   2.258   5.892   3.306  0.4663 -0.0785  0.1704
 4294TIP3    H112888   2.341   5.846   3.322  1.3599  1.2850 -0.3559
 4294TIP3    H212889   2.239   5.875   3.214  2.1518  2.5688 -0.7801
 4295TIP3   OH212890   0.491   1.261   4.615  0.8632 -0.1310 -0.3840
 4295TIP3    H112891   0.486   1.306   4.698  1.9253  0.4431 -0.6176
 4295TIP3    H212892   0.547   1.316   4.560  0.7236 -0.8256 -1.2600
 4296TIP3   OH212893   0.781   0.508   4.570 -0.0155 -0.2334  0.1146
 4296TIP3    H112894   0.865   0.503   4.524  0.4252  0.1980  0.8574
 4296TIP3    H212895   0.799   0.562   4.647 -0.0300 -3.2172  2.3665
 4297TIP3   OH212896   3.540   0.182   4.758 -0.1517  0.4560  0.0465
 4297TIP3    H112897   3.470   0.117   4.763 -0.1222  0.4352  0.1750
 4297TIP3    H212898   3.570   0.193   4.848  1.7662 -1.4188 -0.2761
 4298TIP3   OH212899   3.407   2.599   3.136  0.1356 -0.5443 -0.3412
 4298TIP3    H112900   3.450   2.653   3.203  0.3758 -1.1159 -0.0306
 4298TIP3    H212901   3.349   2.660   3.090  1.5705  0.3507 -1.0444
 4299TIP3   OH212902   3.422   2.561   3.970  0.7017 -0.5725  0.0329
 4299TIP3    H112903   3.411   2.644   3.923  0.5997 -0.1804  0.7358
 4299TIP3    H212904   3.508   2.568   4.012  0.5106 -0.6352  0.4478
 4300TIP3   OH212905   2.361   5.626   1.887  0.0143  0.0966 -0.4870
 4300TIP3    H112906   2.266   5.626   1.890  0.0340  0.0195  0.2898
 4300TIP3    H212907   2.386   5.712   1.922  0.2627 -0.4961  0.8418
 4301TIP3   OH212908   2.778   5.632   4.571 -0.2826  0.0951  0.3172
 4301TIP3    H112909   2.838   5.666   4.637  0.5487  0.7848 -0.7631
 4301TIP3    H212910   2.736   5.557   4.614  0.1605  0.5662  1.6490
 4302TIP3   OH212911   2.255   1.951   4.874 -0.0849  0.1219 -0.1208
 4302TIP3    H112912   2.314   1.951   4.799  1.2218  0.1112  0.8805
 4302TIP3    H212913   2.277   2.030   4.923  1.2341 -1.3333  1.8301
 4303TIP3   OH212914   5.706   2.071   2.538 -0.4249 -0.2924 -0.0246
 4303TIP3    H112915   5.700   1.980   2.567  0.8479 -0.3322  0.1390
 4303TIP3    H212916   5.626   2.112   2.572 -1.0428 -1.3442 -0.1462
 4304TIP3   OH212917   5.266   3.116   4.160 -0.0042  0.5840 -0.5439
 4304TIP3    H112918   5.201   3.148   4.097 -0.6886  0.5135  0.1118
 4304TIP3    H212919   5.330   3.186   4.166 -0.5159  1.0607 -0.5002
 4305TIP3   OH212920   2.179   2.500   3.507  0.1253  0.1911  0.2001
 4305TIP3    H112921   2.173   2.406   3.525 -1.5881  0.6347  2.4307
 4305TIP3    H212922   2.089   2.526   3.486  0.2578  1.5566  1.1622
 4306TIP3   OH212923   0.942   4.302   2.109 -0.5304  0.2488 -0.2715
 4306TIP3    H112924   0.862   4.278   2.062  0.2535 -0.9272 -1.0647
 4306TIP3    H212925   0.969   4.222   2.154 -0.7980  1.1280  1.5562
 4307TIP3   OH212926   5.895   0.664   1.111 -0.0523  0.2006 -0.0034
 4307TIP3    H112927   5.892   0.591   1.173  1.5373  0.2531  0.1968
 4307TIP3    H212928   5.897   0.742   1.167  0.5317  0.2823 -0.1268
 4308TIP3   OH212929   2.660   2.980   0.323  0.9781 -0.1035 -0.1492
 4308TIP3    H112930   2.592   2.998   0.257  2.1135 -0.2997 -1.4208
 4308TIP3    H212931   2.622   3.010   0.405  0.9955  4.0914 -1.4337
 4309TIP3   OH212932   0.126   5.158   1.590  0.3708 -0.2946  0.6350
 4309TIP3    H112933   0.207   5.112   1.567 -0.3618 -0.6080 -1.6403
 4309TIP3    H212934   0.085   5.103   1.657  0.8344 -1.5001 -0.0309
 4310TIP3   OH212935   5.438   4.782   4.973 -0.3581  0.2396 -0.1474
 4310TIP3    H112936   5.402   4.749   4.890 -0.3534  0.2613 -0.1580
 4310TIP3    H212937   5.485   4.862   4.949  0.0628 -0.0242 -0.1980
 4311TIP3   OH212938   1.640   3.403   0.745 -0.2633 -0.2975 -0.1086
 4311TIP3    H112939   1.596   3.441   0.821  0.8095  2.6883 -0.8470
 4311TIP3    H212940   1.606   3.453   0.670  1.3584 -0.6773 -1.1441
 4312TIP3   OH212941   0.316   4.638   3.616 -0.1189 -0.4969 -0.1581
 4312TIP3    H112942   0.294   4.714   3.669 -1.1055 -1.0532  0.2649
 4312TIP3    H212943   0.265   4.566   3.654  0.5923 -1.3169 -0.7019
 4313TIP3   OH212944   2.196   0.086   0.622  0.3374 -0.3426 -0.0680
 4313TIP3    H112945   2.276   0.047   0.657  1.0908  0.2825 -1.0404
 4313TIP3    H212946   2.225   0.168   0.582 -1.0691  0.8229  1.1512
 4314TIP3   OH212947   0.654   5.704   2.692 -0.0217  0.0723 -0.2590
 4314TIP3    H112948   0.572   5.753   2.678 -0.3621 -0.1012  1.0291
 4314TIP3    H212949   0.670   5.710   2.786  1.2863 -0.1787 -0.4474
 4315TIP3   OH212950   1.262   3.333   3.910  0.3035 -0.1373  0.0244
 4315TIP3    H112951   1.167   3.344   3.905  0.4309  0.7728 -0.6150
 4315TIP3    H212952   1.296   3.387   3.838  1.3322 -0.1141  0.5160
 4316TIP3   OH212953   1.017   3.281   2.319  0.4244  0.2674 -0.1329
 4316TIP3    H112954   1.023   3.314   2.408  0.3205  0.0554 -0.0476
 4316TIP3    H212955   0.937   3.321   2.284 -0.7975 -1.4114  0.6107
 4317TIP3   OH212956   4.230   2.930   4.673  0.0183  0.2586 -0.2850
 4317TIP3    H112957   4.169   2.938   4.600 -0.2294  0.2639 -0.0803
 4317TIP3    H212958   4.182   2.964   4.748  0.5440  0.9607 -0.2610
 4318TIP3   OH212959   2.195   4.785   4.037  0.0434 -0.0312 -0.3392
 4318TIP3    H112960   2.162   4.787   4.127 -1.2182  0.5679 -0.7948
 4318TIP3    H212961   2.135   4.727   3.990 -0.4903  1.1962 -1.2174
 4319TIP3   OH212962   1.299   3.261   4.160 -0.0878 -0.2353  0.2871
 4319TIP3    H112963   1.245   3.327   4.202  1.2144  0.0407  1.6109
 4319TIP3    H212964   1.317   3.297   4.073 -0.7982  0.3389  0.3705
 4320TIP3   OH212965   1.566   2.613   0.402 -0.0755 -0.3158 -0.4937
 4320TIP3    H112966   1.547   2.628   0.495 -1.5641  1.3901 -1.0084
 4320TIP3    H212967   1.548   2.521   0.389 -1.2578 -0.2774  0.6254
 4321TIP3   OH212968   1.961   3.050   2.519  0.1298 -0.1500  0.1548
 4321TIP3    H112969   2.004   3.135   2.528 -0.6907  0.4191 -0.9942
 4321TIP3    H212970   2.032   2.990   2.497  0.3992  0.7882 -1.7928
 4322TIP3   OH212971   4.970   3.580   4.499 -0.0712  0.1117 -0.0962
 4322TIP3    H112972   5.053   3.609   4.461  0.3169  0.2313  0.8065
 4322TIP3    H212973   4.919   3.661   4.510  0.5410  0.3336  1.3122
 4323TIP3   OH212974   4.891   1.426   2.473  0.6078 -0.2064  0.0063
 4323TIP3    H112975   4.822   1.439   2.407 -2.5076 -0.6155  2.9237
 4323TIP3    H212976   4.915   1.334   2.464 -0.6828 -0.5884  0.1766
 4324TIP3   OH212977   5.593   0.209   4.877 -0.2272 -0.2227  0.2106
 4324TIP3    H112978   5.571   0.154   4.802  1.6358 -0.7663  0.0208
 4324TIP3    H212979   5.642   0.151   4.936  2.2246  1.2915 -0.2167
 4325TIP3   OH212980   4.889   1.098   0.419  0.1563 -0.1176  0.4998
 4325TIP3    H112981   4.841   1.180   0.409  0.5432 -0.1104 -2.0638
 4325TIP3    H212982   4.898   1.086   0.513 -0.8397  2.2197  0.9517
 4326TIP3   OH212983   3.943   1.391   4.734  0.3596 -0.2622  0.3821
 4326TIP3    H112984   4.029   1.391   4.693  0.3256 -1.6813  0.2536
 4326TIP3    H212985   3.895   1.462   4.691  1.0577 -0.2618 -0.4132
 4327TIP3   OH212986   3.862   2.628   3.915 -0.3754 -0.3415 -0.3032
 4327TIP3    H112987   3.813   2.558   3.871 -0.0720  0.3680 -1.8152
 4327TIP3    H212988   3.951   2.593   3.924 -0.3454 -0.3416 -0.6015
 4328TIP3   OH212989   3.339   3.428   4.908 -0.3765 -0.2790 -0.0579
 4328TIP3    H112990   3.395   3.379   4.969  0.9354  2.2270  0.8803
 4328TIP3    H212991   3.396   3.449   4.835 -1.0204 -0.4274 -0.6094
 4329TIP3   OH212992   3.253   0.275   4.639  0.0592  0.5912 -0.1979
 4329TIP3    H112993   3.246   0.249   4.730  0.4265  1.8986  0.2235
 4329TIP3    H212994   3.282   0.195   4.593 -0.8435 -0.2665  0.6826
 4330TIP3   OH212995   2.013   0.520   4.227  0.0781  0.4911  0.0834
 4330TIP3    H112996   1.999   0.427   4.210  0.8050  0.3422  0.2559
 4330TIP3    H212997   1.933   0.562   4.197  0.3621 -0.0203 -1.4854
 4331TIP3   OH212998   4.303   4.830   2.378 -0.0398  0.8014  0.0779
 4331TIP3    H112999   4.255   4.752   2.406 -0.1921  1.2113  1.0349
 4331TIP3    H213000   4.395   4.804   2.380 -0.2045 -0.2557 -2.6278
 4332TIP3   OH213001   0.239   2.624   3.274 -0.8092 -0.4137  0.3430
 4332TIP3    H113002   0.182   2.700   3.287 -0.0928  0.0551  0.8264
 4332TIP3    H213003   0.227   2.572   3.354 -1.4307 -0.9109 -0.0628
 4333TIP3   OH213004   5.917   5.718   1.736 -0.0699  0.2063 -0.3828
 4333TIP3    H113005   5.837   5.701   1.686 -0.2731  3.0910 -1.2264
 4333TIP3    H213006   5.975   5.762   1.674  1.5703 -0.4231  0.6624
 4334TIP3   OH213007   6.319   0.692   3.724 -0.0710 -0.0728  0.3894
 4334TIP3    H113008   6.287   0.604   3.744 -0.0739 -0.0214  0.6183
 4334TIP3    H213009   6.337   0.730   3.810 -1.1344  0.5549  0.3480
 4335TIP3   OH213010   0.708   1.816   2.066  0.5326 -0.1596 -0.1381
 4335TIP3    H113011   0.780   1.766   2.029  1.3583  0.0799  1.0806
 4335TIP3    H213012   0.750   1.890   2.111 -0.4938  0.2361  0.2124
 4336TIP3   OH213013   3.589   3.696   4.123  0.1012 -0.8973 -0.0022
 4336TIP3    H113014   3.547   3.778   4.148 -1.6817 -0.8955 -2.5996
 4336TIP3    H213015   3.557   3.632   4.187  1.6233  0.3416  2.1386
 4337TIP3   OH213016   0.499   5.019   0.392  0.1753  0.3513  0.2259
 4337TIP3    H113017   0.588   4.984   0.392 -0.1901 -0.6207 -0.3667
 4337TIP3    H213018   0.454   4.969   0.324 -0.3551  2.0639 -0.7407
 4338TIP3   OH213019   4.267   0.226   3.714  0.0077  0.3027 -0.6001
 4338TIP3    H113020   4.340   0.269   3.669  1.2293 -0.2585  0.7344
 4338TIP3    H213021   4.310   0.161   3.770 -1.4064  0.9830  1.3641
 4339TIP3   OH213022   1.785   1.001   1.936 -0.1713  0.9170  0.3612
 4339TIP3    H113023   1.798   1.003   2.030 -0.3200  0.9700  0.3818
 4339TIP3    H213024   1.865   1.038   1.899  0.4716 -0.3763  0.4059
 4340TIP3   OH213025   4.263   3.185   3.848 -0.2360 -0.1041  0.3016
 4340TIP3    H113026   4.262   3.192   3.752  0.4631 -1.3703  0.1848
 4340TIP3    H213027   4.318   3.258   3.876  2.0461 -1.3991 -0.4850
 4341TIP3   OH213028   4.554   2.499   3.304  0.0111 -0.4944  0.2722
 4341TIP3    H113029   4.513   2.513   3.390  1.2509  1.6213  0.5894
 4341TIP3    H213030   4.481   2.504   3.243 -0.6092  0.3225  1.0437
 4342TIP3   OH213031   5.397   4.120   0.221 -0.1618 -0.1662 -0.4528
 4342TIP3    H113032   5.422   4.030   0.201  0.8646  0.3128 -1.4195
 4342TIP3    H213033   5.363   4.154   0.139 -0.3032  0.4121 -0.1617
 4343TIP3   OH213034   1.927   1.336   0.341  0.1488  0.1221  0.4894
 4343TIP3    H113035   1.970   1.417   0.370  1.0134 -0.2434  0.2439
 4343TIP3    H213036   1.861   1.365   0.278 -0.2673  0.7282  1.1923
 4344TIP3   OH213037   0.109   1.044   1.023  0.0594  0.0126  0.1129
 4344TIP3    H113038   0.128   1.123   1.074 -2.9025  0.8861  0.0590
 4344TIP3    H213039   0.112   1.073   0.932 -1.6588  0.3015  0.1117
 4345TIP3   OH213040   2.599   1.207   1.342 -0.4291 -0.0183  0.4886
 4345TIP3    H113041   2.670   1.260   1.378 -1.4134  1.8836 -0.2859
 4345TIP3    H213042   2.641   1.155   1.273  0.5549 -0.3563  1.3064
 4346TIP3   OH213043   5.854   0.508   4.847 -0.0421  0.2568 -0.2900
 4346TIP3    H113044   5.944   0.517   4.881 -0.4874 -0.8161  1.2427
 4346TIP3    H213045   5.850   0.419   4.812 -0.4975  0.3388 -0.4525
 4347TIP3   OH213046   2.779   3.451   1.788  0.4448 -0.2153  0.7676
 4347TIP3    H113047   2.709   3.386   1.784  0.0818  0.1548  1.0717
 4347TIP3    H213048   2.767   3.495   1.872  0.9866 -0.0858  0.7813
 4348TIP3   OH213049   2.258   2.536   1.385 -0.1739 -0.2243 -0.2165
 4348TIP3    H113050   2.196   2.467   1.359 -0.1165  0.2223 -1.6127
 4348TIP3    H213051   2.296   2.566   1.303 -0.7318  2.0003  0.2680
 4349TIP3   OH213052   2.843   0.107   2.793 -0.3062  0.7873 -0.4553
 4349TIP3    H113053   2.935   0.115   2.817 -0.0061 -0.9016 -0.9123
 4349TIP3    H213054   2.819   0.018   2.820 -0.5815 -0.4060 -4.0627
 4350TIP3   OH213055   0.010   5.900   1.251  0.2315  0.0839  0.4536
 4350TIP3    H113056  -0.026   5.879   1.165 -0.9921  0.4555  0.8531
 4350TIP3    H213057   0.089   5.846   1.258  1.5416  1.5365 -1.7380
 4351TIP3   OH213058   3.926   2.858   1.888 -0.0756 -0.0281 -0.1607
 4351TIP3    H113059   3.943   2.875   1.795 -0.3676 -2.4257 -0.7054
 4351TIP3    H213060   4.013   2.860   1.929  0.1847 -0.1811 -0.6990
 4352TIP3   OH213061   0.892   1.411   1.973  0.4780 -0.3452  0.0042
 4352TIP3    H113062   0.965   1.355   1.998 -0.2420 -0.7289  1.3704
 4352TIP3    H213063   0.815   1.354   1.979 -0.2104  0.6382  0.9895
 4353TIP3   OH213064   2.208   5.386   4.566  0.0341  0.3530 -0.1687
 4353TIP3    H113065   2.213   5.461   4.626 -1.2974 -2.0411  3.2118
 4353TIP3    H213066   2.116   5.364   4.563  0.5139 -1.8582 -0.1040
 4354TIP3   OH213067   2.947   2.528   2.687  0.3990  0.0613 -0.3394
 4354TIP3    H113068   2.861   2.487   2.685  0.4506 -0.1330  0.7298
 4354TIP3    H213069   2.949   2.584   2.609 -2.0748  2.7824  1.3397
 4355TIP3   OH213070   2.130   1.961   2.164 -0.3242  0.5355 -0.0633
 4355TIP3    H113071   2.209   1.992   2.119 -0.6019  1.9005  0.3526
 4355TIP3    H213072   2.163   1.919   2.244 -0.0343  1.9161  0.5715
 4356TIP3   OH213073   4.086   4.393   0.352  0.1434  0.3204 -0.1733
 4356TIP3    H113074   4.037   4.461   0.397 -0.1508  1.2539 -1.8265
 4356TIP3    H213075   4.019   4.339   0.309  0.4722  0.4046 -0.7992
 4357TIP3   OH213076   0.533   5.138   3.867 -0.2819 -0.3600 -0.3037
 4357TIP3    H113077   0.624   5.127   3.894  0.4438  0.0839 -2.3631
 4357TIP3    H213078   0.494   5.195   3.934  0.5022 -1.7716  1.4123
 4358TIP3   OH213079   4.081   3.032   3.035 -0.3919  0.1184 -0.1588
 4358TIP3    H113080   4.058   2.997   3.122 -0.6169  0.4175 -0.0977
 4358TIP3    H213081   4.014   2.997   2.977 -0.2614 -0.0532 -0.2058
 4359TIP3   OH213082   3.964   1.806   3.302  0.2263  0.0064  0.5362
 4359TIP3    H113083   3.976   1.740   3.234  0.3353  0.8304 -0.2633
 4359TIP3    H213084   4.041   1.863   3.294  2.0866 -1.8194  3.6210
 4360TIP3   OH213085   1.266   5.262   2.450 -0.3193 -0.3131 -0.5587
 4360TIP3    H113086   1.343   5.205   2.456 -0.2492 -0.4068 -2.1468
 4360TIP3    H213087   1.255   5.279   2.357 -2.5180 -0.6754 -0.4047
 4361TIP3   OH213088   0.622   3.982   4.246  0.0202  0.3329  0.7000
 4361TIP3    H113089   0.679   3.921   4.294  1.2607 -0.3344 -1.4747
 4361TIP3    H213090   0.682   4.047   4.211 -0.4733 -0.3947 -1.6680
 4362TIP3   OH213091   0.878   0.334   3.579 -0.3838 -0.6170 -0.0285
 4362TIP3    H113092   0.860   0.386   3.500 -1.5133  1.9731  1.7594
 4362TIP3    H213093   0.791   0.313   3.613  0.0390 -3.9535 -0.7122
 4363TIP3   OH213094   2.344   5.825   1.334 -0.4340 -0.1456  0.4430
 4363TIP3    H113095   2.274   5.890   1.325 -0.0398  0.0900 -1.2595
 4363TIP3    H213096   2.422   5.869   1.301  0.0025 -1.1958  0.0329
 4364TIP3   OH213097   4.835   0.483   5.173 -0.1925 -0.2233 -0.0305
 4364TIP3    H113098   4.877   0.569   5.170  1.6519 -1.0824 -0.1851
 4364TIP3    H213099   4.908   0.421   5.180 -1.3822 -1.8768 -1.5114
 4365TIP3   OH213100   0.506   5.520   4.356  0.4010  0.1609  0.1845
 4365TIP3    H113101   0.593   5.529   4.395  1.1018 -0.0573 -1.2738
 4365TIP3    H213102   0.483   5.608   4.327  0.5576  0.0412 -0.3023
 4366TIP3   OH213103   5.305   1.122   2.135 -0.3102 -0.0768 -0.3979
 4366TIP3    H113104   5.226   1.173   2.114 -0.7483 -1.0721 -1.2962
 4366TIP3    H213105   5.271   1.037   2.162  0.4581 -0.4131 -0.4824
 4367TIP3   OH213106   4.930   5.895   0.763 -0.3999 -0.2848  0.1017
 4367TIP3    H113107   4.958   5.887   0.672 -1.2701  0.0804 -0.2110
 4367TIP3    H213108   4.888   5.981   0.768 -1.2956 -0.7336  0.5765
 4368TIP3   OH213109   1.618   1.849   3.405 -0.1270 -0.0981 -0.2830
 4368TIP3    H113110   1.691   1.827   3.463 -0.2921 -0.3997 -0.1904
 4368TIP3    H213111   1.576   1.766   3.386 -0.1844  0.0190 -0.6954
 4369TIP3   OH213112   3.215   5.422   1.245  0.5521  0.1356  0.0779
 4369TIP3    H113113   3.153   5.368   1.196 -0.1429  1.8884 -1.1146
 4369TIP3    H213114   3.180   5.511   1.236  1.5878  0.7877  2.0142
 4370TIP3   OH213115   5.193   0.296   4.567  0.0208  0.5089 -0.1115
 4370TIP3    H113116   5.249   0.374   4.566  2.0774 -0.8736 -1.2178
 4370TIP3    H213117   5.202   0.259   4.479 -0.4728 -1.2571  0.5271
 4371TIP3   OH213118   2.493   5.456   0.761  0.3906  0.2512 -0.0905
 4371TIP3    H113119   2.443   5.528   0.723 -0.5758 -1.0578 -1.4150
 4371TIP3    H213120   2.428   5.388   0.778  0.9897  0.3060  2.8556
 4372TIP3   OH213121   1.854   0.221   1.100 -0.0737 -0.1439  0.1460
 4372TIP3    H113122   1.845   0.250   1.191 -1.8480  0.5728 -0.2038
 4372TIP3    H213123   1.897   0.293   1.055 -0.1096 -0.0748  0.2235
 4373TIP3   OH213124   4.109   1.802   1.135  0.7093 -0.0070  0.2907
 4373TIP3    H113125   4.045   1.744   1.175  2.5029  0.1556  3.8538
 4373TIP3    H213126   4.164   1.745   1.082 -0.4500 -0.6449 -0.2678
 4374TIP3   OH213127   1.237   5.181   0.437 -0.6340 -0.4865 -0.5478
 4374TIP3    H113128   1.312   5.135   0.474 -0.4894  0.1724 -0.0039
 4374TIP3    H213129   1.162   5.127   0.458 -0.1067 -2.5111 -3.2992
 4375TIP3   OH213130   1.703   0.542   2.878  0.0051  0.1289 -0.4545
 4375TIP3    H113131   1.732   0.571   2.791  0.4648 -1.2698 -0.8006
 4375TIP3    H213132   1.740   0.454   2.887 -1.6885 -0.5317  0.3557
 4376TIP3   OH213133   5.536   2.173   0.100 -0.2929  0.4424  0.5681
 4376TIP3    H113134   5.615   2.151   0.149 -1.1005 -0.0820  1.6967
 4376TIP3    H213135   5.504   2.254   0.141  0.1343  1.1843 -0.4981
 4377TIP3   OH213136   2.357   3.152   3.225 -0.2358 -0.7272  0.0354
 4377TIP3    H113137   2.338   3.222   3.288  0.8304  0.8299 -1.2631
 4377TIP3    H213138   2.297   3.168   3.152 -0.1029 -1.2709 -0.1980
 4378TIP3   OH213139   1.629   3.419   0.242 -0.0869 -0.0944  0.0790
 4378TIP3    H113140   1.689   3.382   0.176 -0.2906 -0.8551  0.3046
 4378TIP3    H213141   1.668   3.393   0.326 -0.2198  0.2373  0.2416
 4379TIP3   OH213142   1.834   5.751   4.726  0.3294  0.1970 -0.2623
 4379TIP3    H113143   1.790   5.679   4.681 -0.4302 -0.0057  0.7659
 4379TIP3    H213144   1.807   5.829   4.678 -0.1360 -0.0580 -0.4265
 4380TIP3   OH213145   2.901   2.639   3.357  0.6413 -0.6876  0.2285
 4380TIP3    H113146   2.931   2.638   3.448  1.7317 -0.1466 -0.1048
 4380TIP3    H213147   2.820   2.688   3.359  1.3369  0.4834  0.7348
 4381TIP3   OH213148   3.821   0.052   3.681  0.2304 -0.0776 -0.3500
 4381TIP3    H113149   3.861  -0.018   3.734 -0.2570 -0.1577 -0.0788
 4381TIP3    H213150   3.892   0.114   3.666  0.1497  0.4803  1.3072
 4382TIP3   OH213151   5.757   5.334   4.941 -0.3500  0.3492 -0.0825
 4382TIP3    H113152   5.773   5.241   4.925 -0.8763  0.4658 -1.4284
 4382TIP3    H213153   5.837   5.377   4.912  0.1217  0.2876  1.0845
 4383TIP3   OH213154   4.052   0.990   0.544 -0.0818  0.1252  0.3482
 4383TIP3    H113155   4.119   1.025   0.602 -0.0041 -1.9315  1.6014
 4383TIP3    H213156   4.066   1.035   0.460  0.7963  2.0288  1.4703
 4384TIP3   OH213157   2.806   0.817   5.048  0.2885 -0.1868  0.2190
 4384TIP3    H113158   2.729   0.763   5.065 -0.1789  0.2182 -0.5455
 4384TIP3    H213159   2.771   0.897   5.009  0.9570  0.7607  1.5072
 4385TIP3   OH213160   5.060   2.656   4.948  0.4924  0.4986  0.7491
 4385TIP3    H113161   5.077   2.570   4.910  0.2745  0.7827 -0.0004
 4385TIP3    H213162   4.964   2.661   4.954  0.4616  1.0056  0.0214
 4386TIP3   OH213163   2.740   1.848   0.058  0.3397  0.0668  0.0087
 4386TIP3    H113164   2.679   1.812   0.123 -2.3544  1.5830 -1.4859
 4386TIP3    H213165   2.705   1.818  -0.026  1.6195  1.0955 -0.9155
 4387TIP3   OH213166   1.361   0.294   5.071  0.1033 -0.5852 -0.1699
 4387TIP3    H113167   1.324   0.363   5.015 -1.2825 -0.2859  1.0764
 4387TIP3    H213168   1.361   0.216   5.016 -1.7703 -0.4355 -0.4282
 4388TIP3   OH213169   1.305   0.937   3.528  0.1286  0.7490 -0.3142
 4388TIP3    H113170   1.334   0.846   3.529 -1.2905  0.2266  1.9166
 4388TIP3    H213171   1.243   0.942   3.455 -0.5733 -0.3874  0.1723
 4389TIP3   OH213172   1.900   2.461   2.935  0.4477  0.1734 -0.5794
 4389TIP3    H113173   1.853   2.544   2.948 -1.1183 -0.8625  0.7044
 4389TIP3    H213174   1.977   2.468   2.991  0.6121  0.9435 -0.8784
 4390TIP3   OH213175   0.181   5.623   1.908  0.2148 -0.2994  0.7908
 4390TIP3    H113176   0.238   5.699   1.896  0.1601 -0.4313 -0.4068
 4390TIP3    H213177   0.232   5.549   1.875 -0.5824 -0.4350 -0.1848
 4391TIP3   OH213178   3.182   0.951   0.916 -0.6072  0.1210 -0.1677
 4391TIP3    H113179   3.208   0.942   1.008 -2.2958 -1.2208  0.2289
 4391TIP3    H213180   3.171   1.045   0.904  1.8743  0.5521  0.3014
 4392TIP3   OH213181   5.433   4.446   2.052  0.3178  0.0013  0.0497
 4392TIP3    H113182   5.398   4.494   1.977  1.4046  0.2749 -0.3150
 4392TIP3    H213183   5.357   4.405   2.093 -0.4849  1.0501 -0.3450
 4393TIP3   OH213184   2.233   1.834   3.769  0.4638 -0.4776  0.0811
 4393TIP3    H113185   2.216   1.815   3.676  0.3846  1.6183 -0.3855
 4393TIP3    H213186   2.279   1.756   3.801  1.6113 -0.7537 -2.0515
 4394TIP3   OH213187   5.717   4.500   4.390 -0.0999 -0.0785 -0.0116
 4394TIP3    H113188   5.697   4.569   4.454 -3.1530 -0.8867  0.0566
 4394TIP3    H213189   5.790   4.452   4.429 -0.3613  0.8505  1.7538
 4395TIP3   OH213190   1.969   1.066   1.746  0.6003 -0.2821 -0.5005
 4395TIP3    H113191   2.035   1.000   1.724  2.9729  1.7964 -0.1409
 4395TIP3    H213192   1.994   1.142   1.694 -0.9785  0.8986  0.3918
 4396TIP3   OH213193   4.383   0.678   5.040  0.2535  0.3387 -0.3290
 4396TIP3    H113194   4.337   0.757   5.014 -0.7236 -0.6288 -1.6876
 4396TIP3    H213195   4.413   0.639   4.957 -0.8292 -1.6000  0.1093
 4397TIP3   OH213196   2.267   2.111   2.733 -0.3129 -0.3726  0.1363
 4397TIP3    H113197   2.254   2.096   2.827  1.9916 -1.9620  0.3006
 4397TIP3    H213198   2.207   2.050   2.690 -0.7164 -0.2953  0.5854
 4398TIP3   OH213199   0.124   4.434   2.823  0.4746 -0.5579  0.0971
 4398TIP3    H113200   0.172   4.467   2.900 -0.8437 -0.7658  1.0470
 4398TIP3    H213201   0.163   4.349   2.805  0.9783 -0.3896  0.3675
 4399TIP3   OH213202   2.787   5.517   4.994 -0.0806 -0.0610 -0.2010
 4399TIP3    H113203   2.731   5.458   5.046 -0.7306 -0.3620 -1.2195
 4399TIP3    H213204   2.792   5.596   5.047 -0.2857 -0.5531  0.5806
 4400TIP3   OH213205   0.444   5.907   0.538 -0.0242  0.1654  0.4510
 4400TIP3    H113206   0.489   5.981   0.496  1.1452 -0.3927  0.6741
 4400TIP3    H213207   0.404   5.945   0.616 -0.2917  0.7572  0.0368
 4401TIP3   OH213208   4.331   5.863   5.170  0.1713 -0.2293 -0.0455
 4401TIP3    H113209   4.375   5.922   5.108  1.0262 -1.4041 -0.6076
 4401TIP3    H213210   4.374   5.879   5.253  0.2199  0.1214 -0.1353
 4402TIP3   OH213211   1.729   3.147   2.397  0.1506 -0.1251 -0.2235
 4402TIP3    H113212   1.658   3.126   2.458 -1.5233  1.7826 -1.3969
 4402TIP3    H213213   1.809   3.137   2.449 -0.8235 -3.0443  0.9648
 4403TIP3   OH213214   4.455   2.106   1.075 -0.0261 -0.9016  0.0283
 4403TIP3    H113215   4.369   2.065   1.087 -0.8381  0.3406 -1.2564
 4403TIP3    H213216   4.437   2.184   1.023  1.5304  0.8194  1.9179
 4404TIP3   OH213217   0.419   0.437   3.951 -0.1980  0.1590  0.0283
 4404TIP3    H113218   0.435   0.353   3.910 -1.8011 -0.2508  0.1656
 4404TIP3    H213219   0.466   0.433   4.034  1.7910  0.4023 -1.0358
 4405TIP3   OH213220   5.764   4.648   2.073  0.2274 -0.2061 -0.1095
 4405TIP3    H113221   5.674   4.657   2.104  0.4761 -0.8606  0.8505
 4405TIP3    H213222   5.809   4.726   2.105  0.4955 -0.9045  1.2604
 4406TIP3   OH213223   0.662   5.338   1.763 -0.2057 -0.3068 -0.3164
 4406TIP3    H113224   0.638   5.424   1.796 -0.1678 -0.8498  1.1949
 4406TIP3    H213225   0.668   5.350   1.668  3.9020  2.4436 -0.0004
 4407TIP3   OH213226   2.737   1.386   0.307  0.1036  0.0403  0.0910
 4407TIP3    H113227   2.701   1.402   0.395 -1.3639 -0.5034 -0.3736
 4407TIP3    H213228   2.799   1.457   0.293 -1.3272  1.4706  0.6842
 4408TIP3   OH213229   1.571   1.496   1.971  0.5079  0.2029  0.2884
 4408TIP3    H113230   1.559   1.578   1.922 -1.6467 -0.0292  0.3605
 4408TIP3    H213231   1.662   1.472   1.954  0.5299  1.4050 -1.6286
 4409TIP3   OH213232   4.847   2.063   4.538  0.0553  0.0499 -0.0390
 4409TIP3    H113233   4.895   2.101   4.611  1.3905  0.8278 -1.2785
 4409TIP3    H213234   4.758   2.098   4.547 -0.0076 -0.4552  1.5974
 4410TIP3   OH213235   2.098   5.367   2.742 -0.9974  0.4368  0.3271
 4410TIP3    H113236   2.082   5.279   2.709 -2.0136  0.8348 -0.2740
 4410TIP3    H213237   2.014   5.396   2.777 -1.8324  2.5852 -2.9498
 4411TIP3   OH213238   2.233   4.487   2.818  0.5144 -0.6313  0.1292
 4411TIP3    H113239   2.253   4.569   2.863 -0.4473 -0.2532 -0.1019
 4411TIP3    H213240   2.303   4.478   2.754  0.1785  0.4850 -0.4345
 4412TIP3   OH213241   0.435   1.368   2.741 -0.6709 -0.1110 -0.1429
 4412TIP3    H113242   0.383   1.301   2.698 -1.5904  0.7277 -0.3717
 4412TIP3    H213243   0.511   1.321   2.776 -0.9001 -1.1246 -0.9710
 4413TIP3   OH213244   4.743   5.294   3.481 -0.2269 -0.4487 -0.3484
 4413TIP3    H113245   4.666   5.348   3.500 -0.3634 -0.6979 -0.1876
 4413TIP3    H213246   4.760   5.309   3.388  0.8465  1.3035  0.0673
 4414TIP3   OH213247   1.987   5.004   5.172  0.3079  0.3544  0.0199
 4414TIP3    H113248   2.038   5.074   5.131 -1.6533  0.6774 -2.0110
 4414TIP3    H213249   2.022   4.924   5.134 -2.0044  0.6759 -3.2113
 4415TIP3   OH213250   5.634   4.389   3.890 -0.3557  0.1706  0.1265
 4415TIP3    H113251   5.670   4.439   3.963  0.2582 -0.0039 -0.0534
 4415TIP3    H213252   5.545   4.422   3.880  0.2497  1.7392 -0.4312
 4416TIP3   OH213253   1.399   4.965   2.748  0.4553  0.2635 -0.5372
 4416TIP3    H113254   1.370   5.056   2.752 -2.0172 -0.3607 -2.1711
 4416TIP3    H213255   1.417   4.941   2.839 -2.3195  1.3885  0.4162
 4417TIP3   OH213256   2.189   5.903   4.125 -0.1061 -0.4121  0.4293
 4417TIP3    H113257   2.244   5.828   4.147 -0.9551 -0.6844  1.7614
 4417TIP3    H213258   2.177   5.949   4.208  1.5656  2.0556 -0.5791
 4418TIP3   OH213259   4.788   2.998   0.839  0.5389 -0.3448  0.2232
 4418TIP3    H113260   4.745   2.995   0.753  0.0323  0.1452  0.4513
 4418TIP3    H213261   4.861   2.937   0.831 -0.4593 -1.5679 -0.0418
 4419TIP3   OH213262   2.744   4.231   4.537  0.6161 -0.4202  0.2931
 4419TIP3    H113263   2.812   4.199   4.597  1.1126 -0.8680 -0.4930
 4419TIP3    H213264   2.686   4.156   4.524  0.4900 -0.3131  0.2333
 4420TIP3   OH213265   3.771   5.445   4.238 -0.0042  0.3574  0.2974
 4420TIP3    H113266   3.786   5.360   4.279 -0.9756 -1.0987 -2.1978
 4420TIP3    H213267   3.833   5.449   4.165 -1.6778  0.6297 -1.1731
 4421TIP3   OH213268   3.093   1.472   0.106 -0.4001 -0.4731  0.2403
 4421TIP3    H113269   3.055   1.409   0.044 -1.2876 -0.4131  0.7114
 4421TIP3    H213270   3.019   1.524   0.136 -0.3245 -1.6343  2.6735
 4422TIP3   OH213271   6.188   3.994   0.467 -0.1188  0.1433 -0.4129
 4422TIP3    H113272   6.267   3.944   0.490 -0.3731  0.8223  2.3652
 4422TIP3    H213273   6.217   4.056   0.401  1.6481  0.2225  0.3735
 4423TIP3   OH213274   6.091   5.193   1.186  0.4588 -0.2783  0.0113
 4423TIP3    H113275   6.136   5.209   1.269 -0.7891 -0.5177  0.7484
 4423TIP3    H213276   6.160   5.201   1.120  1.4159  0.2045  1.0352
 4424TIP3   OH213277   6.222   3.943   5.021  0.0272 -0.2802  0.3226
 4424TIP3    H113278   6.302   3.929   4.971 -0.2981 -0.6705 -0.0916
 4424TIP3    H213279   6.163   3.873   4.993 -1.7532  1.9825 -2.0558
 4425TIP3   OH213280   3.020   0.243   1.312 -0.1861 -0.7340 -0.6129
 4425TIP3    H113281   2.943   0.259   1.257 -0.2963  0.2720 -0.1892
 4425TIP3    H213282   3.024   0.148   1.321 -1.6662 -0.7813 -0.2495
 4426TIP3   OH213283   5.743   2.854   2.101 -0.2335 -0.3108  0.3189
 4426TIP3    H113284   5.742   2.766   2.138 -0.1063 -0.5405 -0.2160
 4426TIP3    H213285   5.802   2.904   2.157 -1.0224 -0.3189  1.1776
 4427TIP3   OH213286   6.342   1.654   1.320 -0.6683 -0.1621 -0.0650
 4427TIP3    H113287   6.259   1.673   1.276 -0.8120 -2.9125 -1.2058
 4427TIP3    H213288   6.339   1.560   1.338  1.5443 -0.0448  1.3449
 4428TIP3   OH213289   0.106   3.197   1.909 -0.1238 -0.1215 -0.3645
 4428TIP3    H113290   0.159   3.193   1.989 -0.1041  0.0427 -0.3689
 4428TIP3    H213291   0.057   3.114   1.909 -2.9394  1.3521  1.7583
 4429TIP3   OH213292   6.024   2.116   3.125 -0.0001  0.2142  0.7173
 4429TIP3    H113293   5.995   2.121   3.216  2.9462  1.9016  1.7263
 4429TIP3    H213294   6.113   2.153   3.126  0.0847  0.5272 -2.8873
 4430TIP3   OH213295   0.637   2.966   2.180 -0.2919  0.1056  0.0403
 4430TIP3    H113296   0.660   3.052   2.215 -1.4026  0.4718 -0.0702
 4430TIP3    H213297   0.704   2.948   2.114 -0.5078  1.2860 -0.5296
 4431TIP3   OH213298   0.180   0.062   3.012  0.0354  0.4951  0.5447
 4431TIP3    H113299   0.139   0.037   3.094 -2.4965 -0.3940 -0.8942
 4431TIP3    H213300   0.274   0.065   3.032 -0.4500 -0.2431  3.2824
 4432TIP3   OH213301   0.928   3.901   4.741 -0.0250  0.0183  0.2498
 4432TIP3    H113302   0.853   3.953   4.770 -0.1511  0.1622 -0.3226
 4432TIP3    H213303   0.946   3.842   4.814  0.1852  0.9338  0.9600
 4433TIP3   OH213304   0.964   0.646   0.808 -0.6372 -0.1279  0.1631
 4433TIP3    H113305   0.991   0.562   0.846  0.8888 -0.1065 -0.8109
 4433TIP3    H213306   0.978   0.709   0.879 -1.5792 -0.6453  0.8278
 4434TIP3   OH213307   2.727   1.097   2.445  0.1262 -0.3493 -0.4778
 4434TIP3    H113308   2.703   1.144   2.365  1.1050  0.5310 -0.2779
 4434TIP3    H213309   2.644   1.068   2.483 -0.5746  1.9205 -0.1873
 4435TIP3   OH213310   2.538   1.665   4.069 -0.0241 -0.6627 -0.2688
 4435TIP3    H113311   2.575   1.608   4.002 -0.9722 -1.0579 -0.4640
 4435TIP3    H213312   2.546   1.615   4.150  0.6348 -0.3998 -0.1644
 4436TIP3   OH213313   2.442   1.761   0.633 -0.1394 -0.0377 -0.5425
 4436TIP3    H113314   2.512   1.825   0.623  1.0401 -1.2295 -0.0822
 4436TIP3    H213315   2.465   1.690   0.573 -0.7824 -0.5990 -0.1401
 4437TIP3   OH213316   6.318   4.045   2.149  0.0516  0.6556 -0.1894
 4437TIP3    H113317   6.267   3.966   2.170  0.7494  0.0802 -0.6147
 4437TIP3    H213318   6.296   4.064   2.059  0.7805  0.2404 -0.4672
 4438TIP3   OH213319   4.260   5.642   4.163 -0.1967  0.0971  0.5839
 4438TIP3    H113320   4.229   5.619   4.250  0.2886  0.2219  0.7952
 4438TIP3    H213321   4.294   5.731   4.173  2.1596 -0.7536  0.8860
 4439TIP3   OH213322   6.078   3.493   2.652 -0.0518  0.2557  0.3957
 4439TIP3    H113323   6.075   3.412   2.601 -1.6411  0.8452 -0.5246
 4439TIP3    H213324   6.148   3.479   2.716  2.1656 -0.4704 -2.0185
 4440TIP3   OH213325   0.473   1.992   2.263  0.0764  0.8620 -0.4226
 4440TIP3    H113326   0.526   1.977   2.341 -1.8629 -0.2940  0.7547
 4440TIP3    H213327   0.535   2.025   2.198  1.7334  2.0828  1.6398
 4441TIP3   OH213328   4.612   5.323   0.165  0.3806 -0.2308  0.0964
 4441TIP3    H113329   4.625   5.244   0.112  1.2691 -0.9287  1.2846
 4441TIP3    H213330   4.589   5.289   0.252 -0.2794  0.8521  0.3515
 4442TIP3   OH213331   1.393   2.353   2.985 -0.0094 -0.1873  0.5683
 4442TIP3    H113332   1.388   2.446   2.962  0.4071 -0.8004 -2.4038
 4442TIP3    H213333   1.486   2.333   2.981 -0.2818 -1.2717 -1.5753
 4443TIP3   OH213334   0.822   0.070   3.405 -0.0868  0.1840  0.0726
 4443TIP3    H113335   0.817   0.115   3.489 -1.6589  1.6288 -0.7235
 4443TIP3    H213336   0.732   0.040   3.389 -0.2661  1.5475 -1.8767
 4444TIP3   OH213337   3.583   2.298   2.553 -0.3406  0.6610  0.6619
 4444TIP3    H113338   3.534   2.370   2.514  1.6286  0.3538 -2.7584
 4444TIP3    H213339   3.653   2.341   2.603  0.8285  1.2698 -1.3696
 4445TIP3   OH213340   5.971   4.894   4.571  0.4143 -0.3380 -0.4363
 4445TIP3    H113341   6.014   4.819   4.612  2.5089  0.0222 -1.8069
 4445TIP3    H213342   6.011   4.970   4.612 -0.8303  0.0693  0.0807
 4446TIP3   OH213343   1.920   0.740   2.711  0.2614 -0.3537  0.4321
 4446TIP3    H113344   1.926   0.654   2.669 -1.2357 -1.6559  2.6746
 4446TIP3    H213345   2.010   0.760   2.736  0.9001 -0.4060 -1.6079
 4447TIP3   OH213346   2.570   1.088   3.286  0.2958  0.5216  0.1918
 4447TIP3    H113347   2.566   1.176   3.249  0.3757  0.7890  0.8219
 4447TIP3    H213348   2.561   1.100   3.380 -1.2598 -0.2667  0.1772
 4448TIP3   OH213349   0.965   1.514   4.791  0.3608  0.0561  0.4206
 4448TIP3    H113350   0.944   1.423   4.811  0.2577  0.5353  2.7341
 4448TIP3    H213351   1.059   1.521   4.809  0.1439  0.6623  1.3534
 4449TIP3   OH213352   5.259   1.688   3.222  0.3416 -0.5579 -0.5365
 4449TIP3    H113353   5.305   1.644   3.151  0.2692 -2.8594  0.7432
 4449TIP3    H213354   5.173   1.710   3.185  0.8150 -0.4119 -1.5666
 4450TIP3   OH213355   5.526   1.760   1.934  0.3000  0.0812 -0.4370
 4450TIP3    H113356   5.546   1.667   1.944  1.7392  0.3657 -0.5090
 4450TIP3    H213357   5.586   1.791   1.867  0.2067  1.1714 -0.0380
 4451TIP3   OH213358   3.945   3.907   1.043  0.2433  0.1016  0.0192
 4451TIP3    H113359   3.899   3.901   1.126  0.2969 -4.0488 -0.0470
 4451TIP3    H213360   4.033   3.937   1.066  0.1716 -0.7222  1.4806
 4452TIP3   OH213361   2.722   2.001   3.041 -0.0773 -0.9314  0.4437
 4452TIP3    H113362   2.628   2.015   3.052 -0.1827  1.1961 -2.0625
 4452TIP3    H213363   2.733   1.985   2.947  2.0641 -1.2019  0.6884
 4453TIP3   OH213364   4.035   1.797   4.072 -0.5626 -0.2023 -0.1377
 4453TIP3    H113365   4.057   1.836   4.156 -1.3858 -0.4349  0.1941
 4453TIP3    H213366   3.947   1.831   4.052 -1.1942 -1.6433  0.0351
 4454TIP3   OH213367   0.772   0.569   0.300 -0.3355 -0.1069  0.1670
 4454TIP3    H113368   0.853   0.603   0.264 -0.0722 -0.2621  0.6019
 4454TIP3    H213369   0.795   0.541   0.389 -0.6825 -0.8687  0.0224
 4455TIP3   OH213370   2.657   1.353   0.596  0.0288 -0.2549  0.5824
 4455TIP3    H113371   2.657   1.347   0.692 -0.2763 -1.3790  0.5188
 4455TIP3    H213372   2.647   1.263   0.566  3.5950 -0.4203 -0.5646
 4456TIP3   OH213373   5.419   2.307   1.851  0.1884  0.1279  0.3171
 4456TIP3    H113374   5.491   2.246   1.864 -0.2269 -0.6306 -0.8318
 4456TIP3    H213375   5.437   2.349   1.768  0.0012  0.9291  0.6719
 4457TIP3   OH213376   1.521   0.121   4.937  0.2505 -0.2204  1.0517
 4457TIP3    H113377   1.585   0.162   4.995  0.8115 -0.1263  0.3661
 4457TIP3    H213378   1.564   0.042   4.904  0.4091  0.3677 -0.2028
 4458TIP3   OH213379   3.751   0.580   0.546 -0.0380  0.2335  0.1245
 4458TIP3    H113380   3.803   0.655   0.517 -0.3878  0.5488  0.2925
 4458TIP3    H213381   3.781   0.507   0.492  0.5578  0.4146  0.2065
 4459TIP3   OH213382   4.467   2.834   3.147 -0.0919 -0.2298 -0.1565
 4459TIP3    H113383   4.457   2.916   3.099 -1.0970 -0.6324 -0.6520
 4459TIP3    H213384   4.379   2.798   3.154  0.4429 -1.7725 -0.8460
 4460TIP3   OH213385   1.245   1.626   1.796  0.2612 -0.2805 -0.3809
 4460TIP3    H113386   1.279   1.688   1.861 -0.4004 -0.6066  0.2885
 4460TIP3    H213387   1.154   1.651   1.784  0.1270 -0.8118 -0.4788
 4461TIP3   OH213388   0.025   2.846   3.266  0.3161  0.1766  0.5903
 4461TIP3    H113389   0.069   2.878   3.187  0.7874  2.2050  1.6221
 4461TIP3    H213390  -0.066   2.874   3.255  0.6894  1.8460  1.4048
 4462TIP3   OH213391   0.341   1.196   1.968 -0.1693 -0.1047  0.1961
 4462TIP3    H113392   0.354   1.289   1.953  0.4953  0.0200  1.3643
 4462TIP3    H213393   0.246   1.183   1.965 -0.2259  0.4594 -0.7110
 4463TIP3   OH213394   2.443   5.726   0.661 -0.3507  0.2897 -0.3410
 4463TIP3    H113395   2.535   5.716   0.637 -0.3548 -1.1661  0.2055
 4463TIP3    H213396   2.428   5.821   0.656  1.5244  0.6987  0.8195
 4464TIP3   OH213397   1.824   5.149   3.810  0.0445 -0.3796  0.0027
 4464TIP3    H113398   1.764   5.128   3.738 -0.6092  0.5104  0.2620
 4464TIP3    H213399   1.904   5.178   3.767  0.0369 -0.8938 -0.3592
 4465TIP3   OH213400   4.376   0.608   0.966 -0.5568  0.1964  0.4172
 4465TIP3    H113401   4.400   0.699   0.948  0.3058 -0.3690 -1.4901
 4465TIP3    H213402   4.316   0.614   1.041 -0.4892  2.3178  0.3644
 4466TIP3   OH213403   0.060   1.571   0.264  0.4284  0.0155  0.5356
 4466TIP3    H113404   0.006   1.526   0.199  0.1439  0.5882  0.3741
 4466TIP3    H213405   0.104   1.641   0.215  2.5921 -1.4183  0.2972
 4467TIP3   OH213406   0.102   2.244   2.611 -0.3567 -0.2676 -0.1924
 4467TIP3    H113407   0.091   2.158   2.570 -0.2136 -0.9459  1.1467
 4467TIP3    H213408   0.014   2.269   2.637 -0.4368  0.1298 -0.8271
 4468TIP3   OH213409   1.293   2.257   4.482 -0.6129 -0.4702  0.2656
 4468TIP3    H113410   1.304   2.352   4.490  1.2977 -0.5627 -0.8054
 4468TIP3    H213411   1.369   2.228   4.433 -0.0718 -2.8758  2.3424
 4469TIP3   OH213412   1.384   4.424   2.268  0.0660 -0.2483  0.2642
 4469TIP3    H113413   1.429   4.393   2.347  1.0365  0.4496  0.0023
 4469TIP3    H213414   1.443   4.402   2.196 -0.8186 -0.8883 -0.2893
 4470TIP3   OH213415   2.528   4.114   2.426 -0.5990  0.0771 -0.7433
 4470TIP3    H113416   2.501   4.098   2.336 -1.2356 -1.3546 -0.3317
 4470TIP3    H213417   2.468   4.060   2.478 -0.5984  1.3016  0.5686
 4471TIP3   OH213418   4.026   1.614   3.513  0.6628  0.0232 -0.4005
 4471TIP3    H113419   3.980   1.655   3.439 -0.4691  0.9160  0.7572
 4471TIP3    H213420   4.018   1.677   3.584  1.7238 -0.8327  0.5065
 4472TIP3   OH213421   4.473   5.481   1.832 -0.6907  0.4710 -0.2201
 4472TIP3    H113422   4.518   5.543   1.775 -1.4747  0.2851 -1.0718
 4472TIP3    H213423   4.453   5.406   1.776 -1.0715  0.0838  0.4143
 4473TIP3   OH213424   3.838   4.623   5.140  0.2030  0.3141  0.5575
 4473TIP3    H113425   3.921   4.663   5.165  0.6021  1.3394 -2.0813
 4473TIP3    H213426   3.861   4.562   5.070 -1.2858  1.0374 -0.6242
 4474TIP3   OH213427   2.821   1.220   1.622 -0.1256  0.0866 -0.3321
 4474TIP3    H113428   2.836   1.212   1.528 -0.4564  1.3573 -0.5073
 4474TIP3    H213429   2.730   1.191   1.635  0.1949 -0.9334 -0.2599
 4475TIP3   OH213430   5.910   1.241   2.100 -0.0418 -0.5410 -0.0229
 4475TIP3    H113431   5.925   1.220   2.192 -1.6565 -0.2695  0.3456
 4475TIP3    H213432   5.854   1.319   2.102 -0.1093 -0.5365 -1.2236
 4476TIP3   OH213433   1.748   2.696   0.190 -0.1197 -0.0369  0.3125
 4476TIP3    H113434   1.761   2.603   0.177 -0.9302  0.1413 -2.2725
 4476TIP3    H213435   1.687   2.702   0.264 -3.2097 -1.8450 -1.8389
 4477TIP3   OH213436   3.611   2.720   1.040  0.2096 -0.0589 -0.1226
 4477TIP3    H113437   3.686   2.769   1.074  1.6397 -2.7117  0.8249
 4477TIP3    H213438   3.601   2.750   0.949  3.2415 -0.4706 -0.6830
 4478TIP3   OH213439   1.874   4.969   4.025 -0.4813 -0.0238  0.2402
 4478TIP3    H113440   1.954   4.920   4.009  0.5888  1.4084  0.9897
 4478TIP3    H213441   1.861   5.021   3.945  0.6322  1.4424  0.9803
 4479TIP3   OH213442   2.915   2.904   0.344 -0.2287 -0.3508 -0.2961
 4479TIP3    H113443   2.964   2.918   0.263  1.1402 -0.3462  0.4990
 4479TIP3    H213444   2.823   2.913   0.319  0.1977  0.2510 -1.7169
 4480TIP3   OH213445   2.573   3.273   1.731 -0.1161  0.2852  0.3141
 4480TIP3    H113446   2.488   3.246   1.697 -0.0025  0.2171  0.0807
 4480TIP3    H213447   2.625   3.192   1.731 -0.2813  0.1649  1.1717
 4481TIP3   OH213448   2.420   5.264   0.477  1.0945 -0.0219  0.1891
 4481TIP3    H113449   2.465   5.345   0.453  1.2682 -0.2901 -0.3948
 4481TIP3    H213450   2.489   5.197   0.474  0.9379 -0.2080  0.6014
 4482TIP3   OH213451   5.791   5.304   4.215  0.0594 -0.0209  0.2459
 4482TIP3    H113452   5.837   5.231   4.173  0.9539 -0.0812  1.2634
 4482TIP3    H213453   5.815   5.296   4.307  0.8081  1.9856  0.2772
 4483TIP3   OH213454   1.701   1.168   1.346  0.5688 -0.0378 -0.3387
 4483TIP3    H113455   1.789   1.133   1.362  0.6986  0.4605  0.0605
 4483TIP3    H213456   1.673   1.126   1.264  0.7547 -1.0035  0.0699
 4484TIP3   OH213457   6.033   4.009   1.281  0.2311 -0.3671  0.3216
 4484TIP3    H113458   6.103   4.064   1.316  0.6291 -0.3176 -0.5519
 4484TIP3    H213459   6.077   3.932   1.246 -0.3784 -1.7519  2.3740
 4485TIP3   OH213460   6.324   0.099   3.214  0.3156  0.3889  0.4199
 4485TIP3    H113461   6.237   0.118   3.180  0.9131 -1.2741 -2.3332
 4485TIP3    H213462   6.320   0.008   3.243  1.3293  0.0517 -0.4652
 4486TIP3   OH213463   1.585   1.024   4.451  0.1567 -0.5615 -0.5106
 4486TIP3    H113464   1.665   1.076   4.440  0.1647 -0.3372  0.5074
 4486TIP3    H213465   1.576   0.976   4.368 -0.5498  2.0145 -2.0486
 4487TIP3   OH213466   0.486   1.706   3.371 -0.3230 -0.1809 -0.3681
 4487TIP3    H113467   0.503   1.634   3.432 -0.7852  0.3003  0.3445
 4487TIP3    H213468   0.560   1.705   3.310  1.1552  0.5289  1.3540
 4488TIP3   OH213469   5.955   2.622   1.186 -0.4889  0.0948 -0.3151
 4488TIP3    H113470   5.925   2.634   1.276  0.3449  1.9976 -0.2421
 4488TIP3    H213471   5.979   2.529   1.180  1.4714  0.3662  2.0651
 4489TIP3   OH213472   1.397   2.830   4.289  0.1236  0.2400 -0.0211
 4489TIP3    H113473   1.476   2.885   4.279  0.7414 -0.4378  0.9622
 4489TIP3    H213474   1.371   2.809   4.199 -0.4893  2.6071 -0.4818
 4490TIP3   OH213475   0.693   0.707   3.343  0.4483 -0.0118  0.4111
 4490TIP3    H113476   0.650   0.642   3.398 -0.1166 -0.5904 -0.6675
 4490TIP3    H213477   0.640   0.708   3.263  1.3152  0.7025 -0.1692
 4491TIP3   OH213478   1.842   2.156   2.633  0.8197  0.0338  0.2992
 4491TIP3    H113479   1.834   2.191   2.544 -0.1912 -0.1588  0.2978
 4491TIP3    H213480   1.928   2.185   2.663  0.9338  0.5915 -0.5309
 4492TIP3   OH213481   5.479   3.479  -0.016  0.0825 -0.1423 -0.0444
 4492TIP3    H113482   5.551   3.496   0.046  0.3926  1.7582 -0.8486
 4492TIP3    H213483   5.414   3.546   0.005 -0.7013 -0.7597 -0.4638
 4493TIP3   OH213484   1.234   4.632   2.123 -0.1293  0.2932 -0.1737
 4493TIP3    H113485   1.282   4.583   2.056 -3.5809 -2.1050 -1.1514
 4493TIP3    H213486   1.209   4.714   2.080  0.7007  0.3547 -0.5592
 4494TIP3   OH213487   5.553   3.172   2.273 -0.3796  0.8021  0.4082
 4494TIP3    H113488   5.616   3.233   2.234  1.1954  0.2146  1.8968
 4494TIP3    H213489   5.569   3.179   2.368  0.0254 -2.0289  0.6242
 4495TIP3   OH213490   2.792   5.263   3.804  0.1202 -0.6744 -0.5410
 4495TIP3    H113491   2.787   5.205   3.880  1.2931 -0.7045 -0.4609
 4495TIP3    H213492   2.727   5.331   3.821 -0.2328 -1.1628  0.0766
 4496TIP3   OH213493   5.540   4.483   4.921  0.0656  0.1418  0.8401
 4496TIP3    H113494   5.489   4.553   4.960 -2.2501 -0.5085 -0.7890
 4496TIP3    H213495   5.476   4.413   4.904  2.0539 -1.9130  1.3303
 4497TIP3   OH213496   1.240   1.260   2.803 -0.0826 -0.1988 -0.0258
 4497TIP3    H113497   1.154   1.285   2.837  0.1002  0.0556  0.2601
 4497TIP3    H213498   1.247   1.307   2.720  0.2533  0.7175  0.4989
 4498TIP3   OH213499   0.559   5.196   3.453 -0.3896  0.0098  0.7157
 4498TIP3    H113500   0.560   5.291   3.463  1.7738  0.0702  0.2122
 4498TIP3    H213501   0.650   5.171   3.443 -1.0753 -1.7849 -2.4152
 4499TIP3   OH213502   5.406   5.493   4.834  0.4484 -0.0609 -0.3693
 4499TIP3    H113503   5.400   5.484   4.929  1.1963  0.4333 -0.2667
 4499TIP3    H213504   5.487   5.448   4.811  0.4718  0.1642 -0.7294
 4500TIP3   OH213505   2.337   4.024   3.430  0.5602 -0.7435 -0.0118
 4500TIP3    H113506   2.394   4.030   3.353  2.4778 -0.6254  1.3310
 4500TIP3    H213507   2.302   3.935   3.427 -0.5618 -0.2699 -1.7697
 4501TIP3   OH213508   1.935   5.384   0.466  0.2806  0.0216 -0.2501
 4501TIP3    H113509   1.916   5.355   0.555 -0.1234 -0.5104 -0.5029
 4501TIP3    H213510   1.992   5.460   0.477  0.5450 -0.2721  0.4493
 4502TIP3   OH213511   2.593   2.868   5.053  0.2474  0.0106  0.1653
 4502TIP3    H113512   2.644   2.935   5.100  0.9790  0.1314 -0.7742
 4502TIP3    H213513   2.623   2.785   5.091  0.0617  0.1586  0.6440
 4503TIP3   OH213514   2.522   0.229   3.416  0.1156  0.1121  0.1774
 4503TIP3    H113515   2.546   0.275   3.496 -0.0475 -2.3575  1.7676
 4503TIP3    H213516   2.504   0.298   3.353  2.6282  2.1569  1.4991
 4504TIP3   OH213517   3.746   3.633   3.856 -0.1225 -0.3408  0.3492
 4504TIP3    H113518   3.720   3.567   3.919  0.0030  0.0872  0.8534
 4504TIP3    H213519   3.708   3.714   3.889 -1.2635 -0.3347 -0.8650
 4505TIP3   OH213520   2.992   2.719   4.775  0.6545  0.2148  0.5765
 4505TIP3    H113521   2.997   2.643   4.717 -1.1213  0.1576  0.4199
 4505TIP3    H213522   3.042   2.787   4.732  1.7668 -0.6744  0.4190
 4506TIP3   OH213523   4.945   0.207   2.011  0.1118 -0.2538 -0.1900
 4506TIP3    H113524   4.946   0.135   2.073 -1.2236 -0.5319 -0.4624
 4506TIP3    H213525   5.005   0.181   1.941  0.8833 -0.3581  0.4977
 4507TIP3   OH213526   3.914   2.971   2.822 -0.3979 -0.0882 -0.1169
 4507TIP3    H113527   3.930   2.937   2.733 -0.5695  0.3323 -0.3102
 4507TIP3    H213528   3.906   3.065   2.810  0.4529  0.0739  0.4681
 4508TIP3   OH213529   1.026   2.089   2.350 -0.0528 -0.8073  0.4995
 4508TIP3    H113530   0.953   2.060   2.295 -0.0529 -0.3322  0.2409
 4508TIP3    H213531   1.102   2.040   2.317  0.0434 -0.1789 -0.2593
 4509TIP3   OH213532   0.379   2.338   3.911 -0.0230 -0.3848 -0.2592
 4509TIP3    H113533   0.348   2.255   3.874 -1.6951 -0.1531  0.5316
 4509TIP3    H213534   0.448   2.313   3.972 -0.9374 -1.2852  0.4466
 4510TIP3   OH213535   0.560   1.655   4.746  0.1506 -0.0096 -0.0108
 4510TIP3    H113536   0.594   1.733   4.790  1.2286 -0.5223  0.0726
 4510TIP3    H213537   0.494   1.690   4.685 -0.9687  0.7533  1.5645
 4511TIP3   OH213538   0.509   5.120   1.772 -0.2630  0.2406 -0.1973
 4511TIP3    H113539   0.580   5.183   1.784 -1.8501  2.3093 -1.1663
 4511TIP3    H213540   0.431   5.165   1.803 -1.0430 -2.6518  2.6671
 4512TIP3   OH213541   0.920   3.431   3.445 -0.2632  0.1042 -0.3497
 4512TIP3    H113542   0.881   3.518   3.456  0.5177  0.2118  2.3924
 4512TIP3    H213543   0.850   3.370   3.468  0.3065  0.2174  1.9422
 4513TIP3   OH213544   5.724   4.858   2.438 -0.3777  0.0898 -0.0863
 4513TIP3    H113545   5.717   4.839   2.532 -0.6993  0.0292 -0.1219
 4513TIP3    H213546   5.678   4.786   2.395 -0.0540  0.0090 -0.3027
 4514TIP3   OH213547   3.875   1.090   4.003  0.9622  0.4435 -0.0865
 4514TIP3    H113548   3.900   1.181   3.988  1.1606  0.5220  0.6437
 4514TIP3    H213549   3.956   1.041   3.993  0.9587  0.4143  0.0220
 4515TIP3   OH213550   4.954   0.864   0.932 -0.0868  0.1701 -0.1180
 4515TIP3    H113551   4.889   0.795   0.949  1.2551 -0.8778  0.9573
 4515TIP3    H213552   5.034   0.817   0.910  0.6156  1.4201 -0.3254
 4516TIP3   OH213553   3.604   4.909   3.029 -0.3406  0.2639 -0.4082
 4516TIP3    H113554   3.609   5.004   3.015  2.6742  0.0291 -1.8945
 4516TIP3    H213555   3.539   4.879   2.965  0.2603  1.1483 -1.4863
 4517TIP3   OH213556   2.332   3.745   3.362 -0.2164 -0.4550  0.8148
 4517TIP3    H113557   2.360   3.725   3.273  0.1203  0.7372  0.6300
 4517TIP3    H213558   2.408   3.724   3.416 -0.8247 -2.3336  0.9976
 4518TIP3   OH213559   6.266   4.326   1.707 -0.5753  0.1375 -0.1532
 4518TIP3    H113560   6.206   4.251   1.705  0.2658 -0.5333 -0.4020
 4518TIP3    H213561   6.351   4.289   1.728 -0.1788  1.0506 -0.1004
 4519TIP3   OH213562   6.075   0.267   3.337  0.4162  0.3517 -0.2740
 4519TIP3    H113563   6.065   0.197   3.272  1.3252 -1.5297  1.5158
 4519TIP3    H213564   5.985   0.294   3.357  0.0825  0.2414 -1.5220
 4520TIP3   OH213565   0.803   5.211   0.649  0.0579  0.7888 -0.8263
 4520TIP3    H113566   0.881   5.265   0.660 -1.1884  2.4284  0.5660
 4520TIP3    H213567   0.768   5.236   0.563  0.5070  0.7981 -1.0090
 4521TIP3   OH213568   0.216   0.160   0.392 -0.1433  0.3383 -0.8868
 4521TIP3    H113569   0.229   0.252   0.413 -1.1022  0.4772 -0.8655
 4521TIP3    H213570   0.294   0.136   0.342  0.4039  0.9888 -0.3666
 4522TIP3   OH213571   1.385   1.559   0.616  0.1164  0.0267  0.4482
 4522TIP3    H113572   1.477   1.544   0.595 -0.1251 -0.5491 -0.2141
 4522TIP3    H213573   1.357   1.625   0.553 -1.2108 -3.2858 -2.7700
 4523TIP3   OH213574   4.535   3.633   4.441  0.5992  0.4180  0.4039
 4523TIP3    H113575   4.511   3.644   4.533 -1.4195 -1.8379  0.2560
 4523TIP3    H213576   4.610   3.574   4.443  0.9882  0.9100  0.6029
 4524TIP3   OH213577   0.045   5.064   1.843  0.0170 -0.0758 -0.0766
 4524TIP3    H113578   0.085   4.983   1.876 -0.5042 -1.5248 -2.7010
 4524TIP3    H213579  -0.041   5.068   1.884 -0.5511 -1.7269 -1.0264
 4525TIP3   OH213580   2.619   4.155   3.277 -0.2044 -0.3126  0.0728
 4525TIP3    H113581   2.560   4.091   3.237 -1.0406 -0.8446  2.0216
 4525TIP3    H213582   2.692   4.163   3.215 -0.5255 -2.4496 -0.6557
 4526TIP3   OH213583   2.777   3.434   4.885 -0.1514  0.5067  0.3633
 4526TIP3    H113584   2.720   3.508   4.865 -0.9453 -0.1195  0.2429
 4526TIP3    H213585   2.852   3.445   4.827 -1.4122 -0.1113 -1.5210
 4527TIP3   OH213586   6.155   4.320   1.327 -0.2927  0.0958  0.1222
 4527TIP3    H113587   6.209   4.393   1.296 -0.4060  0.4509  0.7462
 4527TIP3    H213588   6.215   4.268   1.380 -0.8248  1.1285  1.8028
 4528TIP3   OH213589   1.466   0.424   3.144 -0.0770 -0.0273 -0.3923
 4528TIP3    H113590   1.548   0.430   3.096  0.5849 -0.6598  0.6179
 4528TIP3    H213591   1.460   0.332   3.170 -0.6070  0.2155  0.3792
 4529TIP3   OH213592   2.973   1.447   1.685 -0.6241  0.4979 -0.6692
 4529TIP3    H113593   2.973   1.351   1.684  1.5920  0.4160  0.9471
 4529TIP3    H213594   2.958   1.471   1.594  0.0932 -1.4213 -1.3563
 4530TIP3   OH213595   3.153   4.034   1.514 -0.2227  0.6339  0.2724
 4530TIP3    H113596   3.245   4.052   1.532  0.7390 -2.6488 -0.5622
 4530TIP3    H213597   3.131   3.961   1.573 -1.2787 -0.7227 -1.6621
 4531TIP3   OH213598   0.225   1.013   0.372  0.0671 -0.0136  0.0085
 4531TIP3    H113599   0.167   0.939   0.352 -2.5172  2.0658 -0.6628
 4531TIP3    H213600   0.274   1.027   0.291 -0.7212  0.0911 -0.4605
 4532TIP3   OH213601   0.024   1.402   3.422  0.1143 -0.4757  0.0703
 4532TIP3    H113602   0.040   1.345   3.498  0.6686  0.5296  0.7236
 4532TIP3    H213603  -0.053   1.364   3.380  0.6891 -1.9310  0.2744
 4533TIP3   OH213604   0.351   3.007   4.637  0.1194 -0.1437 -0.1650
 4533TIP3    H113605   0.312   3.004   4.550  0.5510  0.3679 -0.3764
 4533TIP3    H213606   0.446   3.005   4.621  0.2266 -2.5670  0.3726
 4534TIP3   OH213607   1.899   5.545   3.574  0.0177  0.0006 -0.2542
 4534TIP3    H113608   1.968   5.525   3.637  0.6094 -1.4684 -1.3166
 4534TIP3    H213609   1.844   5.466   3.572 -1.5920  1.0467  0.3935
 4535TIP3   OH213610   1.987   5.063   1.907  0.4006  0.5060 -0.5749
 4535TIP3    H113611   1.902   5.073   1.951 -0.2649 -1.4947 -1.3085
 4535TIP3    H213612   2.051   5.083   1.975 -0.6401  1.2984  0.2100
 4536TIP3   OH213613   1.169   2.471   3.921 -0.1426 -0.0908 -0.4718
 4536TIP3    H113614   1.172   2.465   3.826 -0.2994 -0.4698 -0.4529
 4536TIP3    H213615   1.213   2.392   3.952  1.8182  1.0177 -0.2198
 4537TIP3   OH213616   1.968   2.968   5.138 -0.5756 -0.0408 -0.1245
 4537TIP3    H113617   2.054   2.970   5.097 -0.7220  0.8694 -0.4041
 4537TIP3    H213618   1.936   2.879   5.122 -0.3293  0.0817 -1.3640
 4538TIP3   OH213619   5.454   4.492   3.342  0.2793 -0.3573  0.0099
 4538TIP3    H113620   5.370   4.511   3.382 -0.1955  0.9736 -1.5029
 4538TIP3    H213621   5.484   4.411   3.384 -1.9095 -1.0524  0.3330
 4539TIP3   OH213622   2.478   4.850   0.660  0.0020  0.2837  0.2236
 4539TIP3    H113623   2.390   4.812   0.656 -0.5279  1.6010 -2.9322
 4539TIP3    H213624   2.466   4.932   0.709 -1.1499  1.6784 -2.2073
 4540TIP3   OH213625   5.817   1.604   0.511 -0.3128  0.7328 -0.2521
 4540TIP3    H113626   5.846   1.554   0.435  0.2281 -0.0495  0.4432
 4540TIP3    H213627   5.727   1.575   0.526 -0.0888  0.1262 -0.0088
 4541TIP3   OH213628   3.918   0.049   2.156  0.4937 -0.4701  0.5184
 4541TIP3    H113629   4.007   0.033   2.185  1.5864  0.1504 -2.2123
 4541TIP3    H213630   3.884  -0.037   2.131  0.5213 -0.6329  1.0473
 4542TIP3   OH213631   3.077   5.390   1.568  0.1790  0.6025 -0.0331
 4542TIP3    H113632   3.000   5.398   1.512  0.5030 -1.3241 -0.8536
 4542TIP3    H213633   3.146   5.437   1.522 -0.3184  1.7693  0.3783
 4543TIP3   OH213634   1.454   0.301   3.878 -0.4646 -0.3184 -0.3143
 4543TIP3    H113635   1.427   0.389   3.851 -1.3356 -0.9551 -1.6539
 4543TIP3    H213636   1.547   0.310   3.898 -0.6490  1.0129  0.0598
 4544TIP3   OH213637   5.383   0.116   1.504  0.2242 -0.2274 -0.2284
 4544TIP3    H113638   5.298   0.158   1.493 -0.2518 -1.1785 -0.3076
 4544TIP3    H213639   5.383   0.046   1.439  0.8578 -0.5630  0.1263
 4545TIP3   OH213640   3.092   0.181   0.704  0.3970 -0.3721  0.0870
 4545TIP3    H113641   3.099   0.096   0.748  1.8447 -0.0562  0.5084
 4545TIP3    H213642   3.119   0.163   0.614  0.7895 -0.3404  0.1984
 4546TIP3   OH213643   4.488   1.510   2.687  0.0861  0.0009 -0.2025
 4546TIP3    H113644   4.495   1.436   2.748  0.1536 -0.0106 -0.2238
 4546TIP3    H213645   4.418   1.564   2.723  1.3718  0.9769  0.9325
 4547TIP3   OH213646   4.972   2.047   2.321  0.1443 -0.1421  0.4978
 4547TIP3    H113647   5.066   2.039   2.337  0.3810 -0.1591 -0.8232
 4547TIP3    H213648   4.932   1.989   2.386  0.9070  1.3305  2.3842
 4548TIP3   OH213649   0.996   2.101   2.898  0.3127  0.0125  0.5447
 4548TIP3    H113650   1.052   2.065   2.829  1.0949  1.7012  0.2555
 4548TIP3    H213651   0.989   2.030   2.962  0.3814 -1.2453 -0.7908
 4549TIP3   OH213652   3.007   0.538   2.265  0.0256 -0.5178 -0.1134
 4549TIP3    H113653   3.093   0.545   2.225  0.7299  1.4751  1.5948
 4549TIP3    H213654   3.021   0.486   2.344 -0.3847 -0.4051  0.0373
 4550TIP3   OH213655   4.999   0.604   0.671  0.1902  0.1833  0.1129
 4550TIP3    H113656   4.945   0.577   0.597  0.6001  0.0228 -0.1283
 4550TIP3    H213657   4.993   0.532   0.733  1.5308 -0.6435 -0.6572
 4551TIP3   OH213658   5.858   5.629   3.404 -0.5144  0.2850  0.0011
 4551TIP3    H113659   5.842   5.679   3.484 -1.8004  0.3332 -0.2649
 4551TIP3    H213660   5.780   5.643   3.351 -0.5522 -1.3560 -0.4226
 4552TIP3   OH213661   4.066   0.287   2.309  0.2714 -0.0935  0.4700
 4552TIP3    H113662   4.062   0.308   2.216  2.7501 -0.9205  0.0951
 4552TIP3    H213663   4.136   0.343   2.343 -0.6324  0.2366  1.8868
 4553TIP3   OH213664   0.302   0.634   4.824  0.4676 -0.2879  0.0144
 4553TIP3    H113665   0.308   0.590   4.908 -0.0549 -0.8806 -0.2503
 4553TIP3    H213666   0.293   0.727   4.846 -0.7069 -0.5290  0.6540
 4554TIP3   OH213667   5.067   2.400   0.961  0.3212 -0.1145 -0.0044
 4554TIP3    H113668   5.137   2.459   0.988 -0.9695  1.3758  0.1544
 4554TIP3    H213669   5.112   2.316   0.946  2.4627  1.2507 -1.7776
 4555TIP3   OH213670   2.621   1.709   1.922 -0.3763  0.3639  0.2331
 4555TIP3    H113671   2.678   1.666   1.859 -1.3104  2.3989 -2.1974
 4555TIP3    H213672   2.538   1.663   1.915 -0.3562  0.3146  0.3154
 4556TIP3   OH213673   1.861   4.180   2.744 -0.3417 -0.1244 -0.2154
 4556TIP3    H113674   1.947   4.154   2.777 -0.3557 -1.5769 -1.2364
 4556TIP3    H213675   1.830   4.104   2.694 -2.2029  0.3818  0.0923
 4557TIP3   OH213676   5.524   3.201   0.075 -0.2671  0.5353 -0.0401
 4557TIP3    H113677   5.539   3.193   0.169 -1.9054 -2.2128  0.1064
 4557TIP3    H213678   5.470   3.279   0.065  1.2410  1.7917  1.0530
 4558TIP3   OH213679   2.187   2.271   0.107  0.1300  0.0840 -0.3723
 4558TIP3    H113680   2.193   2.238   0.018  0.8204  0.4718 -0.4777
 4558TIP3    H213681   2.277   2.270   0.140  0.1307  1.4464 -0.2501
 4559TIP3   OH213682   5.923   2.947   2.291  0.3718 -0.8744  0.7784
 4559TIP3    H113683   5.916   3.042   2.298 -2.6064 -1.0172  0.9946
 4559TIP3    H213684   6.014   2.928   2.312  1.1047  1.9228  0.5452
 4560TIP3   OH213685   3.008   0.528   2.752 -0.6774  0.5727  0.2651
 4560TIP3    H113686   2.916   0.510   2.770 -0.0568 -1.8159  1.4125
 4560TIP3    H213687   3.041   0.568   2.832 -0.2011 -0.8132  0.7870
 4561TIP3   OH213688   5.241   3.561   1.562 -0.0636  0.0118 -0.0513
 4561TIP3    H113689   5.147   3.552   1.579 -0.2584 -2.5023 -1.9633
 4561TIP3    H213690   5.251   3.650   1.528 -1.8086  0.2115 -0.1359
 4562TIP3   OH213691   6.134   3.662   4.208  0.7186  0.7467  0.0823
 4562TIP3    H113692   6.180   3.613   4.277  0.1853 -0.3015 -0.2813
 4562TIP3    H213693   6.151   3.612   4.128 -0.6265  0.6028 -0.1419
 4563TIP3   OH213694   2.406   3.589   3.918 -0.2067  0.1502 -0.2810
 4563TIP3    H113695   2.317   3.553   3.909 -0.5024 -0.3023  3.0568
 4563TIP3    H213696   2.463   3.514   3.910 -0.4611 -0.2614  1.3385
 4564TIP3   OH213697   4.153   3.191   1.817 -0.2296 -0.3654 -0.0229
 4564TIP3    H113698   4.128   3.209   1.726  1.2623  1.2712 -0.1628
 4564TIP3    H213699   4.088   3.237   1.870 -1.2764 -1.5645 -0.2148
 4565TIP3   OH213700   4.854   4.268   3.538  0.5014 -0.7669  0.4841
 4565TIP3    H113701   4.900   4.293   3.618  2.0320 -1.8148 -0.0225
 4565TIP3    H213702   4.901   4.314   3.468  0.2310 -1.1566  0.0383
 4566TIP3   OH213703   1.037   4.325   2.904 -0.3202  0.3025 -0.1326
 4566TIP3    H113704   0.985   4.403   2.883 -3.4279 -1.3991  0.6095
 4566TIP3    H213705   1.067   4.339   2.993  0.6484  1.3511 -0.6009
 4567TIP3   OH213706   2.629   2.742   0.160 -0.3568  0.1905 -0.2999
 4567TIP3    H113707   2.558   2.799   0.187 -0.9488 -0.9017  0.5200
 4567TIP3    H213708   2.698   2.802   0.131 -0.7712  1.3448  0.9680
 4568TIP3   OH213709   1.421   2.851   2.722  0.3206 -0.5064  0.1130
 4568TIP3    H113710   1.471   2.924   2.685  0.9247 -1.4663 -1.0357
 4568TIP3    H213711   1.414   2.871   2.815  0.2885  1.1119 -0.2103
 4569TIP3   OH213712   0.053   3.873   3.896  0.6122  0.1270 -0.2250
 4569TIP3    H113713   0.092   3.820   3.966  1.3900 -0.9201 -1.4032
 4569TIP3    H213714   0.123   3.932   3.868  0.3706  0.3998 -0.2639
 4570TIP3   OH213715   3.698   5.045   4.825  0.0617 -0.1949 -0.5945
 4570TIP3    H113716   3.669   5.003   4.743 -0.4763  0.8520 -0.9605
 4570TIP3    H213717   3.688   4.977   4.891 -1.5148 -0.4392 -1.0384
 4571TIP3   OH213718   6.025   4.702   3.492 -0.3801  0.0350  0.5627
 4571TIP3    H113719   6.014   4.618   3.537  1.6206 -0.3402  0.4511
 4571TIP3    H213720   6.105   4.739   3.530 -1.1787  1.8846  0.5645
 4572TIP3   OH213721   3.387   0.345   2.412 -0.1582  0.6268 -0.4093
 4572TIP3    H113722   3.369   0.419   2.470  0.9448  0.6306 -0.0571
 4572TIP3    H213723   3.301   0.308   2.394 -0.4905  0.0276  2.0224
 4573TIP3   OH213724   0.621   1.462   3.082 -0.2067  0.0513  0.0541
 4573TIP3    H113725   0.531   1.428   3.078  0.2402 -1.3501  1.2859
 4573TIP3    H213726   0.659   1.440   2.997 -0.2504 -1.6886  0.4531
 4574TIP3   OH213727   4.756   0.215   1.018  0.2475 -0.1718  0.7500
 4574TIP3    H113728   4.704   0.151   1.068  0.9990 -1.1667  0.2928
 4574TIP3    H213729   4.778   0.169   0.937 -0.2210  1.1188 -0.1341
 4575TIP3   OH213730   4.734   3.375   1.029  0.2349 -0.2670  0.1889
 4575TIP3    H113731   4.779   3.433   0.968  2.8602  0.0827  2.2723
 4575TIP3    H213732   4.682   3.433   1.084  0.2776 -0.2474  0.2087
 4576TIP3   OH213733   4.881   0.975   4.884 -0.2020 -0.4029 -0.5783
 4576TIP3    H113734   4.967   0.971   4.926 -0.0350 -0.0742 -0.8777
 4576TIP3    H213735   4.826   0.916   4.935 -0.5085  1.3686  1.3071
 4577TIP3   OH213736   4.611   3.587   0.612  0.3132  0.1238  0.6516
 4577TIP3    H113737   4.546   3.647   0.648  0.7608  1.2542 -0.3790
 4577TIP3    H213738   4.563   3.537   0.546  0.6701  1.5993 -0.7691
 4578TIP3   OH213739   4.616   4.146   1.846 -0.9601  0.4759 -0.1047
 4578TIP3    H113740   4.604   4.214   1.912 -0.3337 -0.3622  0.9099
 4578TIP3    H213741   4.571   4.179   1.768  1.8129  3.4638 -0.6549
 4579TIP3   OH213742   3.447   5.773   0.287  0.4558 -0.5288 -0.1320
 4579TIP3    H113743   3.485   5.689   0.263 -0.7198 -0.6089 -1.8864
 4579TIP3    H213744   3.407   5.806   0.206 -1.0695  0.6644  1.0361
 4580TIP3   OH213745   0.873   1.058   0.581 -0.0820  0.2542  0.3709
 4580TIP3    H113746   0.960   1.061   0.540 -0.3437 -1.0770 -0.3354
 4580TIP3    H213747   0.884   1.106   0.663  1.7191 -1.0936  1.0057
 4581TIP3   OH213748   5.990   2.667   0.442  0.2295  0.0671  0.0968
 4581TIP3    H113749   5.913   2.702   0.488  0.3286 -0.2646  0.5230
 4581TIP3    H213750   5.987   2.573   0.461 -2.1377 -0.9256 -3.9857
 4582TIP3   OH213751   5.167   3.982   1.226  0.1468 -0.1051 -0.2237
 4582TIP3    H113752   5.106   4.021   1.289  0.7990 -1.8218  1.5955
 4582TIP3    H213753   5.246   4.036   1.232 -0.2162  0.4596 -0.4851
 4583TIP3   OH213754   4.276   0.978   0.117  0.7110 -0.3279  0.3709
 4583TIP3    H113755   4.242   0.949   0.032 -1.9749 -0.7701  1.4967
 4583TIP3    H213756   4.366   0.945   0.119  0.4536 -1.3537 -1.7992
 4584TIP3   OH213757   1.182   4.941   0.665  0.4074 -0.2938  0.0790
 4584TIP3    H113758   1.128   4.957   0.743  0.7905  1.3554  0.0538
 4584TIP3    H213759   1.262   4.902   0.699  0.8653  1.0544  0.6424
 4585TIP3   OH213760   0.375   4.151   4.107  0.3909 -0.1955  0.3200
 4585TIP3    H113761   0.358   4.057   4.112  1.2741 -0.4071 -0.3130
 4585TIP3    H213762   0.459   4.157   4.060 -1.1515  1.0074 -2.5454
 4586TIP3   OH213763   2.725   2.833   4.690  0.1676 -0.5835 -0.0884
 4586TIP3    H113764   2.736   2.910   4.635  0.8657 -0.6733 -0.0890
 4586TIP3    H213765   2.813   2.797   4.699  0.1565 -0.2982  1.4823
 4587TIP3   OH213766   5.189   1.432   2.486 -1.0726  0.0233  0.8251
 4587TIP3    H113767   5.225   1.344   2.489 -1.4528 -0.1276  1.0576
 4587TIP3    H213768   5.119   1.427   2.421 -0.2718  0.4722 -0.0947
 4588TIP3   OH213769   3.337   1.152   2.201 -0.1777 -0.1335 -0.5584
 4588TIP3    H113770   3.329   1.063   2.167 -0.6009  0.1753 -1.2992
 4588TIP3    H213771   3.342   1.141   2.296  2.1883 -1.0990 -0.7159
 4589TIP3   OH213772   2.552   3.380   3.760  0.1192 -0.0804  0.9793
 4589TIP3    H113773   2.511   3.300   3.794 -0.6011 -0.3403 -0.4423
 4589TIP3    H213774   2.643   3.374   3.787 -0.3600 -0.3345  2.7194
 4590TIP3   OH213775   1.023   3.026   0.191 -0.1378  0.5328  0.3376
 4590TIP3    H113776   0.945   3.045   0.244 -0.9464  1.4704 -1.1302
 4590TIP3    H213777   1.055   3.112   0.164 -0.7410  0.0493 -2.0683
 4591TIP3   OH213778   4.095   0.390   3.031 -0.3462 -0.8813  0.4028
 4591TIP3    H113779   4.031   0.319   3.037  0.1219 -1.4355 -0.8377
 4591TIP3    H213780   4.178   0.352   3.060 -0.5090 -0.2122  1.8429
 4592TIP3   OH213781   3.693   3.290   1.409  0.3486 -0.5400 -0.0729
 4592TIP3    H113782   3.749   3.260   1.338  0.0700 -0.2456 -0.4167
 4592TIP3    H213783   3.604   3.275   1.379  0.2331 -0.8691  0.4152
 4593TIP3   OH213784   3.662   5.031   2.382 -0.0308 -0.0712  0.3524
 4593TIP3    H113785   3.592   4.979   2.341  1.0667 -2.4108  1.2406
 4593TIP3    H213786   3.617   5.106   2.421 -1.9208 -1.0540  0.1878
 4594TIP3   OH213787   3.589   4.111   3.817  0.4053  0.0116 -0.5851
 4594TIP3    H113788   3.592   4.193   3.768 -1.3866 -0.5132 -1.6604
 4594TIP3    H213789   3.547   4.135   3.900  0.3181  0.2620 -0.7002
 4595TIP3   OH213790   6.292   4.063   1.885  0.1301 -0.3700  0.1805
 4595TIP3    H113791   6.364   4.021   1.839  0.1143 -0.2417  0.0354
 4595TIP3    H213792   6.235   4.096   1.815  0.5663  0.6266  0.2719
 4596TIP3   OH213793   4.775   5.465   1.680  0.5725 -0.7597  0.1625
 4596TIP3    H113794   4.847   5.448   1.741  1.1889 -0.5822 -0.5079
 4596TIP3    H213795   4.792   5.552   1.645  0.2853 -0.9008 -0.3480
 4597TIP3   OH213796   0.290   3.829   3.565 -0.1573 -0.0090  0.3889
 4597TIP3    H113797   0.305   3.880   3.485  1.0977  1.6129  1.5656
 4597TIP3    H213798   0.360   3.764   3.565 -0.4894 -0.3707 -0.0901
 4598TIP3   OH213799   5.869   3.146   3.483  0.4625 -0.0177  0.2066
 4598TIP3    H113800   5.775   3.132   3.498  0.3358 -1.1097 -1.3169
 4598TIP3    H213801   5.892   3.083   3.415  2.5902 -0.5878  1.3792
 4599TIP3   OH213802   4.132   5.364   4.798 -0.5359 -0.7209  0.1356
 4599TIP3    H113803   4.086   5.280   4.800 -1.2928 -0.3387 -0.7165
 4599TIP3    H213804   4.225   5.340   4.805 -0.7473 -1.6083  0.1015
 4600TIP3   OH213805   0.918   1.882   2.677 -0.1492 -0.0256  0.5284
 4600TIP3    H113806   0.862   1.957   2.696 -0.7800  0.2858 -2.2166
 4600TIP3    H213807   0.874   1.835   2.607  1.5207 -1.5266  0.3889
 4601TIP3   OH213808   4.317   3.092   2.434  0.0853 -0.7099 -0.2420
 4601TIP3    H113809   4.228   3.126   2.446  0.4730 -0.1487  1.3392
 4601TIP3    H213810   4.320   3.061   2.344 -1.6333 -0.4961 -0.3931
 4602TIP3   OH213811   4.805   5.628   3.823 -0.1584 -1.0062 -0.2889
 4602TIP3    H113812   4.876   5.575   3.788  0.7631  0.1300 -0.1951
 4602TIP3    H213813   4.760   5.662   3.746  0.5695 -0.2111 -0.3750
 4603TIP3   OH213814   4.917   3.455   2.034  0.5524  0.3043  0.6630
 4603TIP3    H113815   5.003   3.433   2.071  1.0844  1.3073  0.0819
 4603TIP3    H213816   4.931   3.539   1.989 -0.8610  0.7471  0.9966
 4604TIP3   OH213817   0.753   4.287   3.245 -0.1336  0.4730  0.4253
 4604TIP3    H113818   0.847   4.269   3.242 -0.4911 -1.5909 -1.1083
 4604TIP3    H213819   0.739   4.331   3.328  1.9894 -0.5544  1.3994
 4605TIP3   OH213820   0.512   5.812   0.977 -0.4120 -0.1051  0.4516
 4605TIP3    H113821   0.447   5.747   1.004  0.2297 -0.4026  1.3050
 4605TIP3    H213822   0.465   5.868   0.915 -1.1207 -1.0600  0.1053
 4606TIP3   OH213823   3.911   3.039   0.259 -0.1249 -0.2703  0.3219
 4606TIP3    H113824   3.828   3.086   0.252 -0.2345 -0.5814 -0.5313
 4606TIP3    H213825   3.900   2.983   0.336 -0.6764 -0.2601  0.2575
 4607TIP3   OH213826   4.274   5.223   1.383  0.0728 -0.1984 -0.6627
 4607TIP3    H113827   4.297   5.230   1.291 -0.4195  1.1382 -0.7100
 4607TIP3    H213828   4.178   5.228   1.384  0.0699 -0.2850 -0.0829
 4608TIP3   OH213829   4.951   5.803   3.994 -0.1451  0.1838 -0.3956
 4608TIP3    H113830   5.022   5.741   3.978  0.1335  0.3797  0.0496
 4608TIP3    H213831   4.885   5.782   3.928  1.3768  1.6845 -2.5449
 4609TIP3   OH213832   2.863   0.684   3.021 -0.3823  0.0109  0.0081
 4609TIP3    H113833   2.956   0.663   3.030 -0.1331  1.1584  0.2370
 4609TIP3    H213834   2.847   0.750   3.088 -0.9968  0.9456 -1.0328
 4610TIP3   OH213835   1.577   4.685   3.974  0.0960  0.0697 -0.4402
 4610TIP3    H113836   1.508   4.654   4.032 -1.4593 -2.6388 -3.4108
 4610TIP3    H213837   1.542   4.765   3.936  0.0160  0.4498  0.4068
 4611TIP3   OH213838   0.421   2.327   2.302  0.3170  0.1465  0.3650
 4611TIP3    H113839   0.407   2.346   2.394 -0.8818 -0.1876  0.2644
 4611TIP3    H213840   0.377   2.398   2.255  1.5121  0.7071  0.0289
 4612TIP3   OH213841   2.411   2.256   2.271  0.0395 -0.0611  0.3290
 4612TIP3    H113842   2.322   2.238   2.302 -0.0924  0.4085  0.2377
 4612TIP3    H213843   2.400   2.326   2.207  0.5111  0.2048  0.5343
 4613TIP3   OH213844   0.112   5.873   1.574 -0.1098  0.3425 -0.2961
 4613TIP3    H113845   0.172   5.914   1.512 -0.8833  0.8870 -0.7075
 4613TIP3    H213846   0.038   5.843   1.520 -0.7631  0.7606  0.3492
 4614TIP3   OH213847   2.362   2.740   1.156  0.2563 -0.2120 -0.0859
 4614TIP3    H113848   2.445   2.725   1.201 -0.6330  0.8274  2.0383
 4614TIP3    H213849   2.387   2.783   1.073  1.8248  0.1964  0.5536
 4615TIP3   OH213850   0.718   2.371   1.935  0.0869  0.1969 -0.1470
 4615TIP3    H113851   0.680   2.288   1.964 -0.2042  0.4798  0.3080
 4615TIP3    H213852   0.699   2.432   2.007  0.0022  0.7368 -0.6181
 4616TIP3   OH213853   0.752   4.142   2.885 -0.1334 -0.2904 -0.2729
 4616TIP3    H113854   0.799   4.077   2.938 -0.7192 -0.8701 -0.4557
 4616TIP3    H213855   0.670   4.156   2.931 -0.0824  0.2034 -0.3264
 4617TIP3   OH213856   6.319   1.438   2.615 -0.4564 -0.1926  0.4198
 4617TIP3    H113857   6.390   1.472   2.560 -0.8515  3.2740  1.8365
 4617TIP3    H213858   6.268   1.383   2.555  0.3209  1.6735 -2.1498
 4618TIP3   OH213859   1.880   1.902   0.132 -0.0063  0.5532 -0.6987
 4618TIP3    H113860   1.904   1.943   0.215  0.3826  0.5085 -0.7887
 4618TIP3    H213861   1.948   1.836   0.117 -1.6331 -1.4798  0.4034
 4619TIP3   OH213862   0.147   4.085   4.898  0.3735  0.4427 -0.6228
 4619TIP3    H113863   0.141   4.029   4.820  2.7974 -0.0141 -0.5306
 4619TIP3    H213864   0.229   4.060   4.940 -1.0517  0.3420  2.4017
 4620TIP3   OH213865   0.231   5.733   1.246  0.3222  0.1427 -0.3479
 4620TIP3    H113866   0.293   5.700   1.311  0.0680  1.6671  0.7233
 4620TIP3    H213867   0.253   5.686   1.166  2.8394  0.5608  0.0142
 4621TIP3   OH213868   0.765   4.249   1.914 -0.1907  0.1168  0.2601
 4621TIP3    H113869   0.680   4.206   1.923 -0.0065 -0.6075 -1.1113
 4621TIP3    H213870   0.794   4.226   1.825  1.0607  1.0336  0.4007
 4622TIP3   OH213871   4.203   2.341   2.672  0.2021  0.2601 -0.1145
 4622TIP3    H113872   4.141   2.386   2.729 -0.1819  0.5096 -0.7194
 4622TIP3    H213873   4.194   2.385   2.587  0.0783 -0.7066 -0.6242
 4623TIP3   OH213874   3.175   0.641   1.907 -0.4283  0.1391  0.1045
 4623TIP3    H113875   3.153   0.614   1.818  0.7151  2.0414 -0.8171
 4623TIP3    H213876   3.132   0.726   1.917  1.4110  1.0830  0.4389
 4624TIP3   OH213877   5.599   2.584   4.662  0.3852 -0.1803  0.1944
 4624TIP3    H113878   5.509   2.602   4.687 -0.8015 -4.2929 -0.4599
 4624TIP3    H213879   5.598   2.581   4.566  1.0633 -0.8357  0.1938
 4625TIP3   OH213880   3.227   5.104   0.862 -0.4916  0.0951 -0.1314
 4625TIP3    H113881   3.321   5.086   0.862 -0.8093 -1.9161  1.3062
 4625TIP3    H213882   3.219   5.190   0.821  2.3084  2.0482  2.9078
 4626TIP3   OH213883   0.571   2.961   0.112  0.5087 -0.2256  0.0680
 4626TIP3    H113884   0.614   3.022   0.053  1.9420 -0.0804  1.2193
 4626TIP3    H213885   0.479   2.987   0.111  0.8140  0.8642 -0.7546
 4627TIP3   OH213886   1.992   5.088   2.750 -0.1666 -0.0114 -0.0178
 4627TIP3    H113887   2.065   5.057   2.804  0.6810  0.3447 -0.9278
 4627TIP3    H213888   1.969   5.013   2.696 -0.2989 -0.0388  0.0759
 4628TIP3   OH213889   0.555   0.404   0.395 -0.0254  0.2793  0.3450
 4628TIP3    H113890   0.482   0.437   0.342  0.1595 -2.1905 -1.6651
 4628TIP3    H213891   0.632   0.448   0.359 -0.1421  0.1191 -0.1156
 4629TIP3   OH213892   0.675   5.364   4.099  0.0099  0.0241 -0.0925
 4629TIP3    H113893   0.685   5.457   4.115 -0.2742  0.1909 -0.8707
 4629TIP3    H213894   0.738   5.344   4.030 -2.8207  0.5432 -3.0711
 4630TIP3   OH213895   3.762   0.931   0.334 -0.1662 -0.0555 -0.4809
 4630TIP3    H113896   3.791   0.976   0.255  0.9243  0.8335  0.3860
 4630TIP3    H213897   3.758   0.839   0.309 -2.4665  0.4333 -2.3027
 4631TIP3   OH213898   4.422   5.087   2.822 -0.6021  0.8546  0.4229
 4631TIP3    H113899   4.400   5.127   2.906 -0.5606 -1.2256  1.4830
 4631TIP3    H213900   4.416   4.993   2.838 -0.5111  0.3999 -1.8975
 4632TIP3   OH213901   1.571   2.001   1.691 -0.2817 -0.7943 -0.0268
 4632TIP3    H113902   1.568   2.089   1.727 -0.3551 -1.4882  1.7839
 4632TIP3    H213903   1.480   1.977   1.677 -0.2380 -0.4104 -0.9711
 4633TIP3   OH213904   0.012   3.347   1.624 -0.0964  0.2206 -0.4642
 4633TIP3    H113905   0.020   3.252   1.626 -0.9137  0.1496 -0.3713
 4633TIP3    H213906   0.094   3.379   1.661  0.3459 -0.4393 -0.8612
 4634TIP3   OH213907   3.363   5.875   0.722  0.1182 -0.1777 -0.2289
 4634TIP3    H113908   3.436   5.861   0.783 -0.9617  0.2659  1.2283
 4634TIP3    H213909   3.296   5.814   0.753 -0.1749 -0.5241 -1.5091
 4635TIP3   OH213910   0.238   4.535   0.390  0.6602  0.2308 -0.6935
 4635TIP3    H113911   0.296   4.501   0.458 -0.1153  0.8395  0.3111
 4635TIP3    H213912   0.288   4.528   0.309  1.3416 -1.2014 -0.1813
 4636TIP3   OH213913   0.212   1.326   0.936  0.1074  0.0142 -0.3403
 4636TIP3    H113914   0.301   1.309   0.966  1.2307  2.3494 -2.0410
 4636TIP3    H213915   0.205   1.280   0.853  0.4074  1.2591 -1.0843
 4637TIP3   OH213916   2.066   4.754   5.086 -0.2561  0.3227  0.5904
 4637TIP3    H113917   2.139   4.757   5.148 -0.0893 -0.8550  0.4723
 4637TIP3    H213918   2.105   4.728   5.003 -1.1932 -4.2654  1.3175
 4638TIP3   OH213919   1.649   1.757   4.429 -0.3006 -0.6598  0.0888
 4638TIP3    H113920   1.565   1.740   4.473  0.1709  2.2425  2.3926
 4638TIP3    H213921   1.711   1.772   4.500  1.6803 -0.4772 -1.5913
 4639TIP3   OH213922   0.251   2.410   2.056  0.2077 -0.0642 -0.3404
 4639TIP3    H113923   0.189   2.342   2.080 -0.4125  0.0475 -1.5303
 4639TIP3    H213924   0.238   2.479   2.121 -1.0042 -0.0003 -0.6309
 4640TIP3   OH213925   3.568   4.752   2.566  0.1400  0.2780 -0.9753
 4640TIP3    H113926   3.609   4.702   2.636 -1.1688  2.2148  1.3336
 4640TIP3    H213927   3.580   4.699   2.488  0.4438 -2.6800  0.9338
 4641TIP3   OH213928   4.933   0.759   2.342 -0.5944 -0.0421  0.2175
 4641TIP3    H113929   4.912   0.737   2.252  0.4486 -0.7197  0.1199
 4641TIP3    H213930   4.848   0.768   2.386 -1.0986 -1.3427 -0.4428
 4642TIP3   OH213931   2.859   1.417   2.813 -0.2683  0.3272 -0.4693
 4642TIP3    H113932   2.783   1.458   2.772 -1.4488 -0.1605  1.1305
 4642TIP3    H213933   2.895   1.358   2.746 -1.7308  0.0398 -1.0214
 4643TIP3   OH213934   6.085   5.368   2.082 -0.4246 -0.3033 -0.2439
 4643TIP3    H113935   6.061   5.286   2.038 -1.1160  0.0674 -0.5855
 4643TIP3    H213936   6.012   5.427   2.062  0.4180  0.6222 -0.6190
 4644TIP3   OH213937   2.144   3.581   2.103 -0.4083 -0.8859  0.0388
 4644TIP3    H113938   2.221   3.533   2.132  0.1044 -0.6905 -0.9727
 4644TIP3    H213939   2.119   3.540   2.020 -2.3623 -1.9984  1.0971
 4645TIP3   OH213940   4.976   5.221   0.749 -0.4159 -0.3023 -0.2275
 4645TIP3    H113941   4.944   5.310   0.734 -0.7982 -0.0503  1.8068
 4645TIP3    H213942   5.071   5.229   0.747 -0.4337  0.3486  0.7880
 4646TIP3   OH213943   0.262   3.641   2.424  0.1048  0.6584 -0.1364
 4646TIP3    H113944   0.325   3.671   2.358 -0.0549  0.1770 -0.5123
 4646TIP3    H213945   0.257   3.546   2.412  0.0894  0.5606  0.5866
 4647TIP3   OH213946   2.156   0.851   3.027  0.1728 -0.0914  0.0362
 4647TIP3    H113947   2.088   0.784   3.028  0.0835 -0.0052  0.9854
 4647TIP3    H213948   2.227   0.813   3.079  0.7810 -0.1065 -0.7973
 4648TIP3   OH213949   2.400   2.011   1.011 -0.0295 -0.6273  0.1468
 4648TIP3    H113950   2.384   1.920   0.983 -0.9131  0.0354 -1.6830
 4648TIP3    H213951   2.351   2.020   1.092 -1.7080 -1.2154 -0.7544
 4649TIP3   OH213952   1.982   1.146   3.938 -0.2816  0.3039 -0.1001
 4649TIP3    H113953   1.996   1.057   3.907  0.1973  0.3054  0.0995
 4649TIP3    H213954   1.926   1.187   3.871  0.5474  0.2402 -0.8500
 4650TIP3   OH213955   5.301   3.223   3.850 -0.2277 -0.2122 -0.6329
 4650TIP3    H113956   5.235   3.153   3.855 -0.1297 -0.2577  0.1445
 4650TIP3    H213957   5.325   3.227   3.757 -0.4949 -0.9661 -0.7416
 4651TIP3   OH213958   3.485   0.514   2.962 -0.2707  0.4350  0.0049
 4651TIP3    H113959   3.438   0.532   3.044  0.9096  0.9874  0.5915
 4651TIP3    H213960   3.509   0.421   2.968  0.1323  0.5607  0.4827
 4652TIP3   OH213961   4.407   2.296   4.297 -0.3368 -0.4897 -0.2711
 4652TIP3    H113962   4.449   2.382   4.300 -0.1864 -0.5806  0.5510
 4652TIP3    H213963   4.313   2.316   4.298 -0.4857 -0.1888 -4.5136
 4653TIP3   OH213964   5.162   1.542   2.735  0.2106 -0.2333  0.7710
 4653TIP3    H113965   5.191   1.488   2.662 -1.0307 -1.8404  1.4029
 4653TIP3    H213966   5.067   1.534   2.735  0.1294  0.4399  2.0545
 4654TIP3   OH213967   3.784   5.895   0.060 -0.3208  0.1631  0.0006
 4654TIP3    H113968   3.831   5.822   0.100  1.5913 -0.3007 -2.7931
 4654TIP3    H213969   3.853   5.955   0.031 -1.6664  1.3673 -0.8641
 4655TIP3   OH213970   3.772   2.387   3.314 -0.3253 -0.4184  0.1381
 4655TIP3    H113971   3.779   2.459   3.376 -0.0260 -0.6686  0.3951
 4655TIP3    H213972   3.698   2.411   3.258 -0.4050 -0.0486  0.3991
 4656TIP3   OH213973   4.711   0.313   2.672  0.3438  0.2955 -0.2411
 4656TIP3    H113974   4.775   0.359   2.618  0.9160 -1.7474 -1.3925
 4656TIP3    H213975   4.758   0.291   2.752  0.7344 -0.1805 -0.5986
 4657TIP3   OH213976   1.224   1.162   4.608 -0.0212 -0.0682  0.3092
 4657TIP3    H113977   1.143   1.123   4.640 -1.9465  0.9736 -2.8606
 4657TIP3    H213978   1.222   1.252   4.642  0.3643 -0.3275  1.0485
 4658TIP3   OH213979   3.017   4.262   1.132  0.3794 -0.3839 -0.1623
 4658TIP3    H113980   3.047   4.173   1.151  0.8746 -0.3051 -0.5340
 4658TIP3    H213981   2.981   4.294   1.214  0.4487 -0.8351  0.0435
 4659TIP3   OH213982   4.441   1.689   1.250  0.1388 -0.6881  0.0281
 4659TIP3    H113983   4.396   1.760   1.296  1.3606 -0.0627  0.2878
 4659TIP3    H213984   4.393   1.610   1.275  0.6160 -0.3545  2.2164
 4660TIP3   OH213985   5.880   2.522   3.398  0.4989  0.0479  0.3605
 4660TIP3    H113986   5.873   2.618   3.399 -0.3261 -0.0069  0.3795
 4660TIP3    H213987   5.973   2.505   3.410  1.1640  0.9139 -2.7898
 4661TIP3   OH213988   3.661   1.949   1.817  0.4081 -0.5523 -0.1421
 4661TIP3    H113989   3.655   2.045   1.814 -0.8273 -0.5996  0.2154
 4661TIP3    H213990   3.572   1.919   1.795  1.5209 -1.7112 -3.7643
 4662TIP3   OH213991   6.014   0.718   3.221  1.0806 -0.1709 -0.0645
 4662TIP3    H113992   5.942   0.703   3.283 -1.6788  1.5291 -2.5786
 4662TIP3    H213993   6.050   0.631   3.205 -0.1970 -1.0611  1.5547
 4663TIP3   OH213994   5.263   3.133   2.274 -0.2060  0.3798 -0.2736
 4663TIP3    H113995   5.225   3.220   2.265  0.4081  0.7858  0.9542
 4663TIP3    H213996   5.355   3.148   2.293 -0.0779 -0.5388 -0.0878
 4664TIP3   OH213997   2.534   0.379   3.150 -0.2925 -0.0677  0.6556
 4664TIP3    H113998   2.566   0.469   3.144 -1.9115  0.5385  0.5535
 4664TIP3    H213999   2.595   0.327   3.098 -0.6634  1.3479 -1.2792
 4665TIP3   OH214000   4.706   1.149   2.396  0.5916 -0.6578  0.2123
 4665TIP3    H114001   4.678   1.115   2.481 -0.3531 -1.0976 -0.2656
 4665TIP3    H214002   4.802   1.148   2.400  0.5706  0.3902  1.6942
 4666TIP3   OH214003   4.317   4.666   0.092  0.6097  0.1733 -0.2714
 4666TIP3    H114004   4.257   4.658   0.018 -0.0223 -0.8413  0.3306
 4666TIP3    H214005   4.363   4.749   0.077 -1.4578  1.3685 -0.3798
 4667TIP3   OH214006   4.893   2.030   1.110 -0.2993 -0.3145  0.3263
 4667TIP3    H114007   4.858   2.036   1.021  0.2222 -0.7533  0.0922
 4667TIP3    H214008   4.895   2.121   1.141  2.3531  0.2233 -1.2005
 4668TIP3   OH214009   2.859   5.165   3.386 -0.2342  0.3270  0.6622
 4668TIP3    H114010   2.806   5.106   3.332  1.3299 -0.9741  0.4671
 4668TIP3    H214011   2.867   5.119   3.469  0.5904  0.4938  0.6777
 4669TIP3   OH214012   1.615   1.994   2.304  0.1462  0.1187  0.2935
 4669TIP3    H114013   1.657   1.961   2.383 -1.3754 -2.3402  0.1875
 4669TIP3    H214014   1.687   2.017   2.246  1.3600 -2.0926  0.8291
 4670TIP3   OH214015   2.437   4.839   3.176  0.5145 -0.0662 -0.1512
 4670TIP3    H114016   2.502   4.796   3.233  1.8836 -1.2635 -2.4487
 4670TIP3    H214017   2.481   4.917   3.144  0.7460 -0.7038 -1.4563
 4671TIP3   OH214018   5.385   0.425   4.220 -0.0731 -0.2032 -0.3000
 4671TIP3    H114019   5.376   0.330   4.230 -1.5558  0.0214  1.0008
 4671TIP3    H214020   5.365   0.460   4.307 -0.2699  1.3353 -0.9273
 4672TIP3   OH214021   4.584   3.459   2.398 -1.0528 -0.3173  0.3088
 4672TIP3    H114022   4.616   3.383   2.447 -1.5948  0.3390  1.7533
 4672TIP3    H214023   4.584   3.530   2.463 -1.0672  0.7817 -0.8646
 4673TIP3   OH214024   1.736   4.012   4.386  0.4292 -0.4299 -0.4345
 4673TIP3    H114025   1.801   4.023   4.317  0.9912 -0.8936  0.0108
 4673TIP3    H214026   1.661   3.971   4.343  0.1565  0.6927 -1.0933
 4674TIP3   OH214027   4.793   5.696   0.526  0.3305 -0.0573 -0.6350
 4674TIP3    H114028   4.886   5.707   0.504  0.1508  0.3533 -1.2050
 4674TIP3    H214029   4.764   5.624   0.470  0.3382 -0.2908 -0.3426
 4675TIP3   OH214030   4.426   1.477   1.981 -0.6194  0.1026 -0.4379
 4675TIP3    H114031   4.330   1.472   1.972 -0.8329 -1.6916  2.0099
 4675TIP3    H214032   4.439   1.536   2.055  0.2638  1.1835 -1.4246
 4676TIP3   OH214033   5.033   1.820   3.974  0.5692 -0.2699  0.0904
 4676TIP3    H114034   5.044   1.874   3.896  0.1147 -0.5139 -0.1478
 4676TIP3    H214035   5.033   1.730   3.941  2.5868 -0.5086  0.6134
 4677TIP3   OH214036   2.558   3.863   0.600 -0.0909  0.8772  0.3915
 4677TIP3    H114037   2.579   3.854   0.693 -0.4021  3.1661  0.7597
 4677TIP3    H214038   2.473   3.820   0.590  0.8231 -1.1127  0.6945
 4678TIP3   OH214039   4.230   4.948   2.133 -0.5770 -0.4616  0.4277
 4678TIP3    H114040   4.311   4.985   2.097  0.3109 -3.6602 -1.2531
 4678TIP3    H214041   4.253   4.922   2.222 -0.2753  0.2119  0.5488
 4679TIP3   OH214042   5.090   0.689   1.554  0.0970 -0.1223 -0.4347
 4679TIP3    H114043   5.031   0.645   1.615  2.5835 -1.4023  1.2279
 4679TIP3    H214044   5.073   0.782   1.567  0.7238 -0.3147  2.5497
 4680TIP3   OH214045   4.635   1.016   2.162 -0.3317  0.4414 -0.4309
 4680TIP3    H114046   4.655   1.063   2.243 -1.4657  0.9468 -0.4337
 4680TIP3    H214047   4.576   1.074   2.114 -0.7794 -0.4576 -0.9899
 4681TIP3   OH214048   1.068   5.426   4.437  0.1052  0.3619  0.3811
 4681TIP3    H114049   1.043   5.399   4.526  2.3308 -0.4289  0.8403
 4681TIP3    H214050   1.042   5.353   4.381  0.5494 -0.0454  0.7013
 4682TIP3   OH214051   4.768   0.443   4.783 -0.8628 -0.4611 -0.3305
 4682TIP3    H114052   4.715   0.508   4.830  1.6635  0.7614  1.0579
 4682TIP3    H214053   4.764   0.365   4.838 -0.5016 -0.0605  0.2815
 4683TIP3   OH214054   3.689   2.837   0.139  0.2951  0.0503 -0.8956
 4683TIP3    H114055   3.621   2.793   0.189  0.1563  0.4915 -0.6948
 4683TIP3    H214056   3.684   2.928   0.166  1.2851  0.0050 -0.5123
 4684TIP3   OH214057   5.976   4.288   2.437  0.1934 -0.3288 -0.0377
 4684TIP3    H114058   5.928   4.346   2.497 -0.1855 -0.3942 -0.2733
 4684TIP3    H214059   5.947   4.315   2.350 -0.7819 -1.5541 -0.1101
 4685TIP3   OH214060   1.817   3.511   2.018  0.3745  0.5665  0.6072
 4685TIP3    H114061   1.808   3.453   2.093  1.2722  0.0640  0.3477
 4685TIP3    H214062   1.906   3.497   1.987 -0.2723  0.0270 -1.1469
 4686TIP3   OH214063   6.190   5.833   4.520  0.2157  0.4214  0.3380
 4686TIP3    H114064   6.201   5.745   4.557  0.2868  0.2748 -0.0229
 4686TIP3    H214065   6.208   5.892   4.593  1.9373  0.1601  0.1778
 4687TIP3   OH214066   0.281   0.504   2.589  0.2452  0.2898 -0.1767
 4687TIP3    H114067   0.363   0.550   2.611 -1.0174  1.9353  1.4258
 4687TIP3    H214068   0.293   0.416   2.624  0.7181  1.0260  1.6684
 4688TIP3   OH214069   5.170   1.957   1.847 -0.4849 -0.2266  0.0208
 4688TIP3    H114070   5.110   1.885   1.824 -0.5041 -0.4600  0.7637
 4688TIP3    H214071   5.217   1.924   1.924 -1.0332  0.8427  0.8417
 4689TIP3   OH214072   6.164   3.245   1.313  0.0093  0.2580 -0.0401
 4689TIP3    H114073   6.240   3.303   1.321 -1.0327  1.5776  0.6184
 4689TIP3    H214074   6.141   3.223   1.403  0.2603 -1.0487 -0.2728
 4690TIP3   OH214075   5.663   2.947   4.773  0.1689  0.0078 -0.2883
 4690TIP3    H114076   5.676   3.041   4.788 -0.0122  0.1120 -0.7689
 4690TIP3    H214077   5.731   2.905   4.826 -0.5184  0.3552  0.8987
 4691TIP3   OH214078   1.567   5.362   0.153 -0.0937  0.6281  0.1228
 4691TIP3    H114079   1.491   5.380   0.207 -0.3272  1.1811 -0.3872
 4691TIP3    H214080   1.531   5.328   0.071  0.2496 -0.0254  0.2317
 4692TIP3   OH214081   1.197   1.617   4.860  0.7638  0.4822  0.0604
 4692TIP3    H114082   1.234   1.607   4.948 -1.1726  1.1968  0.9990
 4692TIP3    H214083   1.218   1.707   4.836  1.2783  0.2920 -0.2416
 4693TIP3   OH214084   6.159   3.245   4.328 -0.2690 -0.0882 -0.2258
 4693TIP3    H114085   6.154   3.155   4.296 -0.5439  0.1921 -0.9884
 4693TIP3    H214086   6.252   3.257   4.349 -0.1923 -0.4761 -0.3262
 4694TIP3   OH214087   4.538   3.947   0.386  0.1583 -0.8837  0.2263
 4694TIP3    H114088   4.572   3.955   0.297 -1.3446  2.6974 -0.2018
 4694TIP3    H214089   4.599   3.997   0.440 -1.2456  0.7519  0.3878
 4695TIP3   OH214090   1.270   5.904   2.724  0.2282  0.3034  0.2280
 4695TIP3    H114091   1.349   5.954   2.747  0.2567  0.2749  0.1908
 4695TIP3    H214092   1.205   5.935   2.787  0.0273  0.9686 -0.2960
 4696TIP3   OH214093   0.612   2.662   1.908  0.1787 -0.2292  0.0452
 4696TIP3    H114094   0.654   2.747   1.893  0.6087 -0.5228 -0.4454
 4696TIP3    H214095   0.646   2.606   1.838 -0.9567 -0.5068 -0.3045
 4697TIP3   OH214096   4.351   4.713   1.842  0.2909 -0.2213 -0.0095
 4697TIP3    H114097   4.269   4.761   1.831  0.6074  0.0396 -1.4038
 4697TIP3    H214098   4.388   4.745   1.925 -0.3670  0.6096 -0.0323
 4698TIP3   OH214099   3.112   3.748   1.413  0.7303 -0.4290 -0.0422
 4698TIP3    H114100   3.103   3.842   1.405  1.8682 -0.2493  0.5645
 4698TIP3    H214101   3.022   3.714   1.409  0.3928  0.5748 -1.2886
 4699TIP3   OH214102   4.207   2.397   4.914 -0.1886  0.3380  0.2136
 4699TIP3    H114103   4.203   2.380   4.820 -0.2039 -1.2649  0.4703
 4699TIP3    H214104   4.156   2.326   4.953 -0.1802  0.9790  1.4386
 4700TIP3   OH214105   5.949   1.755   3.815  0.9985 -0.4477  0.7187
 4700TIP3    H114106   6.009   1.693   3.857  2.0920  0.0648 -0.0265
 4700TIP3    H214107   5.985   1.766   3.727  0.1135  0.3101  0.4433
 4701TIP3   OH214108   1.595   5.853   2.072 -0.3593  0.0402  0.0776
 4701TIP3    H114109   1.608   5.855   1.977  1.0570  0.1636  0.2508
 4701TIP3    H214110   1.627   5.767   2.099  1.0771  0.7146  0.6508
 4702TIP3   OH214111   5.670   4.962   2.031 -0.5120 -0.3661 -0.2986
 4702TIP3    H114112   5.673   5.058   2.036  1.4350 -0.3194 -1.3311
 4702TIP3    H214113   5.739   4.940   1.968 -2.3312 -2.3357 -1.7357
 4703TIP3   OH214114   4.504   4.263   1.583 -0.1778 -0.2254  0.0641
 4703TIP3    H114115   4.477   4.353   1.602  1.4188  0.2069  0.3776
 4703TIP3    H214116   4.511   4.260   1.487 -0.9346 -0.2447  0.0009
 4704TIP3   OH214117   2.836   4.021   0.187 -0.6271  0.3801  0.3271
 4704TIP3    H114118   2.812   4.114   0.193  1.2844  0.9697 -0.0839
 4704TIP3    H214119   2.754   3.974   0.198 -1.7009  2.1285  0.3013
 4705TIP3   OH214120   0.284   0.906   1.627 -0.2659  0.2329  0.2893
 4705TIP3    H114121   0.247   0.892   1.714  0.1800 -1.4559  0.2418
 4705TIP3    H214122   0.340   0.983   1.636 -0.8323  0.5420  1.2900
 4706TIP3   OH214123   3.269   1.139   0.433  0.1801  0.0138 -0.0173
 4706TIP3    H114124   3.220   1.137   0.350 -0.8515 -0.4098  0.5838
 4706TIP3    H214125   3.356   1.106   0.410 -0.1529 -0.2955 -0.8958
 4707TIP3   OH214126   3.523   4.777   3.786  0.1478 -0.1563 -0.7297
 4707TIP3    H114127   3.444   4.767   3.734 -0.2139 -0.0103 -0.2091
 4707TIP3    H214128   3.509   4.856   3.838  0.2031 -0.6950  0.1185
 4708TIP3   OH214129   1.055   3.587   4.616 -0.3359 -0.5349  0.2623
 4708TIP3    H114130   1.098   3.508   4.582 -2.5249 -1.3170 -0.8537
 4708TIP3    H214131   0.992   3.611   4.548 -1.2100  0.9370  1.5425
 4709TIP3   OH214132   5.945   5.917   4.879 -0.1072  0.2476 -1.0499
 4709TIP3    H114133   5.927   5.886   4.968 -0.7518  0.3087 -1.1510
 4709TIP3    H214134   6.024   5.870   4.852 -0.0451  0.0531 -0.5331
 4710TIP3   OH214135   3.728   1.974   3.202  0.0759 -0.0002  0.0305
 4710TIP3    H114136   3.765   2.030   3.270 -0.5463  0.1026  0.2833
 4710TIP3    H214137   3.802   1.957   3.143  0.2031  1.3117 -0.2111
 4711TIP3   OH214138   4.370   2.714   1.602 -0.1072  0.2490  0.0106
 4711TIP3    H114139   4.393   2.720   1.695  1.0616  0.2102 -0.2577
 4711TIP3    H214140   4.360   2.620   1.585  1.0819  0.1447 -0.2044
 4712TIP3   OH214141   5.868   3.450   3.114 -0.1016 -0.0943  0.3780
 4712TIP3    H114142   5.943   3.417   3.163  0.1378 -0.2316 -0.0671
 4712TIP3    H214143   5.884   3.419   3.024 -0.5698  0.0779  0.2357
 4713TIP3   OH214144   3.726   4.027   5.156  0.1273  0.1962  0.1925
 4713TIP3    H114145   3.677   4.062   5.082  2.0250  1.4256 -0.5559
 4713TIP3    H214146   3.668   4.037   5.231 -0.4508  2.4316 -0.4848
 4714TIP3   OH214147   5.930   2.596   0.778 -1.1274 -0.0873  0.2491
 4714TIP3    H114148   5.897   2.516   0.820 -0.4047 -0.5495 -0.0385
 4714TIP3    H214149   6.022   2.601   0.803 -1.4736  1.3927  1.3496
 4715TIP3   OH214150   3.209   4.874   4.505 -0.2488 -0.4204  0.7764
 4715TIP3    H114151   3.215   4.901   4.597 -0.8132 -0.9780  0.9870
 4715TIP3    H214152   3.150   4.939   4.465  1.9278  1.3120  0.1894
 4716TIP3   OH214153   0.554   2.602   4.608  0.1867  0.0386 -0.2988
 4716TIP3    H114154   0.602   2.669   4.559 -0.9902  1.6895  0.7190
 4716TIP3    H214155   0.609   2.585   4.684  0.2232  0.2685 -0.2722
 4717TIP3   OH214156   5.905  -0.013   1.019  0.4433 -0.0554 -0.2149
 4717TIP3    H114157   5.984   0.033   1.047  1.0670  0.2871 -2.3516
 4717TIP3    H214158   5.833   0.037   1.056  1.1600 -1.0302  2.7664
 4718TIP3   OH214159   5.418   5.261   2.069  0.0119  0.2712 -0.1196
 4718TIP3    H114160   5.513   5.270   2.071  0.1148 -0.7060  2.0074
 4718TIP3    H214161   5.398   5.241   1.978  1.8165  0.5772 -0.6245
 4719TIP3   OH214162   0.208   2.735   0.673 -0.0396 -0.6207  0.1709
 4719TIP3    H114163   0.229   2.642   0.681 -0.7606 -0.6593  2.3227
 4719TIP3    H214164   0.148   2.740   0.599  0.5779 -1.7345 -0.4447
 4720TIP3   OH214165   1.460   2.271   4.272 -0.5456  0.1137 -0.1550
 4720TIP3    H114166   1.554   2.270   4.252 -0.6676 -1.4629 -0.8242
 4720TIP3    H214167   1.437   2.364   4.275  0.9997  0.5238 -0.1126
 4721TIP3   OH214168   4.138   0.786   5.074 -0.2418  0.1002 -0.1639
 4721TIP3    H114169   4.141   0.855   5.140  2.7849 -0.4257  0.4003
 4721TIP3    H214170   4.088   0.823   5.001 -0.0353  2.2851  0.7522
 4722TIP3   OH214171   4.371   2.014   0.482  0.5589  0.5047  0.0755
 4722TIP3    H114172   4.391   2.074   0.554  0.5672  0.1996  0.3246
 4722TIP3    H214173   4.388   1.927   0.517  0.3633  0.3434 -0.2290
 4723TIP3   OH214174   3.624   3.127   0.192 -0.0659 -0.1642  0.2381
 4723TIP3    H114175   3.558   3.181   0.148 -1.0119 -0.5940  1.0915
 4723TIP3    H214176   3.590   3.115   0.281  3.1565  3.1437  2.1944
 4724TIP3   OH214177   3.903   2.236   1.772  0.5810  0.1124 -0.0484
 4724TIP3    H114178   3.808   2.235   1.787 -0.0446 -0.0116 -3.2494
 4724TIP3    H214179   3.939   2.179   1.840 -1.6610 -0.1822  0.9881
 4725TIP3   OH214180   3.719   2.672   2.464  0.1462 -0.3165 -0.7077
 4725TIP3    H114181   3.729   2.612   2.389  2.1883 -0.2375 -0.5462
 4725TIP3    H214182   3.776   2.635   2.532 -1.2802 -0.1058  0.6598
 4726TIP3   OH214183   3.921   1.780   3.702 -0.0622 -0.0178  0.2939
 4726TIP3    H114184   3.909   1.800   3.795  0.1035 -0.1764  0.3494
 4726TIP3    H214185   3.975   1.853   3.670 -1.4238  0.8760 -0.0327
 4727TIP3   OH214186   6.036   5.581   3.209 -0.1757  0.9488 -0.3536
 4727TIP3    H114187   5.978   5.616   3.276 -1.3454 -0.0168 -0.8349
 4727TIP3    H214188   5.978   5.557   3.137  1.0878  2.4047 -1.9465
 4728TIP3   OH214189   3.944   0.721   3.020  0.1935  0.7476 -0.3229
 4728TIP3    H114190   3.891   0.801   3.012  2.0052  1.9394 -0.8727
 4728TIP3    H214191   3.889   0.652   2.982 -1.5352  1.6425  0.4506
 4729TIP3   OH214192   5.780   2.605   2.185 -0.1370  0.5721 -0.2554
 4729TIP3    H114193   5.842   2.551   2.234 -0.1713 -0.8941 -1.7598
 4729TIP3    H214194   5.694   2.581   2.221  0.0158  1.6238  0.8993
 4730TIP3   OH214195   0.077   4.717   3.348  0.1297  0.0435 -0.2336
 4730TIP3    H114196   0.172   4.706   3.354  0.2949  0.8560 -1.0999
 4730TIP3    H214197   0.056   4.698   3.257 -0.3227  1.3555 -0.4209
 4731TIP3   OH214198   2.317   2.643   4.665 -0.4193 -0.3937  0.1037
 4731TIP3    H114199   2.371   2.698   4.721  0.2119  0.6216 -1.4444
 4731TIP3    H214200   2.297   2.566   4.718  2.1834 -0.6115  0.8947
 4732TIP3   OH214201   3.119   2.471   0.524  0.2542 -0.1735 -0.1199
 4732TIP3    H114202   3.116   2.541   0.459 -0.5410  0.8921  1.0152
 4732TIP3    H214203   3.030   2.437   0.528  0.5881 -1.1446 -0.5153
 4733TIP3   OH214204   0.388   5.372   1.575  0.3537  0.0720 -0.2372
 4733TIP3    H114205   0.320   5.420   1.621  2.2529  1.6795  1.0303
 4733TIP3    H214206   0.423   5.311   1.639  0.3090 -0.5655 -0.8028
 4734TIP3   OH214207   5.955   2.014   4.337 -0.2417 -0.4310  0.1221
 4734TIP3    H114208   5.867   1.992   4.367 -0.5486  0.2900 -0.2223
 4734TIP3    H214209   5.943   2.092   4.283  0.5290 -0.6870 -0.4399
 4735TIP3   OH214210   5.730   3.640   2.871 -0.1681  1.0261 -0.1767
 4735TIP3    H114211   5.702   3.720   2.915 -1.7251  0.0504  0.6791
 4735TIP3    H214212   5.775   3.590   2.939  2.1456  1.7382 -1.0652
 4736TIP3   OH214213   3.245   1.231   2.696 -0.0454  0.1786 -0.0483
 4736TIP3    H114214   3.208   1.160   2.750 -0.8245  0.4308 -0.2410
 4736TIP3    H214215   3.215   1.311   2.739  0.7908  0.3921  0.1366
 4737TIP3   OH214216   0.680   4.894   4.778  0.0930  0.1650  0.5002
 4737TIP3    H114217   0.687   4.892   4.874 -2.5172  0.6041  0.7660
 4737TIP3    H214218   0.621   4.966   4.760 -0.3642 -0.6343 -1.3878
 4738TIP3   OH214219   3.972   3.904   2.747  0.5423 -0.2983  0.0436
 4738TIP3    H114220   3.900   3.966   2.743  0.0450 -0.9451 -2.3449
 4738TIP3    H214221   3.935   3.821   2.717  1.8210 -1.1401  0.6590
 4739TIP3   OH214222   1.316   3.379   5.186  0.2672 -0.1641 -0.9246
 4739TIP3    H114223   1.402   3.338   5.191  0.5673  0.5714  0.3302
 4739TIP3    H214224   1.333   3.465   5.148 -0.0776 -0.4165 -1.6695
 4740TIP3   OH214225   3.694   3.717   0.315  0.0841 -0.1473  0.9235
 4740TIP3    H114226   3.697   3.623   0.297 -0.2235 -0.1042  0.6261
 4740TIP3    H214227   3.731   3.726   0.403 -0.8297 -0.6612  1.3732
 4741TIP3   OH214228   2.440   1.969   3.035  0.0414  0.2045 -0.1717
 4741TIP3    H114229   2.350   1.972   3.002  0.2815 -0.9257 -0.9839
 4741TIP3    H214230   2.465   1.877   3.027 -0.0303 -0.3118  3.6801
 4742TIP3   OH214231   2.153   2.926   1.638 -0.1292 -0.2403 -0.2280
 4742TIP3    H114232   2.223   2.861   1.627  0.2254  0.1068 -0.0510
 4742TIP3    H214233   2.165   2.987   1.566 -0.1438 -0.0860 -0.1007
 4743TIP3   OH214234   2.526   1.557   0.472 -0.3472  0.2112  0.3872
 4743TIP3    H114235   2.562   1.494   0.534  0.6915 -0.3512 -0.7417
 4743TIP3    H214236   2.478   1.503   0.408 -0.0450  0.6217 -0.1943
 4744TIP3   OH214237   2.756   4.195   0.838 -0.4300  0.1303  0.7535
 4744TIP3    H114238   2.828   4.136   0.815 -0.7564  0.4305 -1.2131
 4744TIP3    H214239   2.791   4.251   0.907  0.3725 -1.3615  1.6053
 4745TIP3   OH214240   0.213   1.350   1.566  0.3478 -0.2425  0.0872
 4745TIP3    H114241   0.136   1.295   1.553  0.6055 -0.8152  0.9787
 4745TIP3    H214242   0.213   1.408   1.489 -0.2255 -1.1045 -0.5844
 4746TIP3   OH214243   1.231   4.856   3.880  0.2190 -0.3256 -0.0269
 4746TIP3    H114244   1.207   4.930   3.825  2.4211  0.3394 -0.1888
 4746TIP3    H214245   1.160   4.850   3.944 -1.1690  0.4122 -1.4288
 4747TIP3   OH214246   3.118   2.664   0.312  0.2434  0.2744 -0.2107
 4747TIP3    H114247   3.026   2.682   0.294 -0.3941 -2.2696  0.1428
 4747TIP3    H214248   3.166   2.719   0.250 -1.5881 -0.0158 -1.9853
 4748TIP3   OH214249   0.450   2.524   2.829 -0.4543 -0.1877  0.8312
 4748TIP3    H114250   0.526   2.571   2.862  0.6747 -1.9713  0.9028
 4748TIP3    H214251   0.405   2.493   2.907 -1.1919  0.7085  0.7844
 4749TIP3   OH214252   1.206   4.282   3.547 -0.3268 -0.1482  0.3303
 4749TIP3    H114253   1.159   4.208   3.507 -2.0365  0.9838  0.1581
 4749TIP3    H214254   1.266   4.310   3.478  0.5806 -1.5453  0.5046
 4750TIP3   OH214255   2.755   3.023   3.437  0.4021  0.2266  0.3475
 4750TIP3    H114256   2.781   2.936   3.405  0.1067  0.6969 -1.2559
 4750TIP3    H214257   2.786   3.083   3.369 -0.3592  1.2734  0.9069
 4751TIP3   OH214258   3.218   2.422   3.820  0.0388 -0.7996 -0.6043
 4751TIP3    H114259   3.286   2.489   3.811  1.0158 -1.6778  0.0349
 4751TIP3    H214260   3.154   2.462   3.879 -0.3080  0.2520 -1.6517
 4752TIP3   OH214261   1.106   0.895   2.889  0.0895  0.1588  0.2070
 4752TIP3    H114262   1.187   0.930   2.928  1.4862 -1.9753 -0.5846
 4752TIP3    H214263   1.089   0.815   2.938  0.3161 -1.0962 -1.6698
 4753TIP3   OH214264   0.069   5.543   3.012 -0.3412 -0.6973  0.5546
 4753TIP3    H114265   0.021   5.625   3.026 -0.1302 -0.8106  2.1604
 4753TIP3    H214266   0.018   5.496   2.947 -0.9685  0.3209  0.2928
 4754TIP3   OH214267   4.383   2.260   2.074  0.2317  0.0378  0.0176
 4754TIP3    H114268   4.295   2.269   2.038 -0.1731 -1.2722  0.6231
 4754TIP3    H214269   4.441   2.283   2.002 -0.5973 -0.3394 -0.7843
 4755TIP3   OH214270   6.289   2.472   2.019  0.3687 -0.2557  0.0856
 4755TIP3    H114271   6.199   2.464   2.049  0.3784 -0.2406  0.1196
 4755TIP3    H214272   6.333   2.393   2.052  0.7696  0.5123  1.5095
 4756TIP3   OH214273   4.388   2.063   1.634 -0.5871 -0.0087  0.0420
 4756TIP3    H114274   4.459   2.092   1.577 -0.2470 -0.8376  0.0247
 4756TIP3    H214275   4.430   2.051   1.720 -0.5641 -1.0614 -0.1042
 4757TIP3   OH214276   2.426   0.018   1.410 -0.6797  0.1497 -0.0874
 4757TIP3    H114277   2.400   0.041   1.321 -0.5916 -0.7322 -0.3542
 4757TIP3    H214278   2.522   0.019   1.408 -0.5334 -3.1632 -0.9817
 4758TIP3   OH214279   3.941   2.325   0.059 -0.2097  0.4402 -0.2366
 4758TIP3    H114280   3.941   2.372  -0.025  0.4516  1.4690  0.3231
 4758TIP3    H214281   3.959   2.393   0.124  0.0563 -0.4769  0.6610
 4759TIP3   OH214282   3.557   4.383   1.032 -0.1636 -0.0208 -0.1261
 4759TIP3    H114283   3.489   4.375   1.100  0.6872  1.7050  1.0167
 4759TIP3    H214284   3.509   4.407   0.953 -1.1345 -1.6008 -0.0595
 4760TIP3   OH214285   1.246   0.031   2.872 -0.4093 -0.2194 -0.5854
 4760TIP3    H114286   1.157   0.066   2.869 -0.7224 -0.9292  0.0294
 4760TIP3    H214287   1.300   0.104   2.903 -0.8524  0.0811 -0.5209
 4761TIP3   OH214288   4.505   1.314   4.285  0.3607  0.8382  0.3920
 4761TIP3    H114289   4.456   1.287   4.363  2.2985 -0.7657  1.1662
 4761TIP3    H214290   4.538   1.231   4.249 -1.1968  1.4321 -2.7184
 4762TIP3   OH214291   3.237   1.739   3.924  0.0040 -0.4568  0.0833
 4762TIP3    H114292   3.180   1.664   3.909 -1.0237  0.4508 -0.7478
 4762TIP3    H214293   3.317   1.702   3.961  0.0181 -2.1090 -1.4644
 4763TIP3   OH214294   4.465   2.095   4.798  0.5729  0.5701  0.3148
 4763TIP3    H114295   4.397   2.149   4.839  0.3722  1.6206 -1.3032
 4763TIP3    H214296   4.540   2.102   4.858 -0.9709 -1.5064  2.7171
 4764TIP3   OH214297   2.408   0.029   2.912  0.2521 -0.3184 -0.3615
 4764TIP3    H114298   2.343  -0.021   2.863 -1.2503  1.6418 -0.4743
 4764TIP3    H214299   2.386   0.016   3.004 -1.0573  1.1980 -0.4167
 4765TIP3   OH214300   3.447   5.712   4.342 -0.1760 -0.9956  0.0086
 4765TIP3    H114301   3.518   5.709   4.407  0.5811  0.4503 -0.7113
 4765TIP3    H214302   3.465   5.791   4.291 -2.2084 -0.7176 -0.3342
 4766TIP3   OH214303   5.217   0.337   0.689  0.1205 -0.2682  0.2356
 4766TIP3    H114304   5.143   0.356   0.632 -0.9172 -0.7350  1.3851
 4766TIP3    H214305   5.238   0.245   0.671 -0.2087 -0.4162  0.6088
 4767TIP3   OH214306   2.346   3.282   1.573 -0.3902  0.2676 -0.2980
 4767TIP3    H114307   2.258   3.320   1.576 -0.3126  0.7416 -2.3727
 4767TIP3    H214308   2.340   3.214   1.507  0.7911  0.2478 -0.3952
 4768TIP3   OH214309   4.286   1.238   5.019 -0.3862 -0.1237  0.0225
 4768TIP3    H114310   4.349   1.174   4.986 -0.5532 -0.9604  1.2641
 4768TIP3    H214311   4.334   1.287   5.086 -0.7943 -0.1741  0.3568
 4769TIP3   OH214312   4.859   4.202   3.047 -0.0356 -0.0047  0.6970
 4769TIP3    H114313   4.910   4.125   3.023  0.9722  0.3341  1.6875
 4769TIP3    H214314   4.847   4.249   2.965  1.9913  0.3379  0.5564
 4770TIP3   OH214315   6.130   4.219   3.678  0.0942 -0.5786 -0.0919
 4770TIP3    H114316   6.077   4.139   3.688 -0.9350  0.0511 -0.3467
 4770TIP3    H214317   6.160   4.217   3.587 -0.4432 -0.3809 -0.2793
 4771TIP3   OH214318   3.431   2.978   1.629 -0.0910  0.4676  0.2343
 4771TIP3    H114319   3.459   2.987   1.720  0.3598  0.9582  0.0521
 4771TIP3    H214320   3.486   2.908   1.594 -0.4669  0.0772  0.4145
 4772TIP3   OH214321   5.465   4.799   0.066  0.2282 -0.3737  0.0063
 4772TIP3    H114322   5.507   4.779  -0.017 -1.0428 -1.4196 -0.4134
 4772TIP3    H214323   5.411   4.876   0.048  0.2228 -0.3890 -0.0429
 4773TIP3   OH214324   5.522   1.240   5.019  0.3320 -0.0569 -0.1784
 4773TIP3    H114325   5.437   1.195   5.022 -0.0670  0.5360 -1.5850
 4773TIP3    H214326   5.582   1.174   4.985 -0.2149  0.3559 -2.0670
 4774TIP3   OH214327   5.753   4.465   3.527  0.0994 -0.3346 -0.2541
 4774TIP3    H114328   5.752   4.370   3.534 -1.3434 -0.2802  0.3927
 4774TIP3    H214329   5.822   4.493   3.587  1.0601 -0.9911 -1.0147
 4775TIP3   OH214330   3.399   4.160   1.587  0.2389  0.2961  0.5114
 4775TIP3    H114331   3.492   4.159   1.565 -0.0176 -2.0838 -0.7543
 4775TIP3    H214332   3.396   4.163   1.682  1.6773 -1.4476  0.6490
 4776TIP3   OH214333   1.395   2.709   2.479  0.3747 -0.0521 -0.0680
 4776TIP3    H114334   1.378   2.748   2.565 -0.6290  1.3274 -0.8398
 4776TIP3    H214335   1.428   2.781   2.426  0.7654 -0.8272 -0.9072
 4777TIP3   OH214336   5.699   1.219   3.354  0.3818 -0.0064 -0.1156
 4777TIP3    H114337   5.777   1.237   3.301  1.2911 -3.3739 -0.1482
 4777TIP3    H214338   5.691   1.123   3.353 -1.6100 -0.0072  2.9573
 4778TIP3   OH214339   0.417   4.510   0.919  0.3769  0.0648  0.0935
 4778TIP3    H114340   0.484   4.442   0.929 -0.0567 -0.6658 -1.6094
 4778TIP3    H214341   0.334   4.461   0.917 -0.0814  0.8116  0.5583
 4779TIP3   OH214342   2.405   2.127   0.257 -0.1045 -0.0954 -0.2470
 4779TIP3    H114343   2.404   2.049   0.201  0.7366 -0.1087 -0.2601
 4779TIP3    H214344   2.487   2.171   0.234 -0.0409  0.2096  0.5496
 4780TIP3   OH214345   4.403   0.759   3.142 -0.0843 -0.2318  0.1087
 4780TIP3    H114346   4.368   0.693   3.083  0.0244 -0.1749 -0.0219
 4780TIP3    H214347   4.328   0.788   3.194 -0.2942  0.1039 -0.3732
 4781TIP3   OH214348   3.062   1.180   4.910  0.3860  0.3580  0.3363
 4781TIP3    H114349   3.046   1.087   4.894  1.1727  0.4141 -0.9848
 4781TIP3    H214350   3.141   1.199   4.859 -0.4679  2.0320 -0.4419
 4782TIP3   OH214351   0.247   2.845   3.466 -0.1950  0.1418  0.1589
 4782TIP3    H114352   0.275   2.878   3.551  2.4844 -1.6669  0.1066
 4782TIP3    H214353   0.211   2.758   3.484  0.7668 -0.4273 -0.5630
 4783TIP3   OH214354   2.650   3.399   0.052 -0.4905 -0.0176  0.1491
 4783TIP3    H114355   2.649   3.403   0.147 -0.5580  0.6513  0.1236
 4783TIP3    H214356   2.669   3.307   0.032 -0.5508 -0.1767  0.8024
 4784TIP3   OH214357   5.920   4.708   0.644  0.1746  0.2877 -0.2302
 4784TIP3    H114358   5.976   4.648   0.694 -0.4001  0.0241  0.1089
 4784TIP3    H214359   5.845   4.724   0.701  0.0094  0.8199 -0.5860
 4785TIP3   OH214360   1.152   3.941   4.286  0.1323 -0.0317  0.4644
 4785TIP3    H114361   1.158   4.024   4.239 -0.4999  0.4199  1.1582
 4785TIP3    H214362   1.187   3.961   4.373  1.3056 -0.8591  0.2123
 4786TIP3   OH214363   1.444   5.008   1.731 -0.1038 -0.3560 -0.4108
 4786TIP3    H114364   1.524   5.015   1.678 -0.2962 -1.0234 -0.7926
 4786TIP3    H214365   1.469   4.951   1.804  0.5063  1.4728  0.9073
 4787TIP3   OH214366   3.385   0.055   2.200  0.3560  0.1732  0.5384
 4787TIP3    H114367   3.376  -0.029   2.156  0.0317 -0.1594  1.2214
 4787TIP3    H214368   3.470   0.088   2.173  1.7756 -1.6775  2.4075
 4788TIP3   OH214369   2.617   3.775   3.254 -0.3698 -0.1328 -0.3660
 4788TIP3    H114370   2.574   3.700   3.213  1.7463 -2.9049  2.1132
 4788TIP3    H214371   2.703   3.779   3.214  0.4199 -0.6336  1.2061
 4789TIP3   OH214372   5.280   3.187   0.305  0.1867  0.1146 -0.3666
 4789TIP3    H114373   5.339   3.113   0.312  0.3769  0.3848  1.0653
 4789TIP3    H214374   5.336   3.264   0.313 -0.2023  0.3891 -0.2158
 4790TIP3   OH214375   2.639   0.680   4.843  0.8738  0.1585 -0.2615
 4790TIP3    H114376   2.709   0.639   4.792  0.8846  0.6266 -0.6404
 4790TIP3    H214377   2.668   0.771   4.852  0.4711  0.2740 -0.1362
 4791TIP3   OH214378   4.007   0.468   1.834 -0.0344 -0.4940 -0.1297
 4791TIP3    H114379   4.054   0.457   1.752  0.2454 -0.4542  0.0251
 4791TIP3    H214380   3.984   0.561   1.836 -0.6950 -0.6456 -0.5148
 4792TIP3   OH214381   1.843   5.276   3.505 -0.2313 -0.4713 -0.3777
 4792TIP3    H114382   1.789   5.278   3.426 -0.2899 -0.0285 -0.3247
 4792TIP3    H214383   1.931   5.299   3.475 -0.9157  3.6755  0.2322
 4793TIP3   OH214384   3.436   5.697   1.020 -0.1018 -0.0273  0.2166
 4793TIP3    H114385   3.505   5.739   0.969 -0.3345 -0.6017 -0.5892
 4793TIP3    H214386   3.418   5.615   0.973 -0.0625 -0.7517  1.4403
 4794TIP3   OH214387   5.198   4.006   4.952  0.5772  0.1491  0.3600
 4794TIP3    H114388   5.106   3.995   4.976  0.5722 -1.1287 -0.1595
 4794TIP3    H214389   5.196   4.046   4.865  0.4555 -1.2068 -0.2916
 4795TIP3   OH214390   5.118   5.590   3.968 -0.1311 -0.0333  0.1579
 4795TIP3    H114391   5.105   5.551   4.054  0.4844 -1.7481 -0.4901
 4795TIP3    H214392   5.073   5.531   3.907 -0.1906  0.9157 -0.7540
 4796TIP3   OH214393   3.886   5.796   4.780 -0.0850  0.4272  0.5748
 4796TIP3    H114394   3.979   5.809   4.797 -0.0558  0.2624  0.5378
 4796TIP3    H214395   3.852   5.758   4.862 -0.1881  0.8170  0.7151
 4797TIP3   OH214396   0.450   5.283   1.325 -0.0454  0.2461 -0.2127
 4797TIP3    H114397   0.462   5.333   1.406 -1.0734 -0.8729  0.6576
 4797TIP3    H214398   0.362   5.306   1.295  0.0642  0.1214 -0.6420
 4798TIP3   OH214399   5.719   2.417   0.559 -0.1565 -0.8577 -1.0719
 4798TIP3    H114400   5.787   2.398   0.495  0.3744  1.0679 -1.1355
 4798TIP3    H214401   5.748   2.374   0.639 -0.3476 -2.4734 -1.8304
 4799TIP3   OH214402   5.434   4.321   1.432 -0.5683 -0.1816  0.7043
 4799TIP3    H114403   5.507   4.378   1.457 -1.2765  0.9048  0.3718
 4799TIP3    H214404   5.356   4.375   1.446 -1.2941 -1.2372  0.8203
 4800TIP3   OH214405   1.525   3.114   3.629 -0.2579  0.0284 -0.3125
 4800TIP3    H114406   1.536   3.169   3.707 -0.2682  0.2442 -0.4629
 4800TIP3    H214407   1.597   3.141   3.571 -0.3665  0.0039 -0.4575
 4801TIP3   OH214408   4.585   0.201   4.504  0.0652  0.6995  0.1104
 4801TIP3    H114409   4.608   0.214   4.412 -1.2615  1.3673 -0.1464
 4801TIP3    H214410   4.620   0.114   4.525 -0.7574 -0.0373 -1.4077
 4802TIP3   OH214411   0.791   1.800   3.499  0.1298  0.6125 -0.4140
 4802TIP3    H114412   0.722   1.864   3.515 -0.2419  0.2708 -0.6524
 4802TIP3    H214413   0.762   1.752   3.421 -1.2484 -2.1439  1.6574
 4803TIP3   OH214414   2.719   2.320   2.619 -0.6186 -0.0385  0.7817
 4803TIP3    H114415   2.636   2.279   2.643  0.6760 -2.0037  2.2541
 4803TIP3    H214416   2.731   2.299   2.527 -2.6839  2.1305 -0.0879
 4804TIP3   OH214417   1.261   5.991   4.533  0.2310 -0.1249  0.3373
 4804TIP3    H114418   1.314   5.948   4.600  1.4620  0.0737 -0.4789
 4804TIP3    H214419   1.276   5.941   4.453 -0.3077  0.3234 -0.0581
 4805TIP3   OH214420   0.399   3.516   2.848  0.5789 -0.5206  0.0077
 4805TIP3    H114421   0.386   3.609   2.831 -2.5158 -1.1396 -1.6889
 4805TIP3    H214422   0.427   3.513   2.940  1.9093  2.0968 -0.2148
 4806TIP3   OH214423   5.447   1.611   2.948 -0.0310 -0.3779  0.0042
 4806TIP3    H114424   5.373   1.551   2.940  0.7366 -1.3072 -0.1609
 4806TIP3    H214425   5.495   1.602   2.865  0.0019  0.5974 -0.1005
 4807TIP3   OH214426   0.226   0.467   1.191 -0.9338 -0.0872  0.3869
 4807TIP3    H114427   0.313   0.496   1.218 -0.4607 -1.0615 -0.0266
 4807TIP3    H214428   0.219   0.493   1.099 -1.2542  0.3778  0.5428
 4808TIP3   OH214429   1.170   3.005   4.920  0.2996 -0.4108  0.3734
 4808TIP3    H114430   1.164   2.945   4.846  0.7527 -2.0424  1.5887
 4808TIP3    H214431   1.246   2.974   4.970 -0.5118  0.0850  1.9731
 4809TIP3   OH214432   2.572   1.727   4.881 -0.5361 -0.3526 -0.1823
 4809TIP3    H114433   2.646   1.706   4.938 -0.7465  0.7932  0.5381
 4809TIP3    H214434   2.525   1.645   4.870  1.4494 -1.3973 -1.5847
 4810TIP3   OH214435   2.854   3.204   0.301 -0.4083 -0.3229  0.0827
 4810TIP3    H114436   2.778   3.261   0.287  0.0613 -0.2473 -2.7069
 4810TIP3    H214437   2.817   3.116   0.303 -0.8003 -0.1522  1.2966
 4811TIP3   OH214438   0.186   4.770   0.529  0.4843 -0.3864 -0.0363
 4811TIP3    H114439   0.232   4.716   0.464  0.9521 -0.3562  0.2660
 4811TIP3    H214440   0.113   4.715   0.557 -0.1792 -0.1071 -1.1379
 4812TIP3   OH214441   4.355   1.254   1.529 -0.0677 -0.0575 -0.5364
 4812TIP3    H114442   4.436   1.205   1.540 -0.3848  0.0138  3.1419
 4812TIP3    H214443   4.290   1.188   1.504 -0.1503 -1.3997  2.8049
 4813TIP3   OH214444   3.455   1.950   4.521 -0.4732 -0.7640 -0.2137
 4813TIP3    H114445   3.441   2.042   4.543  0.3991 -0.3006 -1.4896
 4813TIP3    H214446   3.381   1.928   4.465  0.6422 -0.0445 -2.0566
 4814TIP3   OH214447   5.447   0.436   0.893  0.3295 -0.4919  0.4539
 4814TIP3    H114448   5.541   0.441   0.911  0.3974  0.5812 -0.1214
 4814TIP3    H214449   5.441   0.440   0.797 -0.2887 -0.9142  0.4693
 4815TIP3   OH214450   4.892   1.884   2.778  0.2650 -0.3228 -0.1994
 4815TIP3    H114451   4.863   1.974   2.763  0.0124 -0.5813 -1.3326
 4815TIP3    H214452   4.925   1.885   2.868 -0.6078  0.6700  0.1380
 4816TIP3   OH214453   6.095   4.089   1.673  0.2596  0.3497  0.4570
 4816TIP3    H114454   6.145   4.096   1.592  3.3282  0.6669  2.2326
 4816TIP3    H214455   6.058   4.001   1.671  1.0421  0.0251 -0.8660
 4817TIP3   OH214456   5.490   1.732   3.655 -0.1728  0.3456 -0.7398
 4817TIP3    H114457   5.585   1.733   3.646 -0.2160 -1.2446 -1.8531
 4817TIP3    H214458   5.457   1.734   3.565 -1.1638  0.2363 -0.3924
 4818TIP3   OH214459   5.572   0.865   3.831  0.0246 -0.2201  0.3911
 4818TIP3    H114460   5.621   0.783   3.824  1.6831  0.6262  1.4466
 4818TIP3    H214461   5.545   0.869   3.922  0.4022  0.6267  0.4770
 4819TIP3   OH214462   4.863   1.823   3.098  0.1966  0.0604 -0.1955
 4819TIP3    H114463   4.790   1.862   3.146 -0.4226 -1.2400 -0.0400
 4819TIP3    H214464   4.939   1.874   3.124 -0.2471 -0.1408  1.6153
 4820TIP3   OH214465   5.370   3.819   3.033  0.0502  0.3371 -0.1421
 4820TIP3    H114466   5.446   3.780   3.077  1.1661  2.7419  0.1863
 4820TIP3    H214467   5.331   3.877   3.098 -0.3728  1.2824 -1.2083
 4821TIP3   OH214468   2.618   4.717   1.689  0.1176 -0.1289 -0.3009
 4821TIP3    H114469   2.666   4.794   1.658  1.2173 -0.7107 -0.1015
 4821TIP3    H214470   2.682   4.668   1.739 -0.5999 -1.1265 -0.3310
 4822TIP3   OH214471   1.938   1.614   2.926 -0.0547  0.3522  0.1879
 4822TIP3    H114472   1.931   1.625   3.021 -1.8890  2.3208 -0.1055
 4822TIP3    H214473   2.030   1.593   2.911  0.3669  0.4455  2.3501
 4823TIP3   OH214474   2.469   0.341   3.702 -0.4679 -0.1137  0.1359
 4823TIP3    H114475   2.386   0.389   3.706 -0.2550  0.3394 -0.5599
 4823TIP3    H214476   2.534   0.409   3.680  0.1726 -0.3656  1.1728
 4824TIP3   OH214477   1.756   2.474   2.141 -0.7369  0.0212 -0.3984
 4824TIP3    H114478   1.707   2.519   2.209  0.9289  1.2813  0.0445
 4824TIP3    H214479   1.737   2.522   2.061 -0.1000  0.6413 -0.1892
 4825TIP3   OH214480   4.621   3.279   1.477 -0.6524 -0.1604 -0.5721
 4825TIP3    H114481   4.685   3.209   1.464 -1.4185 -0.7214 -1.5211
 4825TIP3    H214482   4.569   3.279   1.396 -1.4272  0.7161 -0.0973
 4826TIP3   OH214483   4.222   1.224   3.270  0.4134 -0.0172 -0.3501
 4826TIP3    H114484   4.198   1.269   3.351 -0.6116  0.7983 -1.0815
 4826TIP3    H214485   4.286   1.158   3.297 -0.6306 -0.4200  1.2781
 4827TIP3   OH214486   4.650   1.754   5.107 -0.1329 -0.5900  0.3832
 4827TIP3    H114487   4.705   1.735   5.031 -0.1396  0.0478  0.2102
 4827TIP3    H214488   4.566   1.781   5.069  0.5010  1.8017  0.5200
 4828TIP3   OH214489   5.710   1.054   4.944 -0.6382 -0.6608  0.0235
 4828TIP3    H114490   5.785   1.072   4.888 -0.4032 -0.1515  0.4989
 4828TIP3    H214491   5.660   0.987   4.897  1.1535 -2.5119  0.6334
 4829TIP3   OH214492   2.787   4.570   1.865  0.1525  0.0774  0.0536
 4829TIP3    H114493   2.785   4.577   1.961  1.2256 -1.6087  0.2477
 4829TIP3    H214494   2.745   4.485   1.847  1.2387 -0.2907 -0.8481
 4830TIP3   OH214495   3.508   0.546   1.410  0.3229 -0.0770  0.3796
 4830TIP3    H114496   3.556   0.528   1.491 -1.4218  0.8065  1.6476
 4830TIP3    H214497   3.493   0.459   1.373  0.7179 -0.5305  1.2383
 4831TIP3   OH214498   0.284   0.650   2.855 -0.4647  0.0899 -0.7817
 4831TIP3    H114499   0.283   0.602   2.937 -1.9944  0.3586 -0.6107
 4831TIP3    H214500   0.199   0.632   2.815  0.3190 -0.2237 -2.4288
 4832TIP3   OH214501   1.841   4.411   1.472 -0.2938  0.0637 -0.3282
 4832TIP3    H114502   1.782   4.370   1.536  1.1777  0.7702  1.5640
 4832TIP3    H214503   1.891   4.338   1.436  0.5991 -0.1239  1.2083
 4833TIP3   OH214504   1.313   4.328   2.708  0.2549 -0.0776  0.0287
 4833TIP3    H114505   1.383   4.322   2.773  0.8680 -1.9597 -0.7091
 4833TIP3    H214506   1.260   4.250   2.723 -0.4478  0.2326 -0.7755
 4834TIP3   OH214507   3.529   4.680   3.350  0.3690  0.2031  0.1578
 4834TIP3    H114508   3.459   4.672   3.414 -0.7508 -1.5914 -1.2076
 4834TIP3    H214509   3.485   4.700   3.267  1.5578  0.1116 -0.5229
 4835TIP3   OH214510   3.476   5.574   3.404 -0.4291 -0.1783 -0.4722
 4835TIP3    H114511   3.444   5.485   3.396  1.2350 -1.1024  2.0424
 4835TIP3    H214512   3.534   5.573   3.480 -1.7417  3.4532  0.8377
 4836TIP3   OH214513   2.797   2.764   1.790  0.6484 -0.0274 -0.0715
 4836TIP3    H114514   2.819   2.771   1.883  1.9369 -0.8555 -0.2943
 4836TIP3    H214515   2.715   2.715   1.788  0.4693  0.2351  0.6283
 4837TIP3   OH214516   1.846   1.412   1.811  0.3179  0.6293  0.2342
 4837TIP3    H114517   1.885   1.385   1.728 -0.3562  1.1836 -0.2738
 4837TIP3    H214518   1.914   1.394   1.876  0.2156 -1.4861 -0.1661
 4838TIP3   OH214519   3.108   4.039   4.087  0.2472  0.2197 -0.1402
 4838TIP3    H114520   3.109   4.123   4.041  0.3800  0.6669  0.6722
 4838TIP3    H214521   3.060   4.056   4.168 -1.0717 -0.8682 -0.6609
 4839TIP3   OH214522   4.074   3.324   4.058 -0.2874 -0.0302 -0.3700
 4839TIP3    H114523   4.099   3.416   4.063 -0.2087 -0.1326  1.7083
 4839TIP3    H214524   4.143   3.283   4.006  0.2162  0.8999 -0.4528
 4840TIP3   OH214525   0.997   4.914   0.872  0.6000  0.1104  0.1300
 4840TIP3    H114526   0.980   5.006   0.894  1.0011  0.1170  0.4337
 4840TIP3    H214527   0.989   4.868   0.956  0.3379 -0.1422 -0.0344
 4841TIP3   OH214528   1.839   0.200   4.861 -0.1577 -0.0326  0.0032
 4841TIP3    H114529   1.834   0.107   4.880  0.0852 -0.4796 -1.9146
 4841TIP3    H214530   1.767   0.216   4.799  0.3122  0.8572 -0.3456
 4842TIP3   OH214531   2.532   5.370   0.162 -0.3101  0.6937  0.2705
 4842TIP3    H114532   2.510   5.449   0.212 -1.2044  2.4217 -2.6366
 4842TIP3    H214533   2.447   5.335   0.133  0.0615 -1.4383  1.4736
 4843TIP3   OH214534   3.298   4.715   2.098  0.0753  0.0371  0.1516
 4843TIP3    H114535   3.221   4.697   2.152 -0.9062  0.0933 -1.1928
 4843TIP3    H214536   3.297   4.645   2.032  1.0429  0.1837 -0.0277
 4844TIP3   OH214537   1.281   0.647   1.255 -0.5322 -0.0853 -0.3172
 4844TIP3    H114538   1.214   0.618   1.317 -0.0802 -0.0416  0.2052
 4844TIP3    H214539   1.359   0.659   1.309  0.2419 -1.3470 -1.1192
 4845TIP3   OH214540   2.056   3.416   1.886 -0.1251 -0.1031 -0.4854
 4845TIP3    H114541   1.989   3.359   1.924 -0.9090  0.6992 -0.6270
 4845TIP3    H214542   2.075   3.378   1.800 -0.6715 -0.1320 -0.5959
 4846TIP3   OH214543   5.907   4.693   5.139  0.1154 -0.7463 -0.0099
 4846TIP3    H114544   5.924   4.628   5.207  1.4819  0.0020  0.4136
 4846TIP3    H214545   5.993   4.712   5.103 -0.1033  1.4473  0.4839
 4847TIP3   OH214546   0.048   2.373   3.773 -0.2382  0.3461 -0.1911
 4847TIP3    H114547   0.137   2.363   3.807 -0.5867 -0.3733  0.5230
 4847TIP3    H214548   0.037   2.300   3.712 -0.4848  0.1804  0.0480
 4848TIP3   OH214549   3.546   0.679   3.947 -0.3783 -0.2328  0.8684
 4848TIP3    H114550   3.605   0.728   3.890 -0.2791  0.0599  1.2218
 4848TIP3    H214551   3.603   0.619   3.995 -0.6272 -1.6318 -0.4808
 4849TIP3   OH214552   4.410   3.743   1.167 -0.7905 -0.5854  0.1492
 4849TIP3    H114553   4.453   3.824   1.141 -0.3071 -0.8477  0.1142
 4849TIP3    H214554   4.326   3.771   1.205 -2.0530 -0.2233 -2.6456
 4850TIP3   OH214555   1.717   2.839   0.887 -0.4914 -0.2548  0.4591
 4850TIP3    H114556   1.771   2.790   0.948  0.0775  0.1303  0.2733
 4850TIP3    H214557   1.714   2.784   0.809 -1.6258 -0.9754  0.9902
 4851TIP3   OH214558   3.650   3.759   4.865 -0.2793  0.0519 -0.4225
 4851TIP3    H114559   3.593   3.712   4.926  1.0774  0.3087  1.0852
 4851TIP3    H214560   3.737   3.753   4.903  0.2382  2.1880 -1.1535
 4852TIP3   OH214561   2.760   4.829   2.590  0.3731 -0.9001 -0.5337
 4852TIP3    H114562   2.680   4.833   2.642  0.2421  0.0722 -0.7796
 4852TIP3    H214563   2.735   4.780   2.512 -0.5119  0.8525 -1.4298
 4853TIP3   OH214564   3.741   5.738   3.423 -0.0495  0.2516  0.0727
 4853TIP3    H114565   3.670   5.773   3.369 -1.6303  0.3084  2.0551
 4853TIP3    H214566   3.783   5.672   3.368 -1.9468 -0.1075 -1.0181
 4854TIP3   OH214567   0.149   5.963   4.450 -0.3757 -0.1121 -0.3429
 4854TIP3    H114568   0.093   5.923   4.383 -0.3831  0.1924 -0.5220
 4854TIP3    H214569   0.190   6.037   4.406  1.0755 -1.0069 -0.5446
 4855TIP3   OH214570   0.040   1.731   0.967  0.2475 -0.3033 -0.3140
 4855TIP3    H114571   0.086   1.660   0.923  0.9551 -0.2514  0.3276
 4855TIP3    H214572   0.091   1.748   1.046 -0.3229  0.4258 -0.0876
 4856TIP3   OH214573   0.134   1.299   2.872  0.1652  0.7589  0.0365
 4856TIP3    H114574   0.176   1.309   2.787  0.0015  0.9487 -0.0234
 4856TIP3    H214575   0.055   1.353   2.866  0.3688  1.1097  0.4503
 4857TIP3   OH214576   2.975   1.522   1.421 -0.0189  0.0141 -0.0940
 4857TIP3    H114577   3.034   1.529   1.347  0.4704  0.1700  0.3099
 4857TIP3    H214578   2.893   1.562   1.390  0.4979  1.0006 -0.2042
 4858TIP3   OH214579   5.064   1.244   2.124  0.0393 -0.1528  0.0401
 4858TIP3    H114580   5.086   1.288   2.042  0.4496  0.6182  0.5513
 4858TIP3    H214581   4.974   1.272   2.144 -0.0682 -0.3584 -0.1559
 4859TIP3   OH214582   1.816   4.134   4.976 -0.5032 -0.2673  0.1488
 4859TIP3    H114583   1.725   4.146   5.002 -0.9423 -0.4982 -1.1688
 4859TIP3    H214584   1.828   4.039   4.976 -0.0124 -0.2095  1.1004
 4860TIP3   OH214585   4.414   3.405   2.970 -0.4438  0.0936  0.8864
 4860TIP3    H114586   4.387   3.486   3.013 -1.8543  1.9464 -2.9789
 4860TIP3    H214587   4.332   3.359   2.952 -0.0807  0.0497 -0.8240
 4861TIP3   OH214588   0.491   1.540   1.498  0.7663 -0.5435  0.0980
 4861TIP3    H114589   0.568   1.592   1.520  1.4374 -1.0703 -0.9218
 4861TIP3    H214590   0.466   1.498   1.581 -0.3798  2.0598  1.1779
 4862TIP3   OH214591   5.198   1.819   2.588 -0.3840  0.0556  0.4502
 4862TIP3    H114592   5.262   1.760   2.627  0.5131  0.3999 -0.4455
 4862TIP3    H214593   5.198   1.896   2.646 -0.4646 -0.2156  0.8112
 4863TIP3   OH214594   6.231   5.835   3.963  0.5521  0.0722 -0.1283
 4863TIP3    H114595   6.268   5.812   3.877 -0.4499  0.8374 -0.7972
 4863TIP3    H214596   6.138   5.812   3.955  0.6021 -0.6321  1.0611
 4864TIP3   OH214597   3.449   0.840   4.737  0.0403  0.8133  0.1573
 4864TIP3    H114598   3.363   0.801   4.722  0.7242 -0.5801 -0.3013
 4864TIP3    H214599   3.437   0.933   4.719 -1.3545  0.6388  0.0817
 4865TIP3   OH214600   6.262   3.976   1.007  0.0218 -0.0266  0.3427
 4865TIP3    H114601   6.224   4.063   1.003  1.6536  0.7440  0.7991
 4865TIP3    H214602   6.306   3.965   0.923  0.3788 -0.1411  0.5431
 4866TIP3   OH214603   2.004   0.225   4.199 -0.0562  0.4139 -0.1350
 4866TIP3    H114604   1.992   0.140   4.241  5.0372 -1.1027 -1.0370
 4866TIP3    H214605   1.971   0.213   4.110 -0.7008 -0.1025  0.1619
 4867TIP3   OH214606   5.720   2.960   1.278  0.7702 -0.6300 -0.1693
 4867TIP3    H114607   5.783   2.898   1.242  0.6626 -0.6276 -0.3568
 4867TIP3    H214608   5.775   3.029   1.317  0.9117  0.4516 -2.1393
 4868TIP3   OH214609   5.089   4.731   0.813  0.3290  0.1776 -0.2566
 4868TIP3    H114610   5.085   4.681   0.731 -0.7496 -1.2172  0.5935
 4868TIP3    H214611   5.125   4.669   0.877 -1.5250  0.2624  0.9566
 4869TIP3   OH214612   2.106   1.878   1.190  0.0069  0.2458  0.5186
 4869TIP3    H114613   2.028   1.898   1.138  0.6874  1.7686  0.0009
 4869TIP3    H214614   2.138   1.795   1.154 -0.1423  0.7280 -0.8085
 4870TIP3   OH214615   3.991   1.780   2.619 -0.3298  0.1205  0.1009
 4870TIP3    H114616   3.922   1.721   2.648 -1.1309  0.8861 -0.2252
 4870TIP3    H214617   4.053   1.724   2.573 -1.2840 -0.4127 -0.5578
 4871TIP3   OH214618   5.733   4.538   4.114  0.1967  0.1636 -0.3326
 4871TIP3    H114619   5.789   4.606   4.079  0.6880 -0.2479 -0.3486
 4871TIP3    H214620   5.757   4.533   4.207 -0.1624  0.3280 -0.2286
 4872TIP3   OH214621   4.643   4.456   1.391 -0.4184  0.1325 -0.2407
 4872TIP3    H114622   4.720   4.423   1.345  0.2533  0.0145  0.9174
 4872TIP3    H214623   4.569   4.409   1.352  0.2197 -0.5984 -0.5800
 4873TIP3   OH214624   5.819   3.514   1.639 -0.2161 -0.1075 -0.2186
 4873TIP3    H114625   5.809   3.429   1.682 -0.8598  0.4194  0.7064
 4873TIP3    H214626   5.734   3.556   1.649  0.3613  1.0116  0.1307
 4874TIP3   OH214627   3.938   0.624   2.234  0.0923  0.1962 -0.1030
 4874TIP3    H114628   3.954   0.630   2.328  0.5125 -0.3906 -0.1311
 4874TIP3    H214629   3.845   0.645   2.224 -0.6992 -2.4655  0.7735
 4875TIP3   OH214630   4.137   5.740   1.507 -0.2216 -0.2974 -0.3188
 4875TIP3    H114631   4.181   5.703   1.583 -0.3263 -1.8225 -0.9617
 4875TIP3    H214632   4.119   5.831   1.531 -4.3478 -1.7159  3.3926
 4876TIP3   OH214633   6.240   2.007   4.229 -0.5535  0.4890 -0.5303
 4876TIP3    H114634   6.151   1.973   4.236 -1.0012  1.1346 -2.4154
 4876TIP3    H214635   6.285   1.971   4.305 -1.6604 -2.1926 -1.0194
 4877TIP3   OH214636   2.486   3.758   0.226  0.1071 -0.5906  0.4353
 4877TIP3    H114637   2.491   3.845   0.266  2.0424 -2.0535  3.9181
 4877TIP3    H214638   2.498   3.773   0.133  1.4782  2.8246  1.0191
 4878TIP3   OH214639   6.142   3.226   3.057  0.1560 -0.6152  0.3038
 4878TIP3    H114640   6.142   3.245   3.151 -1.2061  0.2920  0.1497
 4878TIP3    H214641   6.049   3.222   3.033  0.4727 -0.1134 -1.1401
 4879TIP3   OH214642   3.088   5.534   4.325  0.3462 -0.1424 -0.0450
 4879TIP3    H114643   3.036   5.486   4.390 -1.7964  1.6511 -0.3187
 4879TIP3    H214644   3.130   5.604   4.376 -1.3912  1.3083 -0.5085
 4880TIP3   OH214645   1.361   5.816   4.354 -0.2642 -0.3242 -0.5142
 4880TIP3    H114646   1.423   5.885   4.329  0.5446 -0.5658  0.7094
 4880TIP3    H214647   1.417   5.741   4.376 -0.8706 -0.1900  1.7580
 4881TIP3   OH214648   5.588   1.731   4.607 -0.0944  0.1156  0.2359
 4881TIP3    H114649   5.546   1.647   4.620 -0.7786  0.4648  0.3213
 4881TIP3    H214650   5.585   1.746   4.513 -1.3658  0.7357  0.3539
 4882TIP3   OH214651   1.310   5.410   0.271 -0.3738 -0.0568  0.6772
 4882TIP3    H114652   1.278   5.494   0.303 -0.7806 -0.3163  0.9526
 4882TIP3    H214653   1.293   5.349   0.343 -2.1168 -0.8381 -0.3319
 4883TIP3   OH214654   3.893   2.580   0.144 -0.1890  0.1070 -0.0874
 4883TIP3    H114655   3.811   2.532   0.157 -0.5458  1.0969  1.7967
 4883TIP3    H214656   3.874   2.667   0.179  0.6785  1.4179 -2.6084
 4884TIP3   OH214657   2.718   0.197   4.638  0.2445  0.2080  0.0879
 4884TIP3    H114658   2.655   0.269   4.634  1.3017  1.1120 -0.9440
 4884TIP3    H214659   2.683   0.132   4.577 -1.2594 -0.6605  1.7898
 4885TIP3   OH214660   5.420   4.534   3.903  0.0475  0.2883  0.0731
 4885TIP3    H114661   5.338   4.553   3.857 -0.4302  1.0625  1.1888
 4885TIP3    H214662   5.440   4.615   3.951  1.6822  0.2484 -0.4773
 4886TIP3   OH214663   1.914   3.082   3.618 -0.7260 -0.5120 -0.2064
 4886TIP3    H114664   1.923   2.992   3.586  1.5037 -0.3510 -0.2196
 4886TIP3    H214665   1.987   3.093   3.679 -0.3487  1.5693 -0.9537
 4887TIP3   OH214666   0.349   4.286   2.905 -0.1420  0.0588 -0.3136
 4887TIP3    H114667   0.428   4.241   2.937 -1.0958 -1.6513 -0.2441
 4887TIP3    H214668   0.283   4.217   2.899 -1.6178  1.4300 -0.4898
 4888TIP3   OH214669   5.033   0.398   4.785  0.2814  0.3422 -0.1623
 4888TIP3    H114670   4.939   0.410   4.796 -0.3268 -3.3291 -0.0251
 4888TIP3    H214671   5.045   0.390   4.690 -0.2972 -2.9177 -0.0757
 4889TIP3   OH214672   5.551   3.202   3.944  0.4227 -0.8591  0.3139
 4889TIP3    H114673   5.603   3.270   3.902 -0.6499  1.3615  2.3257
 4889TIP3    H214674   5.461   3.220   3.917  0.2220 -2.2710 -0.0581
 4890TIP3   OH214675   0.791   1.994   1.450  0.2008 -0.0998 -0.1366
 4890TIP3    H114676   0.696   2.002   1.440  0.1240  0.9878  1.1790
 4890TIP3    H214677   0.820   2.080   1.480  1.8442  0.0782 -2.0235
 4891TIP3   OH214678   6.258   5.278   1.420 -0.0933  0.5141 -0.6269
 4891TIP3    H114679   6.295   5.215   1.482 -0.7455  0.8842  0.1581
 4891TIP3    H214680   6.334   5.317   1.378  0.3202 -0.7606 -1.0976
 4892TIP3   OH214681   0.788   3.817   4.507  0.6297  0.0955  0.1337
 4892TIP3    H114682   0.702   3.841   4.544  1.0905  1.1097  0.5748
 4892TIP3    H214683   0.851   3.845   4.573  1.3129 -0.6488 -0.1875
 4893TIP3   OH214684   5.043   4.202   0.391 -0.1748 -0.0763 -0.8026
 4893TIP3    H114685   5.017   4.258   0.463 -0.5931  1.8005 -2.3255
 4893TIP3    H214686   5.077   4.123   0.433  1.9555  1.8890  1.5332
 4894TIP3   OH214687   0.763   4.362   4.218  0.4303 -0.3787 -0.2052
 4894TIP3    H114688   0.810   4.418   4.156 -0.1000  0.7975  0.4429
 4894TIP3    H214689   0.822   4.288   4.232  1.3194  0.2125 -0.7422
 4895TIP3   OH214690   1.279   4.839   0.402  0.5815 -0.0280  0.3572
 4895TIP3    H114691   1.222   4.804   0.471  0.3934 -1.6432 -0.5669
 4895TIP3    H214692   1.339   4.898   0.448 -1.3662  1.1958  1.4602
 4896TIP3   OH214693   2.636   5.357   1.189 -0.1013  0.4356 -0.5716
 4896TIP3    H114694   2.599   5.280   1.232 -0.3626 -0.6323 -2.6230
 4896TIP3    H214695   2.566   5.422   1.193  0.5096  1.0437  2.1815
 4897TIP3   OH214696   2.627   0.667   4.390  0.3800 -0.2785 -0.9795
 4897TIP3    H114697   2.688   0.729   4.350 -0.5535  0.3007 -1.5330
 4897TIP3    H214698   2.543   0.712   4.389 -0.5267 -1.8835 -2.2277
 4898TIP3   OH214699   5.376   4.065   1.571 -0.4373  0.1759  0.0043
 4898TIP3    H114700   5.318   4.116   1.514  0.3417  1.0347 -0.0409
 4898TIP3    H214701   5.464   4.095   1.549 -0.1026  0.5364  1.6402
 4899TIP3   OH214702   5.613   5.622   2.690 -0.1872  0.4797 -0.2956
 4899TIP3    H114703   5.642   5.545   2.740  0.3226  0.1421 -1.0866
 4899TIP3    H214704   5.671   5.692   2.719  0.6349  0.0992 -0.9687
 4900TIP3   OH214705   4.990   1.808   5.026  0.0788 -0.0012  0.0902
 4900TIP3    H114706   4.933   1.749   4.976 -1.1855  1.7010 -0.5835
 4900TIP3    H214707   4.930   1.871   5.066  1.4641  2.2255 -1.1264
 4901TIP3   OH214708   5.322   2.811   1.866  0.1257 -0.5886 -0.5929
 4901TIP3    H114709   5.334   2.906   1.861 -0.4514 -0.5033 -0.4757
 4901TIP3    H214710   5.232   2.797   1.836 -0.0697 -1.0218  0.1740
 4902TIP3   OH214711   3.034   5.086   4.773  0.1001 -0.3368  0.0765
 4902TIP3    H114712   3.003   5.175   4.752 -0.3273 -0.3438  0.6414
 4902TIP3    H214713   2.965   5.029   4.740  0.1838 -0.4377  0.0763
 4903TIP3   OH214714   3.680   0.830   0.786 -0.3510 -0.1422  0.6575
 4903TIP3    H114715   3.585   0.823   0.777 -0.5573 -0.0095  2.4122
 4903TIP3    H214716   3.706   0.885   0.712 -1.4380 -1.2648 -0.6255
 4904TIP3   OH214717   0.024   1.652   3.215  0.2808  0.3165  0.2639
 4904TIP3    H114718   0.086   1.643   3.143 -1.8072 -0.6797 -1.5026
 4904TIP3    H214719  -0.023   1.569   3.217 -1.4077  1.2402  1.1404
 4905TIP3   OH214720  -0.011   0.522   1.372 -0.0378 -0.0580 -0.7072
 4905TIP3    H114721   0.051   0.506   1.301 -1.0182  0.8730 -1.8094
 4905TIP3    H214722   0.030   0.589   1.426  0.2984 -0.0941 -0.9146
 4906TIP3   OH214723   2.570   0.706   2.321 -0.7603 -0.6859 -0.4032
 4906TIP3    H114724   2.645   0.701   2.262 -0.2031 -1.3320  0.3372
 4906TIP3    H214725   2.607   0.697   2.409 -1.6243 -0.2550  0.0274
 4907TIP3   OH214726   1.675   2.253   0.395 -0.2305  0.2571  0.2478
 4907TIP3    H114727   1.646   2.196   0.323 -0.8977  0.9824 -0.0779
 4907TIP3    H214728   1.594   2.275   0.441  0.2960 -1.1422  1.9729
 4908TIP3   OH214729   2.346   1.316   3.615  0.0570  0.5387 -0.8751
 4908TIP3    H114730   2.438   1.343   3.606  0.5680 -1.1992 -1.3707
 4908TIP3    H214731   2.298   1.373   3.555  0.5764  2.3887  0.3798
 4909TIP3   OH214732   4.371   3.426   1.210  0.4132  0.3944 -0.2630
 4909TIP3    H114733   4.463   3.433   1.183  0.4921 -1.7429 -0.7092
 4909TIP3    H214734   4.329   3.503   1.174  1.6031  0.3001 -1.9450
 4910TIP3   OH214735   3.315   2.477   0.252 -0.1141 -0.2149  0.6782
 4910TIP3    H114736   3.306   2.487   0.157  0.4516 -0.8241  0.5488
 4910TIP3    H214737   3.234   2.514   0.288 -0.0286  0.6572  0.0065
 4911TIP3   OH214738   3.226   4.476   3.978 -0.2597  0.3849 -0.2769
 4911TIP3    H114739   3.218   4.572   3.976  0.8752  0.4793 -1.7052
 4911TIP3    H214740   3.145   4.447   4.020 -0.6906  1.9645  0.0703
 4912TIP3   OH214741   1.182   2.591   0.107 -0.3951  0.3370 -0.2489
 4912TIP3    H114742   1.101   2.638   0.125 -0.1133  0.7324  0.0142
 4912TIP3    H214743   1.251   2.648   0.141 -0.0529 -0.3712  0.2909
 4913TIP3   OH214744   1.201   2.545   2.382  0.0856  0.3424  0.5079
 4913TIP3    H114745   1.246   2.494   2.314 -0.6414  0.5045 -0.1016
 4913TIP3    H214746   1.271   2.571   2.442  0.6608 -0.2397  0.1066
 4914TIP3   OH214747   4.754   1.881   1.731 -0.1854  0.6957 -0.4057
 4914TIP3    H114748   4.727   1.800   1.687 -0.1441  0.4292  0.0505
 4914TIP3    H214749   4.677   1.908   1.780  0.6160 -0.5947  1.6808
 4915TIP3   OH214750   3.839   0.405   0.370  0.0962  0.5699 -0.3831
 4915TIP3    H114751   3.813   0.323   0.329  0.4773  0.8834 -1.2937
 4915TIP3    H214752   3.924   0.426   0.330  0.4195  0.9694  0.4722
 4916TIP3   OH214753   5.237   1.003   1.730 -0.3900 -0.1247 -0.9032
 4916TIP3    H114754   5.167   1.065   1.749  0.5750  0.8225 -0.3801
 4916TIP3    H214755   5.232   0.939   1.801  0.1587  0.7314 -0.0688
 4917TIP3   OH214756   6.261   0.812   1.137  0.0817 -0.2232  0.2066
 4917TIP3    H114757   6.352   0.827   1.113  0.2403 -1.2326  0.1253
 4917TIP3    H214758   6.222   0.771   1.059 -0.6299  0.8195 -0.0143
 4918TIP3   OH214759   6.012   2.828   4.420  0.4846 -0.1444  0.0730
 4918TIP3    H114760   5.980   2.907   4.376  0.5436  0.1936  0.6305
 4918TIP3    H214761   5.947   2.810   4.488  0.8212 -0.1903  0.3831
 4919TIP3   OH214762   4.541   1.925   4.261  0.0734  0.4959 -0.2646
 4919TIP3    H114763   4.597   1.848   4.262  1.9128  1.6496 -2.9610
 4919TIP3    H214764   4.602   1.999   4.258 -1.6007  1.9162 -1.1973
 4920TIP3   OH214765   2.971   3.753   5.111 -0.0858 -0.2935 -0.1610
 4920TIP3    H114766   2.997   3.782   5.198  0.2096 -0.8891 -0.0465
 4920TIP3    H214767   3.038   3.690   5.085 -0.3311 -0.3456 -0.6957
 4921TIP3   OH214768   5.396   5.370   3.813 -0.2052 -0.4263 -0.0617
 4921TIP3    H114769   5.313   5.405   3.780  0.3371  0.7339 -0.2623
 4921TIP3    H214770   5.411   5.291   3.761  0.4418  1.1443 -2.4310
 4922TIP3   OH214771   2.576   2.166   4.705 -0.1408 -0.1452 -0.1557
 4922TIP3    H114772   2.657   2.195   4.664 -0.3027  0.7395  0.1254
 4922TIP3    H214773   2.508   2.220   4.665 -0.6610 -1.2166 -0.7379
 4923TIP3   OH214774   0.102   4.284   3.386 -0.4487  0.2078 -0.0843
 4923TIP3    H114775   0.032   4.346   3.365  1.6821  2.2564 -1.7417
 4923TIP3    H214776   0.153   4.277   3.305  1.2088 -1.2566  1.0080
 4924TIP3   OH214777   0.761   0.810   3.917  0.3524  0.3144 -0.4615
 4924TIP3    H114778   0.695   0.750   3.882  0.7362 -1.0887  1.1011
 4924TIP3    H214779   0.823   0.822   3.845  0.9160 -2.1843 -0.4586
 4925TIP3   OH214780   2.315   5.269   0.980 -0.4398  0.0464 -0.1601
 4925TIP3    H114781   2.271   5.249   1.063 -0.2912 -0.3767 -0.1786
 4925TIP3    H214782   2.347   5.358   0.991 -0.2494 -0.0783  0.3158
 4926TIP3   OH214783   0.089   0.355   3.258  0.2894  0.0837 -0.1229
 4926TIP3    H114784   0.041   0.276   3.282 -0.3085  0.2541 -0.7376
 4926TIP3    H214785   0.174   0.323   3.228  0.2616 -0.2786  0.1664
 4927TIP3   OH214786   3.387   4.020   4.039 -0.0567  0.1432 -0.2423
 4927TIP3    H114787   3.293   4.022   4.055  0.2571  1.0095  1.7276
 4927TIP3    H214788   3.424   4.084   4.100  1.8391 -0.3196 -0.8214
 4928TIP3   OH214789   2.302   4.861   3.811 -0.4940  0.9917 -0.5188
 4928TIP3    H114790   2.365   4.933   3.817 -0.1845  0.9389 -2.4837
 4928TIP3    H214791   2.274   4.847   3.901  2.2204  1.0849  0.4423
 4929TIP3   OH214792   3.712   1.463   3.511 -0.2234 -0.0148 -0.3468
 4929TIP3    H114793   3.644   1.449   3.445  0.0533  1.1850 -0.9177
 4929TIP3    H214794   3.744   1.552   3.493  0.4687 -0.0103  0.8502
 4930TIP3   OH214795   5.707   2.489   4.127 -0.2821  0.3760 -0.0866
 4930TIP3    H114796   5.706   2.399   4.093 -0.7032  0.0470  0.7450
 4930TIP3    H214797   5.794   2.522   4.107  0.2796 -0.6327  0.6175
 4931TIP3   OH214798   5.110   3.743   3.228 -0.2055  0.9009 -0.5195
 4931TIP3    H114799   5.015   3.729   3.234 -0.1320  0.4088 -0.4617
 4931TIP3    H214800   5.119   3.832   3.194 -0.6845  1.1415 -0.0320
 4932TIP3   OH214801   1.095   4.915   4.444  0.1989  0.0247  0.1510
 4932TIP3    H114802   1.118   4.918   4.537  0.7718  0.3696 -0.0012
 4932TIP3    H214803   1.000   4.928   4.443  0.4106  1.8044  0.5823
 4933TIP3   OH214804   1.890   2.878   2.062 -0.3457  0.2757 -0.0413
 4933TIP3    H114805   1.979   2.903   2.037 -0.5140 -0.8059 -1.8272
 4933TIP3    H214806   1.854   2.834   1.985 -1.4895 -1.7490  1.5318
 4934TIP3   OH214807   6.291   3.554   1.097  0.5907 -0.1510 -0.1655
 4934TIP3    H114808   6.301   3.649   1.104  0.2900 -0.1502  0.3066
 4934TIP3    H214809   6.260   3.526   1.183  0.0060 -0.5902 -0.5047
 4935TIP3   OH214810   1.502   5.688   4.879 -0.2201  0.3853 -0.2546
 4935TIP3    H114811   1.415   5.650   4.876 -1.8376  3.8192 -0.9475
 4935TIP3    H214812   1.518   5.705   4.972 -0.5776  0.4095 -0.1988
 4936TIP3   OH214813   4.422   5.641   2.748  0.0701 -0.0165  0.2082
 4936TIP3    H114814   4.453   5.551   2.735  0.6328 -0.2234  2.5450
 4936TIP3    H214815   4.327   5.634   2.737  0.2015 -0.6562 -0.7019
 4937TIP3   OH214816   2.479   4.395   1.970  0.1304  0.1472  0.3618
 4937TIP3    H114817   2.535   4.400   1.892 -3.0022  1.6614 -2.0490
 4937TIP3    H214818   2.433   4.312   1.961 -0.2295  0.3215  0.5758
 4938TIP3   OH214819   5.776   4.940   3.688 -0.1523 -0.5792 -0.4333
 4938TIP3    H114820   5.715   5.001   3.648  0.6505 -0.3584 -1.3660
 4938TIP3    H214821   5.857   4.950   3.638  0.7809 -0.5834  0.9955
 4939TIP3   OH214822   0.629   4.058   1.303 -0.8302 -0.2356  0.1629
 4939TIP3    H114823   0.608   3.966   1.321  1.5775 -0.6671  1.0489
 4939TIP3    H214824   0.646   4.060   1.208 -2.3065 -0.3488 -0.1358
 4940TIP3   OH214825   1.426   3.097   1.638 -0.5419 -0.4437  0.1129
 4940TIP3    H114826   1.372   3.019   1.639 -0.6241 -0.5310 -2.6836
 4940TIP3    H214827   1.516   3.064   1.650 -0.8204 -0.5250  2.4588
 4941TIP3   OH214828   3.628   4.913   0.328  0.0904  0.2767 -0.3866
 4941TIP3    H114829   3.659   4.858   0.400 -1.0400 -0.5923 -0.5370
 4941TIP3    H214830   3.666   4.999   0.346  0.1471 -0.0176  1.0396
 4942TIP3   OH214831   4.049   5.042   4.780 -0.4558 -0.1207 -0.4296
 4942TIP3    H114832   3.979   5.103   4.804 -3.0790 -2.3109 -1.9928
 4942TIP3    H214833   4.024   4.959   4.820 -0.5818 -1.7859 -3.6142
 4943TIP3   OH214834   0.326   4.195   0.696  0.1879 -0.0574  0.1613
 4943TIP3    H114835   0.383   4.213   0.621  0.3064 -4.3724 -1.0930
 4943TIP3    H214836   0.242   4.232   0.672  1.0502  1.5624 -0.5202
 4944TIP3   OH214837   4.629   3.862   4.316  0.4456  0.1755 -0.4051
 4944TIP3    H114838   4.704   3.826   4.363  0.4648 -0.7714 -1.1237
 4944TIP3    H214839   4.582   3.785   4.283 -0.4222  0.7717 -0.6135
 4945TIP3   OH214840   0.452   1.407   4.880 -0.7270  0.3833 -0.0955
 4945TIP3    H114841   0.491   1.485   4.842 -1.9006  1.7316  1.3296
 4945TIP3    H214842   0.503   1.391   4.960  0.5532 -1.3311 -1.1862
 4946TIP3   OH214843   3.949   2.353   3.078  0.1041  0.1885  0.2436
 4946TIP3    H114844   3.889   2.355   3.153 -0.7364  0.7107 -0.4214
 4946TIP3    H214845   3.963   2.260   3.061 -1.9730 -0.0139 -0.6906
 4947TIP3   OH214846   5.979   4.122   0.058  0.3553  0.5482  0.1671
 4947TIP3    H114847   5.942   4.211   0.057 -1.8103 -0.3070 -0.4420
 4947TIP3    H214848   5.919   4.072   0.113  1.6651 -0.5362  0.6720
 4948TIP3   OH214849   6.087   3.008   2.748  0.0151  0.3573 -0.0061
 4948TIP3    H114850   6.011   3.027   2.803  0.5551  1.1817  0.4726
 4948TIP3    H214851   6.059   2.935   2.692 -0.8507  0.1245  0.7204
 4949TIP3   OH214852   1.144   4.089   0.078  0.0521 -0.1490 -0.4943
 4949TIP3    H114853   1.152   4.011   0.023 -1.6938 -1.9014  1.6039
 4949TIP3    H214854   1.052   4.093   0.102  0.7226  0.5008  2.3232
 4950TIP3   OH214855   2.483   3.571   3.161  0.0613 -0.1448  0.2432
 4950TIP3    H114856   2.533   3.490   3.158 -1.3431 -1.1057  1.4292
 4950TIP3    H214857   2.442   3.578   3.074  0.5260 -0.4704 -0.0041
 4951TIP3   OH214858   4.368   1.696   0.280 -0.0942  0.5388 -0.2493
 4951TIP3    H114859   4.441   1.636   0.292 -0.8593 -0.3358  0.1956
 4951TIP3    H214860   4.363   1.745   0.362  0.7217  1.4652 -0.7247
 4952TIP3   OH214861   2.641   3.306   1.345 -0.5305 -0.8044 -0.3498
 4952TIP3    H114862   2.588   3.226   1.345  1.3332 -2.2808 -4.0837
 4952TIP3    H214863   2.725   3.278   1.383 -0.1294 -0.4499 -0.9514
 4953TIP3   OH214864   4.709   3.611   5.081  0.0033 -0.0057 -0.5681
 4953TIP3    H114865   4.680   3.562   5.157  0.4186 -0.5313 -0.7378
 4953TIP3    H214866   4.657   3.691   5.082 -0.1670 -0.1204  0.1248
 4954TIP3   OH214867   5.044   1.542   4.218  0.3133 -0.0701  0.2054
 4954TIP3    H114868   4.967   1.487   4.204 -0.0853  0.7490 -0.9675
 4954TIP3    H214869   5.072   1.568   4.130  3.2023 -1.9815  0.4073
 4955TIP3   OH214870   4.108   2.949   4.265 -0.5061  0.3773  0.6097
 4955TIP3    H114871   4.074   2.982   4.348 -0.3464  1.0797  0.3969
 4955TIP3    H214872   4.173   3.013   4.238 -1.5785  0.9391 -0.7826
 4956TIP3   OH214873   4.243   1.338   0.092 -0.2870  0.3690  0.2981
 4956TIP3    H114874   4.179   1.273   0.063 -0.7891  1.2162 -0.5367
 4956TIP3    H214875   4.194   1.420   0.099  0.5459  0.8868  0.3295
 4957TIP3   OH214876   1.533   3.662   1.512  0.4221 -0.4164 -0.1041
 4957TIP3    H114877   1.569   3.608   1.582 -1.1153 -1.0561  0.2143
 4957TIP3    H214878   1.549   3.752   1.541 -0.3033 -0.6708  1.1233
 4958TIP3   OH214879   1.519   4.797   0.835  0.1997  0.1287  0.2023
 4958TIP3    H114880   1.470   4.727   0.792  0.3521  1.0202 -1.5348
 4958TIP3    H214881   1.592   4.815   0.775  1.1432  0.6275  1.4445
 4959TIP3   OH214882   0.798   0.838   1.924  0.0044  0.3646 -0.2800
 4959TIP3    H114883   0.857   0.900   1.881  0.9647 -0.9664 -0.9587
 4959TIP3    H214884   0.710   0.870   1.903  0.4224  2.4766  0.8836
 4960TIP3   OH214885   1.908   0.556   4.992 -0.3379 -0.6849 -0.4475
 4960TIP3    H114886   1.925   0.467   5.023  2.2727  0.1430  0.8106
 4960TIP3    H214887   1.948   0.559   4.905 -1.4401 -1.0209 -0.9854
 4961TIP3   OH214888   2.684   1.529   4.270 -0.8654 -0.0420  0.2372
 4961TIP3    H114889   2.686   1.500   4.362  1.6813 -0.5203  0.1211
 4961TIP3    H214890   2.713   1.620   4.274 -0.7725 -0.0575 -0.0691
 4962TIP3   OH214891   6.127   4.910   3.858  0.4724 -0.1849  1.0013
 4962TIP3    H114892   6.175   4.896   3.776  1.9937  0.3996  1.7484
 4962TIP3    H214893   6.069   4.983   3.840  0.1266 -0.6377  0.1918
 4963TIP3   OH214894   3.694   3.289   4.384 -0.1328 -0.2101  0.0012
 4963TIP3    H114895   3.722   3.240   4.462 -1.7518 -0.6523  0.3326
 4963TIP3    H214896   3.769   3.283   4.325  1.0967  0.0321  1.4569
 4964TIP3   OH214897   1.826   0.491   0.403 -0.2897  0.2390 -0.1503
 4964TIP3    H114898   1.843   0.522   0.492 -1.8427 -0.4727  0.4243
 4964TIP3    H214899   1.826   0.571   0.350 -2.4534  1.0859  1.0182
 4965TIP3   OH214900   3.606   4.887   4.219 -0.0447  0.3181 -0.0337
 4965TIP3    H114901   3.513   4.888   4.241  0.0345  0.7730  0.3123
 4965TIP3    H214902   3.647   4.938   4.289  0.4090  0.4878 -0.4166
 4966TIP3   OH214903   1.157   3.742   1.724 -0.0094  0.8437 -0.5027
 4966TIP3    H114904   1.177   3.816   1.667  1.1182  1.1441  0.2666
 4966TIP3    H214905   1.190   3.768   1.810 -0.1121 -0.3217 -0.0956
 4967TIP3   OH214906   0.378   3.955   4.961 -0.3413 -0.2647 -0.3082
 4967TIP3    H114907   0.442   3.976   5.029  0.1266 -0.1215 -0.7910
 4967TIP3    H214908   0.427   3.907   4.895 -0.4093  1.0297 -1.3307
 4968TIP3   OH214909   4.369   5.623   3.879 -0.0015  0.3518  0.1581
 4968TIP3    H114910   4.443   5.569   3.909 -0.7850 -0.2363  1.0777
 4968TIP3    H214911   4.319   5.642   3.958 -0.6326  1.0874 -0.3960
 4969TIP3   OH214912   4.064   5.308   0.131 -0.1236  0.5500 -0.2773
 4969TIP3    H114913   4.150   5.329   0.094 -0.2384 -0.2879 -1.0564
 4969TIP3    H214914   4.058   5.213   0.125 -0.1058  0.3362  2.0342
 4970TIP3   OH214915   0.987   2.433   4.617 -0.1465  0.6181  0.1030
 4970TIP3    H114916   0.906   2.473   4.587 -1.1822 -1.0044  0.5803
 4970TIP3    H214917   1.021   2.386   4.540 -0.4158  0.1421  0.2722
 4971TIP3   OH214918   3.601   3.437   2.765 -1.1700  0.1836  0.0838
 4971TIP3    H114919   3.577   3.412   2.854 -0.1852  1.4709  0.7489
 4971TIP3    H214920   3.654   3.516   2.776 -1.2567  0.5253 -1.6683
 4972TIP3   OH214921   4.681   0.102   1.768  0.1269 -0.0914  0.5985
 4972TIP3    H114922   4.754   0.047   1.739  1.1200  0.1921  2.3742
 4972TIP3    H214923   4.623   0.108   1.692  1.4941 -1.0870 -0.5787
 4973TIP3   OH214924   5.623   0.239   4.318  0.7921 -0.8628 -0.1989
 4973TIP3    H114925   5.579   0.237   4.402 -1.6244  2.2159 -1.1945
 4973TIP3    H214926   5.554   0.259   4.255  2.8461 -0.8673 -2.6155
 4974TIP3   OH214927   3.902   1.746   5.067 -0.3528 -0.5473  0.2847
 4974TIP3    H114928   3.851   1.734   5.147 -2.9124 -1.0877 -1.3267
 4974TIP3    H214929   3.912   1.658   5.031  2.0427 -0.4932  0.6658
 4975TIP3   OH214930   1.532   0.319   2.035 -0.1255 -0.7483 -0.3129
 4975TIP3    H114931   1.607   0.269   2.003 -0.3928 -1.3114 -0.0627
 4975TIP3    H214932   1.564   0.363   2.114  0.3160  0.0552 -0.9112
 4976TIP3   OH214933   1.303   3.938   0.438 -0.1117  0.2917 -0.2835
 4976TIP3    H114934   1.266   4.022   0.464  0.0043  0.9317 -2.0111
 4976TIP3    H214935   1.266   3.875   0.499 -2.0824  1.2662 -0.4062
 4977TIP3   OH214936   5.285   4.714   1.618 -0.4962  0.0056  0.3906
 4977TIP3    H114937   5.229   4.765   1.559 -0.0205 -0.3371 -0.3773
 4977TIP3    H214938   5.367   4.763   1.621 -0.0358 -0.6873 -0.3543
 4978TIP3   OH214939   4.538   3.632   4.164  0.5128  0.3033 -0.1543
 4978TIP3    H114940   4.624   3.595   4.144  0.6487  0.8161 -0.5314
 4978TIP3    H214941   4.530   3.624   4.259  0.6456 -0.4577 -0.1987
 4979TIP3   OH214942   4.695   0.381   0.413 -0.1374 -0.3128 -0.2058
 4979TIP3    H114943   4.788   0.397   0.398 -0.2065  1.6215  1.0338
 4979TIP3    H214944   4.664   0.459   0.460 -2.0885 -1.4802  0.6082
 4980TIP3   OH214945   1.704   3.843   0.162  0.0302 -0.0069 -0.1188
 4980TIP3    H114946   1.712   3.909   0.092  0.3452 -0.5051 -0.5620
 4980TIP3    H214947   1.616   3.856   0.197  0.3826  1.2068  0.3652
 4981TIP3   OH214948   6.191   3.974   4.664 -0.3096 -0.5249  0.2308
 4981TIP3    H114949   6.158   3.968   4.574  0.0620 -4.0598  0.1864
 4981TIP3    H214950   6.282   3.945   4.658 -0.1656 -0.4518  1.7103
 4982TIP3   OH214951   5.540   0.456   4.802 -0.0698  0.2595 -0.2939
 4982TIP3    H114952   5.561   0.374   4.847 -1.0900 -0.0002 -0.2679
 4982TIP3    H214953   5.608   0.517   4.830 -1.1629  0.3831  2.3470
 4983TIP3   OH214954   3.061   4.282   1.917  0.1655 -0.0712  0.5776
 4983TIP3    H114955   3.027   4.260   1.830  1.8149  3.1017 -1.0299
 4983TIP3    H214956   2.985   4.275   1.974 -1.3123 -0.8774 -1.3652
 4984TIP3   OH214957   5.176   4.937   1.461 -0.1963 -0.4833  0.6647
 4984TIP3    H114958   5.156   5.029   1.479 -1.6092 -0.3669 -1.1732
 4984TIP3    H214959   5.259   4.940   1.414 -0.9729  0.0382 -0.7351
 4985TIP3   OH214960   5.774   3.198   2.711  0.0643  0.3377 -0.0811
 4985TIP3    H114961   5.696   3.232   2.667  0.7706  0.7969 -1.0258
 4985TIP3    H214962   5.778   3.106   2.684 -0.2030  0.2853  0.0529
 4986TIP3   OH214963   5.774   0.851   2.212 -0.2225 -0.4486 -0.4531
 4986TIP3    H114964   5.730   0.932   2.186 -0.3983 -0.9144 -1.6721
 4986TIP3    H214965   5.864   0.861   2.182  0.4298  0.2627  1.5346
 4987TIP3   OH214966   0.952   4.568   4.538 -0.0405  0.1350  0.4064
 4987TIP3    H114967   0.960   4.479   4.574 -1.9578 -0.3560 -0.2668
 4987TIP3    H214968   0.932   4.623   4.614 -0.0401 -0.2141  0.6621
 4988TIP3   OH214969   4.158   3.408   1.590  0.0609 -0.0542 -0.1229
 4988TIP3    H114970   4.219   3.464   1.637 -0.0456 -1.3217  1.6226
 4988TIP3    H214971   4.211   3.365   1.523  0.6255  0.3891  0.0282
 4989TIP3   OH214972   4.064   4.481   0.082  0.0525  0.6481 -0.4883
 4989TIP3    H114973   4.098   4.447   0.164 -0.1898 -0.8932 -1.0003
 4989TIP3    H214974   4.022   4.564   0.105  0.6511  0.6134  0.7948
 4990TIP3   OH214975   3.110   5.556   1.893 -0.0335  0.2768 -0.1103
 4990TIP3    H114976   3.036   5.523   1.843 -0.3740  0.8848 -0.0195
 4990TIP3    H214977   3.133   5.484   1.952 -2.2945  0.9595  1.7794
 4991TIP3   OH214978   4.374   2.653   4.110 -0.4363  0.4936 -0.1677
 4991TIP3    H114979   4.426   2.714   4.058  1.0205 -0.5455 -0.0056
 4991TIP3    H214980   4.392   2.677   4.201  0.5084 -0.4458 -0.0967
 4992TIP3   OH214981   2.674   5.478   3.505 -0.2813 -0.2661 -0.7558
 4992TIP3    H114982   2.659   5.466   3.412 -1.0796 -1.9214 -0.4491
 4992TIP3    H214983   2.630   5.561   3.526 -0.6676 -0.2206 -1.7121
 4993TIP3   OH214984   4.769   1.388   4.361  0.0921 -0.2532 -0.5153
 4993TIP3    H114985   4.708   1.375   4.289  0.2386 -2.0856 -0.3721
 4993TIP3    H214986   4.804   1.300   4.378  0.1480  0.1524  1.7090
 4994TIP3   OH214987   3.090   5.000   3.337  0.0321 -0.1595 -0.1972
 4994TIP3    H114988   3.046   4.915   3.344  0.4205 -0.2976  0.7224
 4994TIP3    H214989   3.023   5.064   3.360 -0.0051 -0.2888  0.0584
 4995TIP3   OH214990   3.548   5.096   1.746 -0.2422  0.6509  0.2405
 4995TIP3    H114991   3.541   5.160   1.675  1.5506 -2.1867 -2.7394
 4995TIP3    H214992   3.628   5.121   1.792  1.1479 -0.0295 -1.6753
 4996TIP3   OH214993   3.130   4.567   3.077  0.3887 -0.1633  0.6168
 4996TIP3    H114994   3.225   4.559   3.078  0.4219 -0.1748 -0.8384
 4996TIP3    H214995   3.099   4.480   3.051  0.0840  0.3277 -0.7279
 4997TIP3   OH214996   5.621   5.814   4.957 -0.7181  0.5400 -0.0235
 4997TIP3    H114997   5.650   5.725   4.941 -0.5648  0.7946 -1.3525
 4997TIP3    H214998   5.666   5.842   5.036 -0.0577 -0.2479 -0.1214
 4998TIP3   OH214999   0.786   3.035   3.618 -0.3724 -0.2084  0.1955
 4998TIP3    H115000   0.726   3.064   3.687  0.3131 -2.2230  1.7361
 4998TIP3    H215001   0.751   2.950   3.591  1.0561 -0.8255  0.2191
 4999TIP3   OH215002   3.564   2.302   3.598  0.5774  0.0671 -0.1068
 4999TIP3    H115003   3.622   2.251   3.542 -1.0064 -1.5858 -0.3240
 4999TIP3    H215004   3.491   2.244   3.617 -1.9015  2.5992 -1.2368
 5000TIP3   OH215005   2.607   1.937   4.074 -0.5039 -0.1929  0.7428
 5000TIP3    H115006   2.540   2.000   4.048 -0.4806 -0.1690  0.7415
 5000TIP3    H215007   2.561   1.852   4.072 -0.6911 -0.1114  1.2972
 5001TIP3   OH215008   3.939   0.721   4.604  0.3170 -0.0256 -0.7844
 5001TIP3    H115009   3.960   0.631   4.630  0.4065  0.1646 -0.1895
 5001TIP3    H215010   3.848   0.717   4.574 -0.5999  0.1622  1.7338
 5002TIP3   OH215011   1.391   5.219   1.874  0.1731 -0.3419  0.2074
 5002TIP3    H115012   1.417   5.165   1.800 -0.4980 -2.1395  1.2396
 5002TIP3    H215013   1.433   5.179   1.950  0.2990  1.0651  0.9312
 5003TIP3   OH215014   5.079   2.955   1.780  0.2338 -0.0862 -0.2492
 5003TIP3    H115015   5.088   2.989   1.869  0.3430  0.8283 -0.6003
 5003TIP3    H215016   5.163   2.975   1.738 -0.1374  0.2824 -0.8247
 5004TIP3   OH215017   5.741   2.545   0.224 -0.4151 -0.0020 -0.9150
 5004TIP3    H115018   5.726   2.614   0.289  1.0296 -0.5035 -0.0019
 5004TIP3    H215019   5.672   2.481   0.240 -0.0460 -0.1355  0.1507
 5005TIP3   OH215020   1.082   3.119   4.226  0.7826  0.4756  0.1681
 5005TIP3    H115021   1.141   3.044   4.233  0.8689  0.6997  3.0509
 5005TIP3    H215022   1.094   3.151   4.137  0.8585 -2.8134 -1.1366
 5006TIP3   OH215023   0.273   4.556   3.097 -0.4889 -0.7240  0.1414
 5006TIP3    H115024   0.289   4.605   3.178 -1.0538 -2.4326  1.3508
 5006TIP3    H215025   0.187   4.586   3.068 -1.2677 -1.6104  1.4009
 5007TIP3   OH215026   3.721   0.118   3.963 -0.6598 -0.6214  0.3012
 5007TIP3    H115027   3.710   0.199   3.913  0.1683 -1.1341 -0.7749
 5007TIP3    H215028   3.808   0.087   3.938 -0.9170 -1.7716  0.7882
 5008TIP3   OH215029   0.545   4.187   3.096  0.7103  0.0157 -0.8448
 5008TIP3    H115030   0.604   4.237   3.152  1.3393 -0.0066 -1.4741
 5008TIP3    H215031   0.570   4.096   3.108  0.8413  0.0096 -1.1498
 5009TIP3   OH215032   4.942   0.595   3.646 -0.7319 -0.2179 -0.4048
 5009TIP3    H115033   5.017   0.615   3.702  0.8046 -1.9639 -1.7031
 5009TIP3    H215034   4.940   0.667   3.583 -0.2411 -0.0614 -0.2514
 5010TIP3   OH215035   4.705   0.395   1.892 -0.1826  0.4863  0.0296
 5010TIP3    H115036   4.645   0.332   1.852 -2.2621  1.8960  0.7703
 5010TIP3    H215037   4.723   0.359   1.979 -0.2008  0.1944 -0.0879
 5011TIP3   OH215038   1.345   1.947   4.051  0.6632 -0.3398  0.1247
 5011TIP3    H115039   1.423   1.895   4.030  1.2323  0.6268 -0.2255
 5011TIP3    H215040   1.379   2.019   4.104  0.1739  0.6577 -0.8764
 5012TIP3   OH215041   0.789   4.382   4.943 -0.0790 -0.3357 -0.2700
 5012TIP3    H115042   0.749   4.296   4.929  0.4133 -0.4914 -0.7712
 5012TIP3    H215043   0.848   4.369   5.017 -0.4944 -0.2599  0.0769
 5013TIP3   OH215044   1.268   2.279   2.762  0.3697 -0.1496  0.0825
 5013TIP3    H115045   1.306   2.297   2.848 -1.0086 -2.8208  1.3603
 5013TIP3    H215046   1.224   2.361   2.738  2.2209  1.2207  1.0406
 5014TIP3   OH215047   3.956   3.264   5.177 -0.1992  0.2098 -0.7134
 5014TIP3    H115048   4.013   3.189   5.161  0.4799  0.8537 -1.3848
 5014TIP3    H215049   3.868   3.226   5.182  0.2640 -0.8009  0.3771
 5015TIP3   OH215050   2.774   3.104   4.567 -0.5288 -0.5074 -0.1205
 5015TIP3    H115051   2.842   3.144   4.512 -0.4595  1.7797  1.4909
 5015TIP3    H215052   2.692   3.121   4.520 -0.5551  2.1465  0.7402
 5016TIP3   OH215053   6.200   3.508   0.679 -0.5699 -0.1690  0.8874
 5016TIP3    H115054   6.157   3.446   0.621  1.4276 -1.4338  0.6730
 5016TIP3    H215055   6.238   3.454   0.748  1.0835  0.7982  0.7910
 5017TIP3   OH215056   4.449   3.574   4.892 -0.4485  0.0196  0.5152
 5017TIP3    H115057   4.513   3.553   4.825 -1.3210 -0.8792 -0.0669
 5017TIP3    H215058   4.500   3.582   4.973  0.6875  1.6431 -0.3133
 5018TIP3   OH215059   4.457   1.872   4.968  0.3425  0.3651 -0.0380
 5018TIP3    H115060   4.478   1.857   4.876 -0.5632 -0.3113 -0.1476
 5018TIP3    H215061   4.364   1.895   4.968  0.3382  0.3625  0.7004
 5019TIP3   OH215062   5.254   1.834   0.397 -0.0395  0.5704  0.4469
 5019TIP3    H115063   5.296   1.876   0.322 -0.6772 -0.4667 -0.5223
 5019TIP3    H215064   5.320   1.837   0.466  1.5084 -0.6210 -0.9037
 5020TIP3   OH215065   5.753   4.064   4.678  0.2447 -0.5190  0.1565
 5020TIP3    H115066   5.723   4.152   4.657 -1.2699 -0.5866  1.7848
 5020TIP3    H215067   5.825   4.048   4.617 -2.7830 -0.2096 -3.8949
 5021TIP3   OH215068   6.169   3.261   3.820 -0.2186 -0.1309 -0.0944
 5021TIP3    H115069   6.245   3.317   3.839 -0.5242 -0.1808  1.4093
 5021TIP3    H215070   6.207   3.174   3.804  0.0934  0.0088 -0.1229
 5022TIP3   OH215071   3.392   0.978   2.542  0.6241 -0.1464 -0.8485
 5022TIP3    H115072   3.357   0.959   2.629 -0.4263  0.8359 -1.0346
 5022TIP3    H215073   3.339   1.051   2.510  2.7874  1.3417 -1.2166
 5023TIP3   OH215074   1.381   4.913   4.123 -0.1312 -0.1338  0.5570
 5023TIP3    H115075   1.351   4.987   4.176  0.9691  0.2361  0.6785
 5023TIP3    H215076   1.305   4.889   4.070 -0.1952  1.8141 -0.3299
 5024TIP3   OH215077   2.956   2.956   3.717  0.4840 -0.3512 -0.1469
 5024TIP3    H115078   2.918   3.041   3.696 -1.7676 -0.9963  0.9413
 5024TIP3    H215079   3.046   2.960   3.684  0.2374  2.1909 -0.6775
 5025TIP3   OH215080   4.651   2.158   2.545 -0.9875 -0.0413  0.0845
 5025TIP3    H115081   4.637   2.149   2.451  1.2742  1.2274 -0.4486
 5025TIP3    H215082   4.746   2.154   2.556 -1.1704  0.3054  2.2628
 5026TIP3   OH215083   1.974   5.215   3.020  0.5842  0.4334  0.0997
 5026TIP3    H115084   2.017   5.296   2.993  0.7106 -0.7306 -3.8127
 5026TIP3    H215085   1.895   5.211   2.967  0.1479 -1.6096  0.8102
 5027TIP3   OH215086   1.986   4.453   2.136 -0.0284 -0.4236  0.5849
 5027TIP3    H115087   2.007   4.433   2.227  1.5734  0.6924  0.5153
 5027TIP3    H215088   1.970   4.548   2.135  1.0671 -0.2196 -0.4483
 5028TIP3   OH215089   2.748   0.073   2.056 -0.1067  0.1218  0.5928
 5028TIP3    H115090   2.763   0.161   2.023  0.7632 -0.7800 -1.6410
 5028TIP3    H215091   2.825   0.023   2.027 -0.2005 -1.2281  2.4665
 5029TIP3   OH215092   3.148   1.010   5.135 -0.0591  0.1498  0.1692
 5029TIP3    H115093   3.109   1.096   5.123  1.7300  1.0010  0.1918
 5029TIP3    H215094   3.141   0.968   5.050 -1.2799  0.1479  0.2547
 5030TIP3   OH215095   5.754   3.471   2.425  0.4533  0.1151 -0.5698
 5030TIP3    H115096   5.808   3.519   2.487  2.7910 -0.5066 -1.9954
 5030TIP3    H215097   5.671   3.518   2.423  0.9023  1.1031  1.7369
 5031TIP3   OH215098   0.658   2.025   0.457  0.2022 -0.1138 -0.3274
 5031TIP3    H115099   0.734   2.080   0.438  0.4677 -0.6254 -0.7803
 5031TIP3    H215100   0.672   1.946   0.405  0.5841 -1.2525  1.4140
 5032TIP3   OH215101   1.425   4.756   0.197  0.0457 -0.1401 -0.8543
 5032TIP3    H115102   1.386   4.732   0.281  0.8207 -1.6258 -0.8839
 5032TIP3    H215103   1.384   4.696   0.133  2.1184 -1.6065 -0.9136
 5033TIP3   OH215104   4.072   1.647   0.388 -0.0831 -0.6578 -0.4597
 5033TIP3    H115105   4.062   1.552   0.390  2.8025 -1.0481  2.1353
 5033TIP3    H215106   4.114   1.665   0.304 -1.8282 -1.4393 -1.5539
 5034TIP3   OH215107   0.044   3.825   2.872  0.2381  0.2093  0.4637
 5034TIP3    H115108  -0.038   3.793   2.833 -0.0956 -0.0406  1.3354
 5034TIP3    H215109   0.113   3.794   2.814 -0.3016  0.7028 -0.4671
 5035TIP3   OH215110   1.881   2.687   5.152  0.5789 -0.3629  0.0769
 5035TIP3    H115111   1.843   2.680   5.240  1.2721 -0.8003  0.3480
 5035TIP3    H215112   1.887   2.597   5.120  0.3479 -0.2069 -0.4136
 5036TIP3   OH215113   2.289   1.316   0.105  0.1759  0.0234 -0.2808
 5036TIP3    H115114   2.385   1.318   0.102  0.2845 -0.8923  1.6330
 5036TIP3    H215115   2.267   1.223   0.098 -0.3158 -0.2699  3.4024
 5037TIP3   OH215116   0.900   3.330   1.727  0.5608  0.1100 -0.1592
 5037TIP3    H115117   0.910   3.426   1.723  0.8874  0.2075  1.7555
 5037TIP3    H215118   0.898   3.311   1.821 -1.2367 -1.6152 -0.4997
 5038TIP3   OH215119   3.959   5.362   3.028  0.3849 -0.1460  0.4938
 5038TIP3    H115120   3.923   5.285   3.071 -0.9849  0.5365  0.6128
 5038TIP3    H215121   3.886   5.399   2.979  1.0601  0.9738  0.2901
 5039TIP3   OH215122   1.351   5.748   1.591 -0.4778  0.1331 -0.0240
 5039TIP3    H115123   1.343   5.659   1.627 -2.0840  0.2066 -0.1166
 5039TIP3    H215124   1.395   5.735   1.507 -1.6607 -0.7567 -0.5488
 5040TIP3   OH215125   3.428   3.216   1.468  0.1488 -0.0286 -0.9233
 5040TIP3    H115126   3.348   3.257   1.502  1.7647  1.2270  1.5945
 5040TIP3    H215127   3.435   3.134   1.518  1.7413  1.1157  0.8706
 5041TIP3   OH215128   3.190   5.926   2.343  0.5656 -0.1242 -0.3280
 5041TIP3    H115129   3.246   6.001   2.364 -0.3283  0.8355 -1.2437
 5041TIP3    H215130   3.135   5.957   2.271  1.5615 -2.3321 -2.1311
 5042TIP3   OH215131   2.804   5.784   5.104 -0.0999 -0.2700 -0.2216
 5042TIP3    H115132   2.756   5.818   5.180  0.3067 -0.9408  0.3427
 5042TIP3    H215133   2.886   5.833   5.104  0.1543 -0.6880  0.1320
 5043TIP3   OH215134   5.318   3.539   3.336 -0.2012  0.2030  0.3258
 5043TIP3    H115135   5.252   3.606   3.318 -0.4909  0.0588  0.8292
 5043TIP3    H215136   5.303   3.471   3.270 -0.5507  0.1721  0.4381
 5044TIP3   OH215137   4.068   1.464   1.462  0.2609 -0.1502  0.1429
 5044TIP3    H115138   4.086   1.376   1.429  1.9436  0.0068  0.5382
 5044TIP3    H215139   3.989   1.491   1.415  1.3802 -0.7172 -2.2526
 5045TIP3   OH215140   5.869   1.714   4.127 -0.4172  1.2844  0.0942
 5045TIP3    H115141   5.805   1.717   4.056  0.5625  0.7397 -0.8310
 5045TIP3    H215142   5.836   1.778   4.191 -2.0181  0.8240 -0.2251
 5046TIP3   OH215143   1.761   4.625   1.347 -0.1221  0.4858  0.4299
 5046TIP3    H115144   1.694   4.612   1.280  1.4210  0.9845 -1.3010
 5046TIP3    H215145   1.784   4.537   1.375 -0.6138  0.2472  0.1033
 5047TIP3   OH215146   4.534   5.468   3.518 -0.4996 -0.5079  0.1651
 5047TIP3    H115147   4.457   5.511   3.555 -0.6600 -0.1711 -0.5346
 5047TIP3    H215148   4.515   5.463   3.424  1.0889  1.2390 -0.3065
 5048TIP3   OH215149   4.940   4.096   4.505  0.1852 -0.3596 -0.3715
 5048TIP3    H115150   4.990   4.042   4.444  0.6072  0.7941 -1.0600
 5048TIP3    H215151   4.903   4.166   4.451 -1.1940 -0.5010  0.3342
 5049TIP3   OH215152   5.342   2.395   3.854 -0.3734  0.3126 -0.1996
 5049TIP3    H115153   5.409   2.457   3.826 -0.4677  1.4257  1.7863
 5049TIP3    H215154   5.389   2.312   3.867  0.3006  0.6630 -0.3784
 5050TIP3   OH215155   6.083   2.820   2.078  0.5466  0.0697 -0.0636
 5050TIP3    H115156   6.016   2.887   2.088  0.1457 -0.3849  0.3714
 5050TIP3    H215157   6.155   2.864   2.033  0.2263  0.7428  0.0734
 5051TIP3   OH215158   4.247   4.592   2.528  0.8988  0.2229 -0.8880
 5051TIP3    H115159   4.327   4.539   2.521  0.7680  0.1160 -1.6976
 5051TIP3    H215160   4.211   4.570   2.614  2.5396  1.4238  0.1426
 5052TIP3   OH215161   2.733   0.675   2.575  0.2851 -0.2583 -0.5396
 5052TIP3    H115162   2.714   0.590   2.615  1.4046 -0.2805  0.0034
 5052TIP3    H215163   2.763   0.729   2.648  1.5753 -0.0474 -1.1880
 5053TIP3   OH215164   0.213   3.327   4.600 -0.1316  0.2593  0.8140
 5053TIP3    H115165   0.144   3.270   4.633  0.0355  0.3922  1.4053
 5053TIP3    H215166   0.290   3.304   4.651  0.7419 -1.1187 -1.0323
 5054TIP3   OH215167   2.648   3.829   3.510  0.5085 -0.1233  0.8375
 5054TIP3    H115168   2.574   3.780   3.546  0.9242 -0.1556  1.6686
 5054TIP3    H215169   2.645   3.812   3.416  0.8176 -2.0161  1.1280
 5055TIP3   OH215170   4.846   5.947   2.852  0.1345  0.0913  0.3702
 5055TIP3    H115171   4.932   5.907   2.864  0.4324 -0.3263 -2.3711
 5055TIP3    H215172   4.786   5.874   2.841 -0.0656  0.3623 -0.4371
 5056TIP3   OH215173   1.897   5.459   2.902  0.1946  0.0753  0.2323
 5056TIP3    H115174   1.910   5.553   2.888 -1.1740  0.1184 -0.9397
 5056TIP3    H215175   1.803   5.450   2.915  0.2684 -1.1801 -0.0215
 5057TIP3   OH215176   3.279   2.997   1.969 -0.1303  0.0948 -0.0214
 5057TIP3    H115177   3.353   3.030   1.916  0.6304 -0.0341  0.9352
 5057TIP3    H215178   3.320   2.948   2.040 -1.1644 -0.3136  0.3144
 5058TIP3   OH215179   1.939   0.959   0.621  0.7967 -0.0982  0.0919
 5058TIP3    H115180   2.034   0.975   0.617  0.4058  2.5185 -0.7521
 5058TIP3    H215181   1.909   0.968   0.531 -0.1856 -1.5998  0.2486
 5059TIP3   OH215182   1.671   5.384   0.658 -0.2865 -0.3164 -0.3268
 5059TIP3    H115183   1.735   5.453   0.640 -1.5872  0.1696 -3.7130
 5059TIP3    H215184   1.596   5.430   0.696  0.1761 -0.4444  0.7773
 5060TIP3   OH215185   3.505   4.913   4.638 -0.0014 -0.3709  0.8043
 5060TIP3    H115186   3.417   4.939   4.666 -0.0654  0.0079  0.2769
 5060TIP3    H215187   3.492   4.831   4.590 -0.0274 -0.4632  0.9680
 5061TIP3   OH215188   3.988   1.134   1.594 -0.2692 -0.0829  0.2816
 5061TIP3    H115189   4.052   1.149   1.664 -0.6817  0.4202  0.5587
 5061TIP3    H215190   3.910   1.180   1.624 -0.5466 -0.1309 -0.3711
 5062TIP3   OH215191   5.005   1.827   3.688 -0.3500 -0.3741 -0.4453
 5062TIP3    H115192   4.922   1.868   3.664 -1.1336  0.1731  2.7425
 5062TIP3    H215193   4.985   1.734   3.692 -0.4963 -0.3601 -0.8207
 5063TIP3   OH215194   3.504   3.934   1.918  0.1427  0.8748 -0.4829
 5063TIP3    H115195   3.413   3.927   1.948 -0.2946  2.7972 -1.2459
 5063TIP3    H215196   3.541   4.007   1.967  0.7379  1.2207 -1.4057
 5064TIP3   OH215197   2.505   5.020   4.736 -0.6881  0.2514  0.2300
 5064TIP3    H115198   2.575   5.026   4.802 -0.8929 -0.5442  0.5304
 5064TIP3    H215199   2.424   5.035   4.785 -0.7876  0.3235  0.0414
 5065TIP3   OH215200   3.574   4.724   0.957  0.2771 -0.0416 -0.6470
 5065TIP3    H115201   3.648   4.690   0.906  0.4468 -1.0350  0.2204
 5065TIP3    H215202   3.510   4.652   0.957  0.3509 -0.1413  0.6508
 5066TIP3   OH215203   2.624   0.205   3.880 -0.1442 -0.0336  0.0925
 5066TIP3    H115204   2.579   0.258   3.815  0.9170 -0.1890 -0.7869
 5066TIP3    H215205   2.671   0.268   3.935 -0.1246  0.0284  0.0044
 5067TIP3   OH215206   0.386   5.126   2.513 -0.0518 -0.2694  0.7753
 5067TIP3    H115207   0.372   5.034   2.534  0.5951 -0.0118  2.5119
 5067TIP3    H215208   0.478   5.131   2.488 -0.1745 -0.1366  0.3372
 5068TIP3   OH215209   4.526   0.125   2.764 -0.1018 -1.0213  0.6245
 5068TIP3    H115210   4.569   0.202   2.726  0.3820 -0.9852  1.2273
 5068TIP3    H215211   4.577   0.106   2.843 -1.9994 -0.1524  2.1222
 5069TIP3   OH215212   1.447   3.895   0.217  0.7647 -0.0128  0.6087
 5069TIP3    H115213   1.386   3.932   0.280  0.6114  0.1072  0.3878
 5069TIP3    H215214   1.418   3.805   0.205  1.2249 -0.2561  1.2572
 5070TIP3   OH215215   5.930   4.785   0.326 -0.0928 -0.4647  0.1163
 5070TIP3    H115216   6.022   4.764   0.308  0.2171  1.9176 -1.6043
 5070TIP3    H215217   5.933   4.866   0.376 -1.2076  0.8036 -1.7488
 5071TIP3   OH215218   6.079   4.098   4.093 -0.2204 -0.5020 -0.4500
 5071TIP3    H115219   6.047   4.188   4.088  0.2860 -0.3807 -2.3909
 5071TIP3    H215220   6.055   4.059   4.009 -1.3609 -2.5429  0.7294
 5072TIP3   OH215221   2.349   4.368   4.148  0.4877  0.0978 -0.2530
 5072TIP3    H115222   2.444   4.356   4.145  0.4084 -0.6667  0.0080
 5072TIP3    H215223   2.326   4.402   4.061  0.7809 -1.4460 -0.9634
 5073TIP3   OH215224   2.238   5.155   0.290 -0.0908 -0.6667  0.2068
 5073TIP3    H115225   2.270   5.066   0.298  1.8969 -0.1090 -0.7363
 5073TIP3    H215226   2.283   5.203   0.359  0.1362 -0.1085 -0.3143
 5074TIP3   OH215227   0.778   5.255   4.590 -0.0116 -0.3530 -0.8880
 5074TIP3    H115228   0.728   5.263   4.509 -0.7999  0.3031 -0.3587
 5074TIP3    H215229   0.766   5.340   4.634 -1.8502 -1.5627  1.1693
 5075TIP3   OH215230   5.411   2.071   1.455 -0.3059 -0.0067 -0.2938
 5075TIP3    H115231   5.394   1.987   1.498 -0.5801  0.3443  0.3018
 5075TIP3    H215232   5.344   2.130   1.490  0.7910  0.8546  0.4565
 5076TIP3   OH215233   1.390   0.675   3.503 -0.0150 -0.2942 -0.1324
 5076TIP3    H115234   1.411   0.678   3.410  1.8389 -0.8847  0.2317
 5076TIP3    H215235   1.309   0.624   3.508 -0.3009 -0.0012 -1.4224
 5077TIP3   OH215236   5.805   3.175   1.477  0.0415 -0.2596  0.3654
 5077TIP3    H115237   5.900   3.186   1.476  0.3847 -2.5711  1.4993
 5077TIP3    H215238   5.781   3.175   1.570 -0.8897 -0.9275  0.1445
 5078TIP3   OH215239   0.171   2.309   1.149  0.8182 -0.1060 -0.5021
 5078TIP3    H115240   0.218   2.226   1.148  0.4498 -0.3231 -1.8188
 5078TIP3    H215241   0.230   2.371   1.107  1.8970  0.8158  2.1542
 5079TIP3   OH215242   0.447   1.978   3.966  0.6757  0.1254  0.8804
 5079TIP3    H115243   0.388   1.935   4.027  0.2341  1.2700  1.2890
 5079TIP3    H215244   0.391   2.040   3.918  1.5608  1.4349  1.4790
 5080TIP3   OH215245   4.680   3.383   2.874 -0.2343 -0.4209 -0.6130
 5080TIP3    H115246   4.592   3.373   2.910 -0.9420  1.6495 -1.5990
 5080TIP3    H215247   4.724   3.300   2.894 -1.0024 -0.0227  3.5832
 5081TIP3   OH215248   2.152   1.408   2.350  0.5141 -0.2486 -0.1733
 5081TIP3    H115249   2.181   1.430   2.261  1.5399  0.7226  0.3711
 5081TIP3    H215250   2.057   1.422   2.349  0.2841 -1.6146 -1.4755
 5082TIP3   OH215251   1.859   4.508   1.775 -0.4244  0.3115  0.2091
 5082TIP3    H115252   1.928   4.454   1.736 -0.1645 -0.6697  1.9541
 5082TIP3    H215253   1.838   4.466   1.858 -1.5091  1.8894  0.8005
 5083TIP3   OH215254   4.127   0.963   2.211  0.4990  0.2636 -0.3149
 5083TIP3    H115255   4.116   0.879   2.166 -0.6778  0.9266 -1.3433
 5083TIP3    H215256   4.123   0.942   2.304 -1.3770 -0.6528 -0.5636
 5084TIP3   OH215257   5.959   1.557   2.238  0.3403  0.2128  0.3823
 5084TIP3    H115258   6.032   1.573   2.179  0.5036 -0.9480  0.2507
 5084TIP3    H215259   5.881   1.561   2.183  0.4117  0.1767  0.2796
 5085TIP3   OH215260   0.900   5.368   3.863  1.1478  0.0463  0.0763
 5085TIP3    H115261   0.908   5.462   3.845  1.9064 -0.1654 -0.7312
 5085TIP3    H215262   0.989   5.340   3.884  1.1088 -0.6843 -0.6765
 5086TIP3   OH215263   5.073   5.529   0.513 -0.1504  0.3403 -0.0874
 5086TIP3    H115264   5.142   5.578   0.559 -2.3657  2.4170  1.2781
 5086TIP3    H215265   5.102   5.528   0.421  1.1911  2.1042  0.2521
 5087TIP3   OH215266   3.275   2.041  -0.028  0.6433  0.0217  0.4690
 5087TIP3    H115267   3.302   1.958   0.012  1.9271  0.2677  0.1630
 5087TIP3    H215268   3.229   2.088   0.042 -1.5142 -1.5522  0.2196
 5088TIP3   OH215269   0.683   3.892   2.193 -0.5078  0.2342  0.2288
 5088TIP3    H115270   0.620   3.837   2.239  0.4397  0.0570  1.3638
 5088TIP3    H215271   0.689   3.854   2.105 -0.7638 -0.7388  0.6248
 5089TIP3   OH215272   2.487   4.066   0.900  0.2404  0.3514 -0.2172
 5089TIP3    H115273   2.551   4.011   0.854  1.3727 -0.7944  2.5045
 5089TIP3    H215274   2.413   4.007   0.918  0.2697  0.4648  0.3082
 5090TIP3   OH215275   1.127   2.247   0.472 -0.2348 -0.1531  0.6119
 5090TIP3    H115276   1.103   2.336   0.445 -0.0257 -0.3221 -0.1400
 5090TIP3    H215277   1.053   2.193   0.443  0.8864 -0.6404 -1.4973
 5091TIP3   OH215278   2.062   2.390   0.992 -0.1917 -0.2649  0.2765
 5091TIP3    H115279   2.012   2.315   0.960  0.0288 -0.6406  0.8021
 5091TIP3    H215280   2.078   2.371   1.084 -2.6243  1.7299  1.2502
 5092TIP3   OH215281   2.234   1.661   4.018  0.2829  0.0948 -0.5514
 5092TIP3    H115282   2.298   1.696   4.080 -0.6106  0.6979  0.0519
 5092TIP3    H215283   2.287   1.609   3.956  1.1079 -1.2860  1.2065
 5093TIP3   OH215284   3.697   5.546   2.039 -0.0849 -0.1148  0.3651
 5093TIP3    H115285   3.790   5.568   2.031  0.5668 -2.9881 -1.9597
 5093TIP3    H215286   3.692   5.491   2.117  0.0697  0.4447  0.7702
 5094TIP3   OH215287   4.593   0.608   1.999 -0.2638 -0.4243 -0.1782
 5094TIP3    H115288   4.654   0.540   1.971  1.9877  0.8321  1.3154
 5094TIP3    H215289   4.545   0.569   2.072  0.1580 -0.8174 -0.1092
 5095TIP3   OH215290   2.544   2.420   3.363  0.4543 -0.0969 -0.0335
 5095TIP3    H115291   2.512   2.449   3.449 -0.1040  0.4462 -0.4219
 5095TIP3    H215292   2.557   2.325   3.374 -0.5448 -0.1950  0.3622
 5096TIP3   OH215293   4.497   0.536   2.614  0.2632 -0.4485  0.3067
 5096TIP3    H115294   4.574   0.480   2.628 -0.8451 -1.8259  1.2872
 5096TIP3    H215295   4.424   0.474   2.605 -0.9934  0.8336  1.2233
 5097TIP3   OH215296   2.894   3.574   1.098 -0.1432  0.4087 -0.0545
 5097TIP3    H115297   2.979   3.535   1.082 -0.1210 -0.2878  1.6222
 5097TIP3    H215298   2.842   3.505   1.138 -1.2445  1.0655 -0.2951
 5098TIP3   OH215299   2.921   4.765   0.670  0.1649  0.1622  0.4649
 5098TIP3    H115300   3.005   4.797   0.703  0.2195 -0.4337  0.9341
 5098TIP3    H215301   2.858   4.786   0.740 -0.2104  1.1993 -0.1662
 5099TIP3   OH215302   3.218   2.187   0.600 -0.3203 -0.5312  0.0693
 5099TIP3    H115303   3.168   2.141   0.667 -0.6951 -0.1862  0.0278
 5099TIP3    H215304   3.201   2.280   0.617  1.3175 -0.3380  0.8587
 5100TIP3   OH215305   4.161   1.603   0.123 -0.0052 -0.2994 -0.2916
 5100TIP3    H115306   4.237   1.635   0.172 -0.0196  0.8587 -0.9625
 5100TIP3    H215307   4.155   1.663   0.048 -1.4230 -0.5365 -0.3911
 5101TIP3   OH215308   2.736   1.599   5.075 -0.2714 -0.2863  0.2235
 5101TIP3    H115309   2.665   1.582   5.138  1.1684 -0.5920  1.8281
 5101TIP3    H215310   2.764   1.512   5.046 -1.7995 -0.1433 -1.9698
 5102TIP3   OH215311   1.597   0.334   0.351 -0.4290 -0.5974 -0.2628
 5102TIP3    H115312   1.526   0.396   0.367  0.3776  0.1540  0.5021
 5102TIP3    H215313   1.676   0.379   0.383  0.3506 -1.5238 -0.8354
 5103TIP3   OH215314   6.090   1.847   2.165 -0.0003  0.2012  0.3484
 5103TIP3    H115315   6.125   1.773   2.116 -1.6908 -0.8045  0.5751
 5103TIP3    H215316   6.105   1.923   2.109 -0.8511 -0.7497 -1.2376
 5104TIP3   OH215317   2.179   3.903   4.766 -0.4816 -0.4278 -0.0349
 5104TIP3    H115318   2.229   3.979   4.795  0.2162 -0.7335 -0.3871
 5104TIP3    H215319   2.119   3.937   4.700 -0.8105 -0.0378  0.4627
 5105TIP3   OH215320   6.269   2.253   3.200 -0.4676  0.1155 -0.0910
 5105TIP3    H115321   6.265   2.346   3.224 -1.0333 -0.0632  0.5451
 5105TIP3    H215322   6.306   2.210   3.278  0.8103 -0.0758 -0.7614
 5106TIP3   OH215323   1.566   4.517   0.714 -0.3612 -0.3335  0.4281
 5106TIP3    H115324   1.654   4.529   0.678 -0.7022  1.6271  0.1252
 5106TIP3    H215325   1.580   4.478   0.800  0.8843  0.7437  0.7508
 5107TIP3   OH215326   0.266   0.245   5.160  0.7580 -0.0617  0.5117
 5107TIP3    H115327   0.197   0.230   5.096  2.1475 -1.4818 -0.7327
 5107TIP3    H215328   0.342   0.269   5.108  1.2760  1.3369  1.8451
 5108TIP3   OH215329   1.663   1.201   2.462 -0.0787 -0.2283  0.3858
 5108TIP3    H115330   1.601   1.145   2.415 -0.2551  0.2558  0.0304
 5108TIP3    H215331   1.638   1.192   2.554  0.6833 -1.6813  0.4643
 5109TIP3   OH215332   4.160   2.027   4.527 -0.0992  0.4820 -0.0426
 5109TIP3    H115333   4.254   2.013   4.528 -0.0601  0.7282 -0.1380
 5109TIP3    H215334   4.125   1.958   4.471  0.3086  2.0601 -2.3857
 5110TIP3   OH215335   4.656   4.033   1.473  0.3308 -0.2926  0.0871
 5110TIP3    H115336   4.596   4.105   1.492 -0.1750 -0.4391 -0.8891
 5110TIP3    H215337   4.604   3.954   1.484  0.2743 -0.4157 -0.9411
 5111TIP3   OH215338   2.519   0.741   3.835 -0.2787  0.4297 -0.0772
 5111TIP3    H115339   2.467   0.770   3.910  0.0012  2.4038 -0.5929
 5111TIP3    H215340   2.459   0.745   3.760  0.1937  1.2587 -0.4223
 5112TIP3   OH215341   6.311   1.032   4.409  0.0652  0.7885  0.3412
 5112TIP3    H115342   6.274   0.949   4.440  0.1055  0.6171 -0.0511
 5112TIP3    H215343   6.269   1.099   4.462  0.3697  0.4830  0.9720
 5113TIP3   OH215344   5.590   0.172   1.675 -0.2217  0.1076 -0.9356
 5113TIP3    H115345   5.571   0.155   1.767  0.4705  0.8732 -0.6391
 5113TIP3    H215346   5.510   0.148   1.629 -0.3183 -1.0046 -0.2253
 5114TIP3   OH215347   4.293   4.887   3.467 -0.3630 -0.4433 -0.5586
 5114TIP3    H115348   4.217   4.854   3.419 -0.1468 -1.4322 -0.2535
 5114TIP3    H215349   4.366   4.833   3.437  0.2641  0.5992 -0.9647
 5115TIP3   OH215350   2.595   5.801   1.560  0.4944  0.3297  0.0229
 5115TIP3    H115351   2.556   5.847   1.486 -0.3376  0.9775  0.8328
 5115TIP3    H215352   2.576   5.708   1.544  2.0763  0.2290 -1.5612
 5116TIP3   OH215353   4.147   1.640   2.457 -0.4081  0.6753  0.2953
 5116TIP3    H115354   4.228   1.673   2.496 -0.6458  0.9018  0.6035
 5116TIP3    H215355   4.168   1.550   2.431 -0.2202  0.5475  0.8766
 5117TIP3   OH215356   5.772   0.775   3.481 -0.2332  0.0015 -0.4035
 5117TIP3    H115357   5.749   0.855   3.433  2.1216  0.9476 -0.0964
 5117TIP3    H215358   5.755   0.704   3.419 -0.1209  0.9415 -1.5520
 5118TIP3   OH215359   3.640   1.618   4.017  0.8663 -0.3342 -0.5127
 5118TIP3    H115360   3.581   1.668   4.073  1.0119 -1.3261  0.5658
 5118TIP3    H215361   3.634   1.661   3.931  1.4805  1.9302  0.4887
 5119TIP3   OH215362   1.560   2.713   4.021 -0.3238  0.0851  0.3297
 5119TIP3    H115363   1.465   2.719   4.009 -0.2703  0.4847  0.0880
 5119TIP3    H215364   1.588   2.646   3.958 -0.6413 -1.1792  1.4942
 5120TIP3   OH215365   4.665   5.928   0.279  1.0343 -0.5083 -0.5861
 5120TIP3    H115366   4.652   6.014   0.239  1.8988  0.6225  1.3836
 5120TIP3    H215367   4.605   5.870   0.232  0.4578  1.1412 -2.0066
 5121TIP3   OH215368   5.851   1.660   1.347 -0.0435 -0.1979 -0.1129
 5121TIP3    H115369   5.911   1.667   1.421 -0.2201 -0.1707  0.0296
 5121TIP3    H215370   5.811   1.574   1.356 -0.2035 -0.1202 -0.0677
 5122TIP3   OH215371   1.221   1.131   5.042 -0.0887  0.0163 -0.0305
 5122TIP3    H115372   1.266   1.196   4.987 -0.4820  1.3658  1.1762
 5122TIP3    H215373   1.128   1.149   5.029 -0.2027 -0.3324  0.3006
 5123TIP3   OH215374   6.205   1.084   0.787 -0.0437  0.5014  0.4323
 5123TIP3    H115375   6.290   1.043   0.773  0.1656  1.0324  0.1023
 5123TIP3    H215376   6.200   1.100   0.881 -0.4525 -0.9542  0.6791
 5124TIP3   OH215377   0.101   5.468   1.603  0.3211  0.2216  0.2460
 5124TIP3    H115378   0.045   5.492   1.676 -1.2418 -0.3973 -0.7029
 5124TIP3    H215379   0.118   5.375   1.614  1.0236  0.3636  0.4230
 5125TIP3   OH215380   4.976   2.821   1.320 -0.1518 -0.4335  0.2712
 5125TIP3    H115381   5.003   2.913   1.325 -0.5247 -0.1749 -1.6084
 5125TIP3    H215382   4.881   2.823   1.334 -0.0768 -0.5936  0.7877
 5126TIP3   OH215383   3.360   3.852   2.285 -0.1798  0.1978 -0.7707
 5126TIP3    H115384   3.331   3.826   2.198 -0.4176 -0.8691 -0.3890
 5126TIP3    H215385   3.455   3.835   2.284 -0.4875 -1.7758 -0.1875
 5127TIP3   OH215386   5.119   4.946   2.052 -0.6278 -0.1247  0.3617
 5127TIP3    H115387   5.202   4.954   2.098 -0.3125 -0.2864 -0.1709
 5127TIP3    H215388   5.143   4.934   1.961 -1.2540  0.3880  0.1209
 5128TIP3   OH215389   3.632   2.513   0.481 -0.1488 -0.5097  1.2160
 5128TIP3    H115390   3.678   2.497   0.399  2.0598 -0.8686  2.4594
 5128TIP3    H215391   3.564   2.445   0.484 -0.7889 -0.0285 -0.6100
 5129TIP3   OH215392   0.737   4.857   1.419 -0.0736  0.1921 -0.4882
 5129TIP3    H115393   0.692   4.920   1.362 -0.0229  0.5027 -0.1864
 5129TIP3    H215394   0.771   4.910   1.491 -0.7737 -0.2999  0.2186
 5130TIP3   OH215395   4.973   4.011   3.561 -0.0622  0.2603 -0.1365
 5130TIP3    H115396   4.918   3.952   3.612 -1.3730  0.5716 -1.1229
 5130TIP3    H215397   4.918   4.089   3.547  0.3379  0.3061 -1.7379
 5131TIP3   OH215398   3.111   1.617   4.352 -0.0893 -0.2345 -0.2751
 5131TIP3    H115399   3.071   1.654   4.431  1.2309  1.2531 -0.2420
 5131TIP3    H215400   3.074   1.669   4.280  0.1694 -0.2919 -0.4493
 5132TIP3   OH215401   4.756   5.372   1.393  0.8839  0.3768 -0.2372
 5132TIP3    H115402   4.799   5.452   1.424  1.1668 -0.1341  0.7232
 5132TIP3    H215403   4.663   5.387   1.411  0.7327  1.1254 -1.5218
 5133TIP3   OH215404   1.403   3.596   4.068  0.1109 -0.0819  0.1677
 5133TIP3    H115405   1.445   3.522   4.112 -1.7978 -1.2075  0.2100
 5133TIP3    H215406   1.318   3.605   4.112 -0.2923  1.2047 -0.8052
 5134TIP3   OH215407   3.377   4.755   0.306  0.0874  0.2045 -0.1524
 5134TIP3    H115408   3.400   4.662   0.312 -1.5232 -0.2319 -0.3903
 5134TIP3    H215409   3.447   4.793   0.253  0.1694 -1.1091 -1.0464
 5135TIP3   OH215410   3.777   0.346   1.322  0.0926 -0.0849 -0.3970
 5135TIP3    H115411   3.842   0.276   1.327 -0.0595 -0.1533  1.0187
 5135TIP3    H215412   3.752   0.348   1.230  1.1132 -0.9583 -0.7205
 5136TIP3   OH215413   4.682   5.213   1.708  0.1406 -0.6402 -0.0456
 5136TIP3    H115414   4.590   5.236   1.694  0.1887  0.7789  1.5891
 5136TIP3    H215415   4.731   5.292   1.683  1.1678 -2.0329 -2.8454
 5137TIP3   OH215416   3.111   0.445   3.236  0.2003 -0.4996 -0.2316
 5137TIP3    H115417   3.047   0.403   3.293 -0.1553 -0.1891 -0.3967
 5137TIP3    H215418   3.104   0.398   3.153 -0.9510  0.5401 -0.7549
 5138TIP3   OH215419   3.285   0.827   0.250  0.0418  0.6079  0.0837
 5138TIP3    H115420   3.313   0.778   0.327  0.5867  2.4625  1.1433
 5138TIP3    H215421   3.351   0.806   0.183  0.4151  0.1294  0.5948
 5139TIP3   OH215422   2.727   5.730   2.797  1.0227  0.6198 -0.4072
 5139TIP3    H115423   2.803   5.782   2.823  0.9863  0.4611  0.0278
 5139TIP3    H215424   2.670   5.792   2.751 -0.5489  1.8666  2.8996
 5140TIP3   OH215425   3.207   3.605   5.062 -0.5452  0.2107 -0.1675
 5140TIP3    H115426   3.162   3.542   5.118  0.2635 -0.3721 -0.1594
 5140TIP3    H215427   3.268   3.552   5.011  2.2195  1.2590  1.8468
 5141TIP3   OH215428   2.349   2.381   2.014  0.2625  0.2144 -0.1388
 5141TIP3    H115429   2.427   2.434   1.995 -1.1859  2.8521  0.6488
 5141TIP3    H215430   2.334   2.332   1.933  0.9429  2.1140 -1.5126
 5142TIP3   OH215431   1.794   5.715   2.433  0.0738 -0.2252 -0.1620
 5142TIP3    H115432   1.769   5.806   2.447  0.0634 -0.2509 -0.0189
 5142TIP3    H215433   1.713   5.670   2.412 -0.0080 -0.3162  0.3402
 5143TIP3   OH215434   3.988   4.680   0.263 -0.3076  0.4808  0.2835
 5143TIP3    H115435   4.030   4.760   0.232 -0.6563  1.4577  2.1634
 5143TIP3    H215436   4.011   4.675   0.356 -1.9569 -0.5092  0.6854
 5144TIP3   OH215437   1.948   0.165   0.583  0.6917 -0.5544 -0.2364
 5144TIP3    H115438   2.037   0.146   0.611  1.0946  0.5058 -0.7154
 5144TIP3    H215439   1.941   0.127   0.495  0.2997 -1.5875  0.2310
 5145TIP3   OH215440   1.184   1.344   2.559  0.5965 -0.1946 -0.4257
 5145TIP3    H115441   1.217   1.311   2.475  0.5967  0.3120 -0.6273
 5145TIP3    H215442   1.178   1.438   2.547 -1.4659 -0.2972 -0.6110
 5146TIP3   OH215443   5.101   3.056   2.786  0.3081  0.0548  0.1119
 5146TIP3    H115444   5.161   3.021   2.852 -0.2725  0.3900  0.8277
 5146TIP3    H215445   5.077   3.142   2.820 -0.0817  0.1829 -0.4907
 5147TIP3   OH215446   3.278   5.914   0.081  0.0399 -0.3823  0.1521
 5147TIP3    H115447   3.274   5.826   0.044  3.7974 -1.6672  2.3105
 5147TIP3    H215448   3.353   5.955   0.038  0.2704  0.5791  1.4124
 5148TIP3   OH215449   1.830   5.799   0.519  0.1441 -0.2815 -0.4779
 5148TIP3    H115450   1.835   5.737   0.446  1.8957 -0.6994 -0.0731
 5148TIP3    H215451   1.846   5.884   0.480  1.0098 -0.4976 -0.6285
 5149TIP3   OH215452   2.492   5.223   4.470 -0.0545 -0.2993  0.8644
 5149TIP3    H115453   2.447   5.168   4.406  0.2532  0.5393 -0.1065
 5149TIP3    H215454   2.485   5.175   4.552 -0.0538 -1.6360  0.1145
 5150TIP3   OH215455   4.499   5.701   1.454 -0.1922  0.5218  0.3459
 5150TIP3    H115456   4.461   5.613   1.452 -2.5896  1.4336  1.3473
 5150TIP3    H215457   4.469   5.742   1.373  1.0014  0.4115 -0.1658
 5151TIP3   OH215458   5.983   0.171   1.474  0.3266  0.4545  0.2584
 5151TIP3    H115459   5.966   0.140   1.563  2.1680  0.6791  0.7305
 5151TIP3    H215460   5.985   0.092   1.420  0.3616  0.2114  0.6174
 5152TIP3   OH215461   4.325   1.917   2.075  0.3238 -0.3259  0.5699
 5152TIP3    H115462   4.394   1.859   2.110  0.1641 -0.5063  0.5886
 5152TIP3    H215463   4.305   1.975   2.148  1.9048  1.0949 -0.0675
 5153TIP3   OH215464   0.998   0.363   4.897  0.2025 -0.3836 -0.7241
 5153TIP3    H115465   1.053   0.413   4.957 -1.4415  0.0965  0.4401
 5153TIP3    H215466   0.927   0.422   4.873 -0.9224 -1.6202 -0.5697
 5154TIP3   OH215467   1.860   2.501   1.885 -0.1957 -0.1084 -0.3956
 5154TIP3    H115468   1.829   2.483   1.796  0.2496  0.3095 -0.6400
 5154TIP3    H215469   1.881   2.594   1.884  0.3100 -0.2173  0.0006
 5155TIP3   OH215470   0.917   3.776   0.837  0.5749 -0.3130 -0.2327
 5155TIP3    H115471   0.837   3.725   0.826  1.1723 -1.2689 -0.2539
 5155TIP3    H215472   0.927   3.824   0.755 -0.4643  0.5346  0.1211
 5156TIP3   OH215473   5.903   3.361   4.231  0.4140  0.6842  0.7023
 5156TIP3    H115474   5.988   3.356   4.275  1.0367  0.2975 -0.4982
 5156TIP3    H215475   5.859   3.279   4.254  0.2978  0.9464  1.4380
 5157TIP3   OH215476   1.853   2.071   3.902  0.4266  0.1998  0.7517
 5157TIP3    H115477   1.773   2.025   3.926  1.3513 -0.9312  1.7356
 5157TIP3    H215478   1.885   2.025   3.824 -2.6268  3.9189 -3.2817
 5158TIP3   OH215479   4.746   2.285   3.582 -0.0528  0.2343  0.3041
 5158TIP3    H115480   4.775   2.372   3.556  1.7873 -0.1445  0.9139
 5158TIP3    H215481   4.733   2.238   3.500  1.1255  0.4397 -0.0158
 5159TIP3   OH215482   0.874   4.762   1.085  0.1796  0.1074  0.0520
 5159TIP3    H115483   0.835   4.676   1.102  0.4172 -0.2764 -1.2335
 5159TIP3    H215484   0.799   4.820   1.069 -0.0154  0.3267  1.6059
 5160TIP3   OH215485   1.240   3.503   2.371  0.6554  0.4110  0.2878
 5160TIP3    H115486   1.201   3.458   2.446 -1.5213 -2.8574 -2.5492
 5160TIP3    H215487   1.181   3.576   2.354  0.9285  0.9234  1.4229
 5161TIP3   OH215488   4.583   2.229   2.276 -0.2611  0.0712  0.0983
 5161TIP3    H115489   4.545   2.262   2.195  0.1916 -1.5966 -0.8206
 5161TIP3    H215490   4.658   2.286   2.292 -1.2512  1.3964  0.2318
 5162TIP3   OH215491   5.832   5.899   1.230 -0.3302 -0.1590 -0.4236
 5162TIP3    H115492   5.915   5.899   1.182 -0.0944 -0.7775 -0.0287
 5162TIP3    H215493   5.798   5.811   1.218 -0.0438 -0.4721  0.9079
 5163TIP3   OH215494   4.005   4.606   2.303  0.2407 -0.1829 -0.3528
 5163TIP3    H115495   4.024   4.643   2.389 -0.6193  2.2901 -1.1304
 5163TIP3    H215496   4.067   4.649   2.244 -0.1305 -0.7548 -1.1802
 5164TIP3   OH215497   2.916   4.964   3.571 -0.4319 -0.3391  0.2651
 5164TIP3    H115498   2.860   4.917   3.632  0.3069  0.1339  1.3475
 5164TIP3    H215499   3.004   4.958   3.610  0.0196  0.1353 -0.6520
 5165TIP3   OH215500   2.465   4.560   1.517 -0.2248  0.1392  0.0504
 5165TIP3    H115501   2.461   4.476   1.562  0.4036  0.8125  1.4333
 5165TIP3    H215502   2.518   4.615   1.574 -0.0842  1.2937 -1.1391
 5166TIP3   OH215503   1.569   4.241   0.402  0.0900 -0.1179 -0.7084
 5166TIP3    H115504   1.556   4.327   0.442  0.7543 -0.2526 -0.1924
 5166TIP3    H215505   1.485   4.222   0.360  0.0071  0.8755 -1.0174
 5167TIP3   OH215506   0.675   3.397   0.888  0.4633  0.5441 -0.6509
 5167TIP3    H115507   0.619   3.328   0.851  1.4264 -0.1824 -0.8128
 5167TIP3    H215508   0.614   3.464   0.918 -0.4166  0.6544 -2.5290
 5168TIP3   OH215509   0.563   4.220   0.005 -0.1856  0.4304  0.3215
 5168TIP3    H115510   0.544   4.218   0.099 -1.7421  1.5564  0.0663
 5168TIP3    H215511   0.647   4.175  -0.003  0.0403  0.4082  2.2626
 5169TIP3   OH215512   3.656   4.427   0.094 -0.0972  0.1129  0.2980
 5169TIP3    H115513   3.705   4.345   0.103 -0.6418 -0.2327  0.1613
 5169TIP3    H215514   3.682   4.480   0.169 -0.0432 -0.3444  0.5998
 5170TIP3   OH215515   3.228   5.292   1.921  0.1334  0.5187  0.5601
 5170TIP3    H115516   3.266   5.333   1.843 -0.0264  1.9616  1.2004
 5170TIP3    H215517   3.212   5.201   1.895 -0.8807  1.2033 -1.4313
 5171TIP3   OH215518   4.873   2.294   4.944 -0.1855 -0.0368 -0.1353
 5171TIP3    H115519   4.790   2.297   4.895 -0.7855  0.6327  0.8738
 5171TIP3    H215520   4.852   2.243   5.022 -0.0097  1.2094  0.7551
 5172TIP3   OH215521   2.751   1.790   4.361  0.8555  0.3819 -0.0049
 5172TIP3    H115522   2.712   1.793   4.448  1.6409 -2.3875  0.5567
 5172TIP3    H215523   2.796   1.873   4.351  1.2471  0.5331  2.4902
 5173TIP3   OH215524   5.173   3.342   0.739  0.6975  0.5586  0.1492
 5173TIP3    H115525   5.164   3.360   0.645  1.8532 -0.8947 -0.2701
 5173TIP3    H215526   5.092   3.297   0.763  0.4327  0.8634 -0.1637
 5174TIP3   OH215527   1.953   0.658   2.992  0.1411  0.0003  0.1974
 5174TIP3    H115528   1.903   0.583   3.024  1.0208 -1.9265 -2.5479
 5174TIP3    H215529   1.895   0.702   2.931  0.2889  0.4468  0.3737
 5175TIP3   OH215530   5.605   1.498   1.857 -0.2219  0.3080  0.0131
 5175TIP3    H115531   5.525   1.460   1.893 -0.5805  0.4189 -0.6502
 5175TIP3    H215532   5.628   1.442   1.783  0.6473 -0.0623  0.5456
 5176TIP3   OH215533   0.742   0.729   1.253  0.0464  0.0460 -0.2243
 5176TIP3    H115534   0.691   0.798   1.296 -0.2813 -0.4256  0.1546
 5176TIP3    H215535   0.677   0.674   1.210  0.2634 -0.3186 -0.0921
 5177TIP3   OH215536   2.100   0.688   3.428  0.5335  0.8957  0.1902
 5177TIP3    H115537   2.168   0.671   3.364  0.6432  3.2086 -0.4211
 5177TIP3    H215538   2.140   0.751   3.489 -0.9389  2.1584 -0.0778
 5178TIP3   OH215539   3.963   3.327   0.956 -0.0553 -0.0086  0.4842
 5178TIP3    H115540   4.002   3.336   1.043  0.2524  0.8846  0.2693
 5178TIP3    H215541   4.036   3.302   0.900 -0.1072  0.1215  0.3593
 5179TIP3   OH215542   4.644   0.756   0.784  0.0736 -0.1757  0.2661
 5179TIP3    H115543   4.695   0.695   0.838  0.3944  0.8253  1.1320
 5179TIP3    H215544   4.710   0.803   0.733 -0.1076  0.0189  0.2122
 5180TIP3   OH215545   1.447   3.729   2.734 -0.1480 -0.0419  0.1681
 5180TIP3    H115546   1.487   3.813   2.755 -0.4321  0.3426 -0.7426
 5180TIP3    H215547   1.359   3.751   2.703  0.3611 -0.4802 -1.7483
 5181TIP3   OH215548   2.896   4.225   3.197  0.5072  0.1842  0.1425
 5181TIP3    H115549   2.909   4.147   3.143  1.5233  1.6682 -1.8841
 5181TIP3    H215550   2.953   4.291   3.158 -2.2396  2.7481  0.1104
 5182TIP3   OH215551   2.719   1.117   2.115 -0.1344 -0.1154 -0.2464
 5182TIP3    H115552   2.805   1.091   2.147  0.5820  0.0322 -1.9358
 5182TIP3    H215553   2.680   1.036   2.083  0.8087  0.2817 -2.5978
 5183TIP3   OH215554   1.951   3.554   3.653  0.8069 -0.3524 -0.2062
 5183TIP3    H115555   1.965   3.543   3.559 -2.4953 -0.3505 -0.8053
 5183TIP3    H215556   1.874   3.609   3.660 -0.4555 -2.2192  2.4578
 5184TIP3   OH215557   1.577   0.153   4.259 -1.1827 -0.1402 -0.0643
 5184TIP3    H115558   1.659   0.103   4.259 -0.5866  0.7953  1.3083
 5184TIP3    H215559   1.510   0.090   4.287 -0.1527  0.1713  3.5839
 5185TIP3   OH215560   5.080   5.458   3.280  0.1265  0.8586  0.4191
 5185TIP3    H115561   4.995   5.451   3.236  0.9774 -0.1079 -1.1779
 5185TIP3    H215562   5.074   5.538   3.332 -1.9829  0.4653  0.8766
 5186TIP3   OH215563   3.091   5.528   0.116 -0.6705  0.1109  0.4432
 5186TIP3    H115564   3.074   5.548   0.208  0.4601 -0.6050  0.8283
 5186TIP3    H215565   3.048   5.444   0.101 -1.6013  0.6452  0.0647
 5187TIP3   OH215566   0.409   1.525   3.656  0.0409  0.1914  0.6006
 5187TIP3    H115567   0.344   1.513   3.725 -0.3315  1.4638  0.5064
 5187TIP3    H215568   0.438   1.616   3.666  2.1497 -0.4774  0.9195
 5188TIP3   OH215569   1.999   3.692   1.575 -0.2554 -0.0369 -0.4700
 5188TIP3    H115570   2.076   3.737   1.610  1.3615 -1.2465 -2.2459
 5188TIP3    H215571   1.954   3.758   1.522 -0.6181  0.7519  0.7897
 5189TIP3   OH215572   1.317   1.982   2.043  0.2311 -0.4568  0.0356
 5189TIP3    H115573   1.308   2.019   2.130  1.3275 -0.3723  0.1356
 5189TIP3    H215574   1.411   1.987   2.025  0.4172 -2.9212 -0.0606
 5190TIP3   OH215575   0.553   5.798   4.881 -0.1311  0.2204 -0.2595
 5190TIP3    H115576   0.512   5.713   4.863 -0.4813  0.1609  0.7299
 5190TIP3    H215577   0.604   5.782   4.961 -0.5386  1.0439  0.1752
 5191TIP3   OH215578   5.308   1.281   0.624  0.5266 -0.3609  0.3501
 5191TIP3    H115579   5.312   1.197   0.578 -0.8650 -0.5370  0.4865
 5191TIP3    H215580   5.284   1.258   0.714 -0.2657  0.1833  0.2945
 5192TIP3   OH215581   4.004   1.818   2.294 -0.2767  0.5880  0.9891
 5192TIP3    H115582   3.928   1.761   2.294  0.1083 -0.2065 -2.5566
 5192TIP3    H215583   4.067   1.775   2.352 -0.8871 -1.3000  0.3139
 5193TIP3   OH215584   5.897   5.021   1.498  0.1783 -0.1186 -0.3395
 5193TIP3    H115585   5.986   5.013   1.533  0.6571  1.9904 -0.9046
 5193TIP3    H215586   5.843   5.035   1.575  0.9989  2.8326 -0.1739
 5194TIP3   OH215587   2.502   3.618   3.595  0.3752  0.4610  0.7263
 5194TIP3    H115588   2.435   3.657   3.652  1.7351  1.6614  1.5728
 5194TIP3    H215589   2.541   3.548   3.647 -0.9223 -0.9824 -0.1746
 5195TIP3   OH215590   5.312   3.390   2.704  0.0942  0.0095 -0.0991
 5195TIP3    H115591   5.312   3.298   2.676 -0.4097 -0.0358  0.0339
 5195TIP3    H215592   5.229   3.425   2.670 -0.2656  0.1020  0.8461
 5196TIP3   OH215593   4.102   4.019   0.482 -0.4818 -0.0974  0.3548
 5196TIP3    H115594   4.168   3.964   0.524  0.2578  0.3762 -0.1565
 5196TIP3    H215595   4.069   3.966   0.409  0.2552  0.1320 -0.1596
 5197TIP3   OH215596   6.039   3.686   2.347 -0.7302  0.3958 -0.1525
 5197TIP3    H115597   5.944   3.700   2.347 -0.6575  0.8761 -0.1262
 5197TIP3    H215598   6.062   3.680   2.254 -1.1049 -1.9316 -0.1740
 5198TIP3   OH215599   1.024   3.635   1.429 -0.7200 -0.1993 -0.0796
 5198TIP3    H115600   0.939   3.613   1.390 -0.2865 -0.3789 -0.9444
 5198TIP3    H215601   1.086   3.629   1.356  0.0411 -0.0932  0.5495
 5199TIP3   OH215602   4.592   0.617   0.547 -0.1651  0.6077  0.0148
 5199TIP3    H115603   4.559   0.563   0.618  0.2447  0.7191  0.2904
 5199TIP3    H215604   4.630   0.694   0.590 -0.3629  0.9184 -0.3472
 5200TIP3   OH215605   4.952   4.964   3.218  0.1504 -0.5488 -0.2428
 5200TIP3    H115606   4.991   5.046   3.191 -0.7302  0.1194  0.4497
 5200TIP3    H215607   4.871   4.957   3.167 -0.4992 -0.2663  0.7187
 5201TIP3   OH215608   6.331   0.593   3.308  0.6647  0.2705  0.9439
 5201TIP3    H115609   6.361   0.504   3.289  0.2843  0.6239 -1.6745
 5201TIP3    H215610   6.254   0.582   3.363 -0.4049 -1.1662 -0.7477
 5202TIP3   OH215611   1.410   2.922   5.115 -0.4162 -0.6561  0.7743
 5202TIP3    H115612   1.386   2.835   5.083  1.2052 -0.4651 -1.2017
 5202TIP3    H215613   1.496   2.909   5.155  0.2152  0.1289 -0.2673
 5203TIP3   OH215614   2.616   3.511   0.772 -0.1162  0.4742  0.8406
 5203TIP3    H115615   2.615   3.420   0.804  0.7479  0.5265  1.0431
 5203TIP3    H215616   2.600   3.564   0.850  0.6807  0.5449  0.9644
 5204TIP3   OH215617   2.017   0.492   4.750 -0.3710 -0.6798 -0.3825
 5204TIP3    H115618   2.036   0.559   4.685  0.5641 -1.4830 -0.9631
 5204TIP3    H215619   1.981   0.419   4.699  0.2860 -1.2866  0.0093
 5205TIP3   OH215620   0.046   0.511   5.044  0.0316 -0.1994  0.3718
 5205TIP3    H115621  -0.015   0.565   5.093 -1.0847 -0.6534 -0.4570
 5205TIP3    H215622   0.015   0.516   4.953  1.2033 -0.4878 -0.0675
 5206TIP3   OH215623   4.184   5.546   3.090  0.4891 -0.4479  0.3412
 5206TIP3    H115624   4.098   5.514   3.063  0.8349  0.2153 -1.6932
 5206TIP3    H215625   4.244   5.474   3.072  0.5734 -0.3843  0.3621
 5207TIP3   OH215626   0.432   0.771   4.293  0.2790 -0.0873  0.2166
 5207TIP3    H115627   0.425   0.700   4.356  0.9980  0.3222  0.7758
 5207TIP3    H215628   0.500   0.742   4.232 -0.7913 -0.7245 -0.7247
 5208TIP3   OH215629   3.137   1.151   0.192  0.3829 -0.2231 -0.1957
 5208TIP3    H115630   3.095   1.066   0.182 -0.0269 -0.0739  0.1985
 5208TIP3    H215631   3.212   1.148   0.133 -1.2632  0.2222 -2.4732
 5209TIP3   OH215632   1.353   2.914   4.557  0.0990  0.4992 -0.1062
 5209TIP3    H115633   1.372   2.836   4.610 -0.2670  0.0358 -0.6472
 5209TIP3    H215634   1.350   2.882   4.467  0.6742  1.2731 -0.4188
 5210TIP3   OH215635   6.258   3.762   1.536 -0.2927 -0.0503 -0.4022
 5210TIP3    H115636   6.286   3.850   1.508 -0.9652  0.4374  0.4252
 5210TIP3    H215637   6.260   3.766   1.631  0.6041 -1.2504 -0.3511
 5211TIP3   OH215638   1.292   4.828   1.010  0.5259  0.2532  0.1670
 5211TIP3    H115639   1.239   4.750   0.992  1.6289 -1.0547  2.2173
 5211TIP3    H215640   1.377   4.809   0.969  0.8957  0.2258  0.9332
 5212TIP3   OH215641   0.097   0.517   4.347 -0.1309 -0.1316 -0.1956
 5212TIP3    H115642   0.068   0.436   4.305  1.0756 -0.4951 -0.3757
 5212TIP3    H215643   0.149   0.488   4.422 -0.5936  0.4993  0.3790
 5213TIP3   OH215644   1.898   2.152   4.685  0.3967  0.3274  0.4785
 5213TIP3    H115645   1.839   2.225   4.667 -0.0591 -0.4138 -1.2432
 5213TIP3    H215646   1.962   2.154   4.613  0.8082 -0.5303  0.8000
 5214TIP3   OH215647   5.687   0.611   2.079 -0.1982 -0.3073  0.0149
 5214TIP3    H115648   5.769   0.564   2.065 -0.6855 -1.6914  1.5072
 5214TIP3    H215649   5.689   0.683   2.017  1.7270 -0.8595 -0.6044
 5215TIP3   OH215650   2.882   0.076   3.489  0.3714 -0.1921  0.1258
 5215TIP3    H115651   2.871   0.009   3.421 -0.7936 -1.1759  1.2191
 5215TIP3    H215652   2.912   0.027   3.566 -0.9237  0.4405  1.0785
 5216TIP3   OH215653   5.621   3.187   3.651 -0.2193  0.4375  0.2900
 5216TIP3    H115654   5.574   3.270   3.639 -3.0853 -0.9662  1.1122
 5216TIP3    H215655   5.594   3.133   3.576  0.6085 -0.2043  0.4406
 5217TIP3   OH215656   5.068   0.197   4.061  0.3239  0.3400  0.6772
 5217TIP3    H115657   5.092   0.267   4.000  2.1797 -0.0107  0.9338
 5217TIP3    H215658   5.088   0.117   4.013  0.2619  0.0319  1.1652
 5218TIP3   OH215659   6.073   4.777   1.874 -0.4323  0.5007 -0.4318
 5218TIP3    H115660   6.049   4.720   1.801 -0.9923 -0.6614  0.6245
 5218TIP3    H215661   6.156   4.742   1.906 -0.6876  0.3734  0.1079
 5219TIP3   OH215662   5.296   5.298   2.372 -0.6656  0.1998 -0.2239
 5219TIP3    H115663   5.319   5.249   2.293 -0.4565  0.4082 -0.2939
 5219TIP3    H215664   5.236   5.241   2.420  0.2250 -0.4757  0.1007
 5220TIP3   OH215665   3.770   3.858   4.413  0.6498 -0.3267  0.0455
 5220TIP3    H115666   3.718   3.886   4.338  1.0637  1.8080  0.4875
 5220TIP3    H215667   3.752   3.764   4.421 -1.6775 -0.0326 -0.9264
 5221TIP3   OH215668   0.967   4.625  -0.026 -0.2316  0.2293  0.0752
 5221TIP3    H115669   0.952   4.531  -0.027  0.6004  0.0914 -1.0639
 5221TIP3    H215670   0.947   4.652   0.064  1.1116 -1.2998  0.8848
 5222TIP3   OH215671   1.912   3.894   3.848  0.1627 -0.6204  0.3946
 5222TIP3    H115672   1.870   3.903   3.762 -0.0977  0.2747  0.6106
 5222TIP3    H215673   1.971   3.969   3.854  1.6073 -1.6967  0.2197
 5223TIP3   OH215674   4.275   3.381   4.609 -0.1258  0.0095 -0.9743
 5223TIP3    H115675   4.186   3.362   4.579 -1.4538  2.0592  1.2548
 5223TIP3    H215676   4.287   3.474   4.590  0.3003  0.5155  1.3747
 5224TIP3   OH215677   1.724   1.663   5.136  0.0033  0.1099  0.8089
 5224TIP3    H115678   1.802   1.642   5.085  0.7432 -1.0256  2.3504
 5224TIP3    H215679   1.674   1.581   5.139 -1.2883  0.8216 -0.1643
 5225TIP3   OH215680   1.156   0.826   4.159  0.3036  0.3747  0.0491
 5225TIP3    H115681   1.195   0.767   4.095  1.8473  1.4170 -0.0205
 5225TIP3    H215682   1.208   0.813   4.238  0.6486  1.6075  0.0403
 5226TIP3   OH215683   5.298   2.738   0.672  0.8755  0.3043 -0.1269
 5226TIP3    H115684   5.212   2.697   0.686  0.2741  0.4843 -2.7156
 5226TIP3    H215685   5.356   2.664   0.651  1.5648  0.1146  2.2217
 5227TIP3   OH215686   5.764   3.958   1.695 -0.0289 -0.3643 -0.1857
 5227TIP3    H115687   5.820   3.961   1.771  1.0325 -1.0628 -0.9135
 5227TIP3    H215688   5.810   3.902   1.632 -2.7970 -3.4908  0.2364
 5228TIP3   OH215689   3.309   1.634   1.753 -0.1479 -0.2184 -0.3586
 5228TIP3    H115690   3.307   1.548   1.712 -0.0926 -0.4692  0.1584
 5228TIP3    H215691   3.368   1.624   1.827 -0.7408  0.0575  0.1554
 5229TIP3   OH215692   2.235   0.289   3.930  0.4916 -0.0893 -0.0791
 5229TIP3    H115693   2.171   0.343   3.977  0.4273 -0.1277 -0.1242
 5229TIP3    H215694   2.256   0.340   3.852 -0.1132 -0.4635 -0.4920
 5230TIP3   OH215695   2.425   0.907   3.119 -0.5061  0.2060  0.5239
 5230TIP3    H115696   2.463   0.969   3.182  1.5304 -1.2330  0.8030
 5230TIP3    H215697   2.442   0.946   3.034 -0.3827  0.6224  0.7368
 5231TIP3   OH215698   1.416   4.718   3.617  0.1804  0.5945  0.7005
 5231TIP3    H115699   1.457   4.790   3.666  0.8640 -0.1071  1.1748
 5231TIP3    H215700   1.452   4.726   3.528  0.3679  0.7569  0.7893
 5232TIP3   OH215701   2.329   2.133   1.514 -0.3883 -0.7802  0.1812
 5232TIP3    H115702   2.396   2.068   1.535 -0.6752 -0.7615  1.2424
 5232TIP3    H215703   2.315   2.179   1.597 -1.5704 -0.6455 -0.0825
 5233TIP3   OH215704   5.227   4.505   2.647 -0.2994  0.3456  0.4374
 5233TIP3    H115705   5.163   4.438   2.622 -1.0944  1.5633 -0.9047
 5233TIP3    H215706   5.180   4.562   2.707  0.3636 -0.2169  1.5370
 5234TIP3   OH215707   1.033   5.081   1.367 -0.1431 -0.5936 -0.4970
 5234TIP3    H115708   0.977   5.075   1.445 -0.4406 -2.1723 -0.7914
 5234TIP3    H215709   1.118   5.049   1.397 -0.7760 -3.2666 -1.2237
 5235TIP3   OH215710   5.743   5.952   3.875  0.6144 -0.2482 -0.1963
 5235TIP3    H115711   5.712   6.033   3.915  0.9864  0.8224 -1.9169
 5235TIP3    H215712   5.664   5.908   3.845  0.4755  0.2250 -0.5491
 5236TIP3   OH215713   0.072   2.637   1.029  0.5492 -0.5037  0.6173
 5236TIP3    H115714   0.033   2.604   1.110  0.0887  0.2796  0.7221
 5236TIP3    H215715   0.144   2.693   1.058  1.6875 -1.7994  0.4287
 5237TIP3   OH215716   4.650   3.549   4.718 -0.3185 -0.3863  0.2675
 5237TIP3    H115717   4.652   3.474   4.658  0.9668 -0.0509 -0.1349
 5237TIP3    H215718   4.742   3.567   4.738 -0.4200  2.2744 -1.1572
 5238TIP3   OH215719   4.124   2.617   3.500 -0.5688 -0.7342 -0.6955
 5238TIP3    H115720   4.128   2.677   3.575  2.3248 -1.9722  0.2948
 5238TIP3    H215721   4.124   2.530   3.540  0.3207 -1.4079 -2.0849
 5239TIP3   OH215722   2.036   2.124   4.948 -0.4881  0.1274  0.5583
 5239TIP3    H115723   2.033   2.029   4.960 -1.0859  0.0598 -0.0525
 5239TIP3    H215724   1.979   2.141   4.873 -0.4322  0.9749  0.6904
 5240TIP3   OH215725   2.483   0.840   4.596  0.0700  0.4649  0.0286
 5240TIP3    H115726   2.391   0.866   4.601 -0.7279 -1.9998 -0.5426
 5240TIP3    H215727   2.491   0.768   4.658  1.5908  0.5102 -0.0788
 5241TIP3   OH215728   3.362   2.980   4.063 -0.2384  0.1035 -0.0940
 5241TIP3    H115729   3.284   2.954   4.014 -1.4497  1.9337  0.7683
 5241TIP3    H215730   3.377   2.909   4.125 -1.6576  0.0267  0.1959
 5242TIP3   OH215731   4.667   5.322   2.544  0.1040  0.3585  0.0523
 5242TIP3    H115732   4.597   5.279   2.594 -0.3289  0.6058 -0.3383
 5242TIP3    H215733   4.627   5.401   2.509  0.7742  0.8584  0.3932
 5243TIP3   OH215734   2.376   4.472   1.006 -0.0507  0.1062  0.2466
 5243TIP3    H115735   2.416   4.410   0.945 -0.1384  1.6785 -1.5107
 5243TIP3    H215736   2.448   4.500   1.063  0.3432 -0.3854 -0.0002
 5244TIP3   OH215737   0.921   0.961   4.077  0.7555 -0.6168  0.1863
 5244TIP3    H115738   0.874   0.919   4.006 -0.4639  0.0403  0.5845
 5244TIP3    H215739   1.000   0.908   4.088  1.3938 -0.2989 -2.1681
 5245TIP3   OH215740   1.933   3.109   1.314 -0.3234 -0.0135  0.0767
 5245TIP3    H115741   1.888   3.107   1.398  0.0508  1.3109  0.3317
 5245TIP3    H215742   1.868   3.141   1.252 -0.3248 -0.0761  0.0456
 5246TIP3   OH215743   4.972   1.743   1.810 -0.0754 -0.0769 -0.4939
 5246TIP3    H115744   4.944   1.694   1.887  0.8872  1.2756  0.7827
 5246TIP3    H215745   4.907   1.813   1.801 -1.4799 -1.5591 -2.3419
 5247TIP3   OH215746   4.843   0.837   1.373 -0.2350  0.1548  0.6606
 5247TIP3    H115747   4.890   0.896   1.433  1.3153  0.8326 -1.1436
 5247TIP3    H215748   4.754   0.873   1.370  0.0604  0.9860  1.4089
 5248TIP3   OH215749   0.556   5.796   4.546  0.8970  0.5562  0.0451
 5248TIP3    H115750   0.647   5.818   4.568  1.0834 -0.2319  0.1078
 5248TIP3    H215751   0.511   5.880   4.543  1.2875  0.8511  1.5733
 5249TIP3   OH215752   2.124   1.713   5.023 -0.3562  0.0341  0.3438
 5249TIP3    H115753   2.133   1.679   4.934 -1.7499 -0.1600  0.2453
 5249TIP3    H215754   2.166   1.799   5.020  2.2797 -1.1694  0.3326
 5250TIP3   OH215755   3.450   2.057   2.532 -0.3162  0.0322  0.1603
 5250TIP3    H115756   3.398   2.069   2.612 -0.9173  0.8449 -0.3300
 5250TIP3    H215757   3.514   2.128   2.533  0.9671 -1.0982  0.8722
 5251TIP3   OH215758   3.390   0.828   0.754  0.5161  0.4920 -0.3284
 5251TIP3    H115759   3.345   0.902   0.794  1.3213  1.0535 -0.4258
 5251TIP3    H215760   3.329   0.755   0.762  0.5410  0.6190  1.7631
 5252TIP3   OH215761   3.097   5.864   5.082  0.3952 -0.0463 -0.0807
 5252TIP3    H115762   3.085   5.821   5.167  1.4076  0.9916  0.6225
 5252TIP3    H215763   3.180   5.829   5.050  0.9614  0.9527  0.2516
 5253TIP3   OH215764   0.861   3.358   1.143 -0.4509 -0.0935 -0.5121
 5253TIP3    H115765   0.795   3.383   1.079 -0.3365  2.3724  0.2332
 5253TIP3    H215766   0.838   3.407   1.222  0.3882 -1.7347  0.8333
 5254TIP3   OH215767   2.425   1.847   5.140  0.0611 -0.4994 -0.4904
 5254TIP3    H115768   2.429   1.844   5.045  0.3080  2.6783 -0.6901
 5254TIP3    H215769   2.477   1.923   5.164  0.2826 -1.4057  2.2364
 5255TIP3   OH215770   0.759   1.384   0.542  0.7844  0.3211 -0.2572
 5255TIP3    H115771   0.735   1.299   0.505 -0.4915  0.4429  0.2423
 5255TIP3    H215772   0.818   1.363   0.615 -0.9125 -0.2832  0.9995
 5256TIP3   OH215773   6.042   5.376   0.809  0.5075 -0.4606  0.0536
 5256TIP3    H115774   6.114   5.327   0.848  1.0634 -0.3454 -0.7996
 5256TIP3    H215775   6.048   5.463   0.850  0.9253 -0.4184 -0.0865
 5257TIP3   OH215776   1.041   2.752   3.806 -0.6113  0.1918 -0.2209
 5257TIP3    H115777   0.950   2.782   3.795  0.1058  1.8579 -2.3953
 5257TIP3    H215778   1.052   2.685   3.738 -0.3334 -0.3047  0.3132
 5258TIP3   OH215779   0.889   1.785   3.995  0.0370  0.6643  0.1950
 5258TIP3    H115780   0.877   1.747   3.908  0.3670 -1.1550  0.9203
 5258TIP3    H215781   0.838   1.866   3.992 -2.4541 -0.8241 -0.7490
 5259TIP3   OH215782   6.348   0.963   2.313  0.2866 -0.1572  0.6328
 5259TIP3    H115783   6.254   0.981   2.312  0.2875 -0.1575 -0.0161
 5259TIP3    H215784   6.355   0.869   2.300  0.4099  0.0986 -1.6038
 5260TIP3   OH215785   1.634   2.889   3.461 -0.0263  0.0739 -0.7102
 5260TIP3    H115786   1.672   2.972   3.491  1.8644 -1.0630  0.1995
 5260TIP3    H215787   1.659   2.826   3.528 -3.8441 -0.7784  0.1163
 5261TIP3   OH215788   0.743   4.728   3.374  0.1674  0.3120  0.5575
 5261TIP3    H115789   0.761   4.717   3.281  2.8707  0.5444  0.9819
 5261TIP3    H215790   0.680   4.659   3.395  3.4480 -3.3241 -0.4108
 5262TIP3   OH215791   0.248   4.648   4.025 -0.4239  0.2420 -0.6831
 5262TIP3    H115792   0.208   4.684   4.104 -1.9236  0.4278 -1.4806
 5262TIP3    H215793   0.254   4.554   4.041 -1.2082  0.2143 -0.5425
 5263TIP3   OH215794   6.075   3.377   0.452 -0.2469  0.3818  0.3052
 5263TIP3    H115795   5.991   3.332   0.465 -1.4073  1.4545 -2.5779
 5263TIP3    H215796   6.050   3.464   0.420  1.9900  1.4328  1.2403
 5264TIP3   OH215797   3.876   3.796   5.015  0.1846  0.5344 -0.1873
 5264TIP3    H115798   3.833   3.855   5.077  1.1858  1.6593 -0.5359
 5264TIP3    H215799   3.933   3.741   5.068 -0.7518 -0.1547  0.1382
 5265TIP3   OH215800   3.946   0.608   3.758 -0.3028  1.0710 -0.3097
 5265TIP3    H115801   4.019   0.563   3.801  1.5084  2.7578 -1.4580
 5265TIP3    H215802   3.942   0.570   3.670 -2.2459 -0.4742  0.3710
 5266TIP3   OH215803   5.652   3.895   4.013 -1.0054  0.0598  0.3057
 5266TIP3    H115804   5.722   3.833   4.031  1.8168  2.8826  0.0171
 5266TIP3    H215805   5.591   3.847   3.958  0.7098 -2.5777  0.5218
 5267TIP3   OH215806   2.318   4.311   2.227 -0.3150 -0.2316  0.5736
 5267TIP3    H115807   2.318   4.386   2.167 -0.8440 -1.9702 -1.7571
 5267TIP3    H215808   2.287   4.347   2.310 -0.8290  2.0597 -0.5113
 5268TIP3   OH215809   5.216   1.952   2.818 -0.3265  0.2529 -0.2953
 5268TIP3    H115810   5.166   1.884   2.862  0.0921  0.7990  1.0668
 5268TIP3    H215811   5.189   2.034   2.860  0.2070  0.7858 -0.9533
 5269TIP3   OH215812   3.356   1.859   2.945  0.1386  0.9404  0.3499
 5269TIP3    H115813   3.380   1.807   2.869 -0.2279  0.4617  0.5551
 5269TIP3    H215814   3.352   1.949   2.913  2.4247  1.1064  0.3461
 5270TIP3   OH215815   0.440   3.633   3.104 -0.5674  0.1564  0.3973
 5270TIP3    H115816   0.408   3.574   3.173 -0.7016 -0.5165 -0.2330
 5270TIP3    H215817   0.371   3.699   3.096 -1.0471 -0.3621  0.1809
 5271TIP3   OH215818   5.236   5.270   0.694  0.3341  1.0789 -0.7517
 5271TIP3    H115819   5.315   5.308   0.657  0.8969  0.2836 -0.4057
 5271TIP3    H215820   5.216   5.196   0.637 -1.2399  2.3245 -1.9290
 5272TIP3   OH215821   5.683   3.859   3.048  0.8766  0.0713 -0.6614
 5272TIP3    H115822   5.623   3.916   3.097 -0.6308 -1.3854 -0.7292
 5272TIP3    H215823   5.761   3.855   3.102 -0.1803 -0.2853  0.9039
 5273TIP3   OH215824   0.920   3.599   0.507  0.4030 -0.2852  0.0043
 5273TIP3    H115825   1.013   3.582   0.526  0.7016  0.3618 -0.7828
 5273TIP3    H215826   0.914   3.593   0.411 -0.1291  0.7859 -0.0420
 5274TIP3   OH215827   3.127   0.237   4.028  0.4114  0.0328 -0.3548
 5274TIP3    H115828   3.182   0.260   4.103  0.7994 -0.6341 -0.4197
 5274TIP3    H215829   3.069   0.168   4.060  1.5104 -1.2389 -1.0005
 5275TIP3   OH215830   1.126   2.222   3.743 -1.0643 -0.1366  0.0431
 5275TIP3    H115831   1.138   2.156   3.811 -0.3548  1.1364  1.2196
 5275TIP3    H215832   1.214   2.235   3.707 -1.1031  0.5224  0.1788
 5276TIP3   OH215833   5.187   4.841   2.602  0.0639 -0.5351  0.3481
 5276TIP3    H115834   5.272   4.848   2.647  0.2487 -0.5718  0.0094
 5276TIP3    H215835   5.172   4.928   2.565  1.2836 -1.2185 -1.9379
 5277TIP3   OH215836   5.375   4.013   4.121  0.2006 -0.0346 -0.0123
 5277TIP3    H115837   5.435   4.077   4.083 -0.5047  1.2220  0.9131
 5277TIP3    H215838   5.422   3.977   4.196  0.6813 -0.7799 -0.6603
 5278TIP3   OH215839   5.735   1.287   3.695  0.3508 -0.1421 -0.4212
 5278TIP3    H115840   5.772   1.307   3.609  1.6432 -0.3440  0.0588
 5278TIP3    H215841   5.737   1.191   3.700 -2.5664 -0.3504 -1.3292
 5279TIP3   OH215842   5.292   1.666   0.034  0.3362  0.3547  0.1446
 5279TIP3    H115843   5.378   1.709   0.035  0.8983 -0.7377  1.4490
 5279TIP3    H215844   5.292   1.615  -0.048  0.6795  0.8200 -0.1533
 5280TIP3   OH215845   0.793   1.770   1.727 -0.5910  0.7413 -0.0551
 5280TIP3    H115846   0.755   1.857   1.716  0.7817  1.0204 -4.4071
 5280TIP3    H215847   0.761   1.720   1.651  0.5000 -1.8572  1.0711
 5281TIP3   OH215848   6.310   3.173   2.458 -0.2996 -0.1874  0.1078
 5281TIP3    H115849   6.238   3.208   2.510 -0.1458  0.0311  0.1715
 5281TIP3    H215850   6.324   3.085   2.494  0.7114  0.4586  1.3574
 5282TIP3   OH215851   4.290   3.924   3.905 -0.2985  0.7095  0.0611
 5282TIP3    H115852   4.313   4.014   3.929 -1.8497  1.9740 -2.7101
 5282TIP3    H215853   4.225   3.898   3.969 -0.8007  2.0882  0.1429
 5283TIP3   OH215854   4.946   5.858   4.294 -0.0937  0.0459 -0.4229
 5283TIP3    H115855   4.967   5.865   4.201  1.0802  0.3477 -0.1384
 5283TIP3    H215856   4.939   5.763   4.309 -0.4222 -0.0006 -0.8369
 5284TIP3   OH215857   1.725   4.452   4.354  0.4916  0.2869  0.6143
 5284TIP3    H115858   1.668   4.408   4.290  0.6081  1.1345 -0.0886
 5284TIP3    H215859   1.714   4.545   4.335  2.1785  0.4726  0.4002
 5285TIP3   OH215860   0.590   2.260   2.819  0.2206  0.7887  0.5393
 5285TIP3    H115861   0.608   2.273   2.726  0.1453  0.5004  0.4842
 5285TIP3    H215862   0.500   2.290   2.831 -0.9002 -2.0220 -0.1063
 5286TIP3   OH215863   1.643   3.196   4.921  0.5699 -0.0450 -0.1255
 5286TIP3    H115864   1.685   3.281   4.929 -1.7214  1.2209 -0.6998
 5286TIP3    H215865   1.588   3.189   4.999  0.8487 -1.0907 -0.0059
 5287TIP3   OH215866   3.106   2.326   2.384 -0.4770 -0.3026  0.1713
 5287TIP3    H115867   3.155   2.359   2.459  1.1754  4.3976 -2.5774
 5287TIP3    H215868   3.171   2.317   2.314 -2.6455  0.9367 -2.1723
 5288TIP3   OH215869   0.764   5.660   4.996 -0.2118 -0.5483  0.1816
 5288TIP3    H115870   0.847   5.621   4.971  0.0376 -0.1902  0.4466
 5288TIP3    H215871   0.720   5.591   5.047 -0.2637 -0.8871 -0.3196
 5289TIP3   OH215872   4.261   4.499   1.256 -0.5582  0.1625 -0.0220
 5289TIP3    H115873   4.330   4.559   1.286 -0.1816 -0.7348  0.9790
 5289TIP3    H215874   4.204   4.489   1.332 -0.5055 -0.8991 -0.1148
 5290TIP3   OH215875   1.196   5.801   1.024  0.3115  0.2255  0.1571
 5290TIP3    H115876   1.201   5.707   1.042  0.1113 -0.1365 -1.5745
 5290TIP3    H215877   1.280   5.822   0.985 -0.0611  0.5371 -0.4799
 5291TIP3   OH215878   6.290   1.436   0.755 -0.3094 -0.1882  0.0518
 5291TIP3    H115879   6.294   1.529   0.730 -0.2119 -0.0996  0.3986
 5291TIP3    H215880   6.370   1.398   0.719  0.3562  0.1637  1.1365
 5292TIP3   OH215881   3.119   4.466   1.338 -0.2654 -0.2487 -0.1039
 5292TIP3    H115882   3.100   4.560   1.344 -0.2045 -0.2370 -0.0911
 5292TIP3    H215883   3.035   4.424   1.353 -0.2212 -0.2044  0.2716
 5293TIP3   OH215884   1.247   5.059   3.427 -0.4738 -0.2383 -0.6469
 5293TIP3    H115885   1.228   5.009   3.507  0.6061  1.3471  0.6576
 5293TIP3    H215886   1.167   5.108   3.410 -0.0660  0.9866  0.7144
 5294TIP3   OH215887   1.098   0.180   4.385  0.1887 -0.0293  0.2918
 5294TIP3    H115888   1.029   0.161   4.448  0.3327  0.0572  0.4767
 5294TIP3    H215889   1.180   0.167   4.434  0.2965  0.9573  0.4028
 5295TIP3   OH215890   3.848   1.357   3.097  0.4275  0.0571  0.4947
 5295TIP3    H115891   3.774   1.417   3.086  0.4265 -0.1098 -0.4803
 5295TIP3    H215892   3.813   1.286   3.151 -0.6750 -0.9008 -1.3476
 5296TIP3   OH215893   2.803   1.722   2.432 -0.2318 -0.5860 -0.1320
 5296TIP3    H115894   2.891   1.728   2.396  0.0879 -0.3344  0.6653
 5296TIP3    H215895   2.747   1.761   2.364  0.4373  0.5086 -0.0824
 5297TIP3   OH215896   5.878   1.159   0.461  0.0836  0.1125  0.0896
 5297TIP3    H115897   5.825   1.097   0.511  1.6006 -1.7992 -0.5427
 5297TIP3    H215898   5.942   1.192   0.525  0.1062  0.0148  0.1167
 5298TIP3   OH215899   3.150   2.214   0.142 -0.0784 -0.7054  0.5414
 5298TIP3    H115900   3.195   2.263   0.212 -0.5674  1.2600 -0.4506
 5298TIP3    H215901   3.057   2.228   0.159 -0.2316 -1.2377  0.1760
 5299TIP3   OH215902   3.166   1.445   0.737 -0.3406 -0.3903  0.4457
 5299TIP3    H115903   3.219   1.366   0.737  1.0144  0.4746  0.6012
 5299TIP3    H215904   3.117   1.441   0.819  0.7626 -0.4276  1.1322
 5300TIP3   OH215905   5.217   0.910   2.688 -0.8633  0.0129  0.3126
 5300TIP3    H115906   5.170   0.858   2.623 -1.1785 -1.1743  1.4550
 5300TIP3    H215907   5.179   0.884   2.772  0.9102 -0.0160  1.1506
 5301TIP3   OH215908   1.023   1.383   2.949 -0.2326 -0.1738  0.1552
 5301TIP3    H115909   1.012   1.461   2.894  0.2812 -0.2649 -0.0856
 5301TIP3    H215910   0.981   1.405   3.032 -0.2585  0.2853  0.0213
 5302TIP3   OH215911   0.397   1.756   5.036  0.4377  0.2171  0.4379
 5302TIP3    H115912   0.363   1.838   5.070  0.2216  1.2969 -2.1590
 5302TIP3    H215913   0.338   1.689   5.071 -0.1988  1.2960  1.5004
 5303TIP3   OH215914   3.199   5.443   2.197  0.6718 -0.0519 -0.2545
 5303TIP3    H115915   3.110   5.419   2.222  0.6034  1.7282  1.5099
 5303TIP3    H215916   3.223   5.380   2.129 -1.7885 -0.7921 -0.5428
 5304TIP3   OH215917   0.621   2.462   0.732  0.1460  0.2196  0.2519
 5304TIP3    H115918   0.642   2.553   0.753 -1.9482  0.7672  0.1660
 5304TIP3    H215919   0.593   2.464   0.641  0.7743 -0.6589  0.0246
 5305TIP3   OH215920   4.564   5.030   5.008  0.1874  0.1506 -0.0118
 5305TIP3    H115921   4.560   4.958   4.945  0.2245  0.4031 -0.3056
 5305TIP3    H215922   4.518   4.997   5.085  1.9786 -0.9482  0.6380
 5306TIP3   OH215923   2.022   3.785   0.346 -0.1250 -0.3295  0.3215
 5306TIP3    H115924   2.023   3.718   0.278  0.7635  0.6462 -0.6540
 5306TIP3    H215925   1.938   3.830   0.334 -0.8509 -1.4057  1.1573
 5307TIP3   OH215926   1.187   3.542   3.581  0.3405  0.2234  0.7749
 5307TIP3    H115927   1.132   3.526   3.505  0.0101  0.0439  1.0470
 5307TIP3    H215928   1.133   3.515   3.656 -0.2010  2.4571  1.2569
 5308TIP3   OH215929   4.343   5.204   5.011  0.2382 -0.4474 -0.0047
 5308TIP3    H115930   4.425   5.156   5.000  0.4164 -0.1095 -0.1539
 5308TIP3    H215931   4.355   5.284   4.961 -0.1922 -0.4063 -0.0431
 5309TIP3   OH215932   1.344   1.620   4.049 -0.4665  0.2053 -0.1370
 5309TIP3    H115933   1.409   1.586   4.110  0.6312  0.0866 -1.3244
 5309TIP3    H215934   1.263   1.623   4.100  0.3179 -0.2301  1.2044
 5310TIP3   OH215935   3.053   3.389   4.811 -0.2607  0.7920 -0.0518
 5310TIP3    H115936   3.053   3.312   4.755 -1.5958  0.8569 -0.1767
 5310TIP3    H215937   3.128   3.376   4.870  0.7860  0.4297 -1.4075
 5311TIP3   OH215938   3.733   3.022   4.133 -0.2200 -0.3333  0.4032
 5311TIP3    H115939   3.699   2.987   4.216  0.2353  1.4094  1.3786
 5311TIP3    H215940   3.812   2.971   4.117 -0.3146 -0.6960  1.0446
 5312TIP3   OH215941   0.491   4.187   1.971 -0.3934  0.2802 -0.2377
 5312TIP3    H115942   0.410   4.227   2.002 -0.6544  0.5322 -1.2232
 5312TIP3    H215943   0.483   4.095   1.997 -0.7207  0.4267  0.2003
 5313TIP3   OH215944   5.733   0.722   4.574  0.3798 -0.5335 -0.2781
 5313TIP3    H115945   5.778   0.646   4.536  0.3162 -0.7083 -0.0058
 5313TIP3    H215946   5.704   0.773   4.498  1.7856  0.0266 -0.4706
 5314TIP3   OH215947   2.177   3.929   5.088 -0.0158  0.0728  0.0249
 5314TIP3    H115948   2.263   3.921   5.047 -0.5419  1.3656 -1.4168
 5314TIP3    H215949   2.122   3.865   5.042 -0.0891 -0.0251  0.2440
 5315TIP3   OH215950   3.395   1.414   3.901  0.1959 -0.1631 -0.3311
 5315TIP3    H115951   3.459   1.402   3.971 -2.2196 -0.1955  2.0113
 5315TIP3    H215952   3.448   1.422   3.821  3.1660  1.3306  1.6271
 5316TIP3   OH215953   5.436   5.534   2.328  0.5018 -0.4304  0.1332
 5316TIP3    H115954   5.525   5.504   2.345  0.5277  0.0273  0.8945
 5316TIP3    H215955   5.381   5.456   2.341  0.7662 -0.6553 -0.0939
 5317TIP3   OH215956   1.185   4.125   1.184 -0.3778 -0.1919  0.2686
 5317TIP3    H115957   1.160   4.079   1.265  1.6082  0.2192  1.1798
 5317TIP3    H215958   1.252   4.069   1.144 -1.5408 -0.5315 -1.2958
 5318TIP3   OH215959   2.447   4.066   4.558 -0.4099  0.1578  0.0144
 5318TIP3    H115960   2.408   3.979   4.567 -0.3471  0.1802  0.5715
 5318TIP3    H215961   2.375   4.122   4.528 -0.8960  0.2495  1.2812
 5319TIP3   OH215962   3.121   1.225   1.799  0.6190  0.3651 -0.1564
 5319TIP3    H115963   3.209   1.201   1.829  0.1453 -0.2606  0.7715
 5319TIP3    H215964   3.082   1.272   1.873 -0.2932 -0.5216 -0.0515
 5320TIP3   OH215965   1.869   4.499   3.088 -0.2137  0.6364 -0.1568
 5320TIP3    H115966   1.829   4.458   3.165 -2.3841  2.0352 -0.4666
 5320TIP3    H215967   1.923   4.570   3.124  1.1696 -0.5231  0.1838
 5321TIP3   OH215968   5.527   2.379   1.204 -0.4084  0.5872 -0.1288
 5321TIP3    H115969   5.516   2.399   1.111 -1.8018 -0.3662 -0.2064
 5321TIP3    H215970   5.559   2.289   1.205 -3.7689 -0.7589  0.2803
 5322TIP3   OH215971   5.248   1.047   3.472  0.4777  0.7535 -0.0373
 5322TIP3    H115972   5.309   1.099   3.524  0.4362  0.4362  0.3365
 5322TIP3    H215973   5.197   1.111   3.422 -0.0462  1.1139  0.9322
 5323TIP3   OH215974   4.144   2.348   1.941 -0.1572 -0.3717  0.2720
 5323TIP3    H115975   4.094   2.428   1.927  0.0017 -0.2338  0.5014
 5323TIP3    H215976   4.212   2.349   1.874  0.5567  0.2510  0.9831
 5324TIP3   OH215977   5.381   5.023   2.480  0.4539 -0.4515 -0.2126
 5324TIP3    H115978   5.313   5.074   2.522 -0.4393 -0.4845 -1.5620
 5324TIP3    H215979   5.463   5.065   2.506 -0.1932  0.8946 -0.2726
 5325TIP3   OH215980   5.400   3.350   0.911  0.0316  0.0696  0.0301
 5325TIP3    H115981   5.328   3.373   0.853 -1.0714  0.5140  1.5049
 5325TIP3    H215982   5.418   3.429   0.961  1.6853  0.0148 -0.4200
 5326TIP3   OH215983   5.759   4.650   3.033  0.1668  0.6304 -0.2840
 5326TIP3    H115984   5.832   4.629   2.975  0.2234 -0.5865  0.2079
 5326TIP3    H215985   5.796   4.646   3.121 -1.2103 -3.9398  0.3339
 5327TIP3   OH215986   6.033   2.850   3.552  0.2498  0.2334 -0.5439
 5327TIP3    H115987   6.052   2.786   3.620  1.4073  1.6399  0.5418
 5327TIP3    H215988   5.937   2.850   3.544  0.0702  0.1782  1.2688
 5328TIP3   OH215989   3.841   1.582   2.311  0.9192  0.0508  0.2381
 5328TIP3    H115990   3.889   1.527   2.373  1.2447 -0.4806 -0.4717
 5328TIP3    H215991   3.880   1.562   2.226 -0.8036 -0.6948 -0.4236
 5329TIP3   OH215992   5.206   0.735   0.523  0.1307  0.5406 -0.0163
 5329TIP3    H115993   5.138   0.771   0.466  0.7447 -0.5311 -1.4859
 5329TIP3    H215994   5.160   0.673   0.579 -0.2613  0.6003 -0.2681
 5330TIP3   OH215995   1.619   2.641   2.917  0.3930  0.2152  0.2659
 5330TIP3    H115996   1.645   2.644   3.010  0.6292  0.7080  0.1892
 5330TIP3    H215997   1.683   2.698   2.874 -0.3181  0.7711 -0.0561
 5331TIP3   OH215998   3.939   0.889   4.845 -0.4423  0.0634  0.4095
 5331TIP3    H115999   3.978   0.975   4.831  1.3127 -0.4369  1.9551
 5331TIP3    H216000   3.950   0.844   4.761  1.4076  0.3083  0.4912
 5332TIP3   OH216001   2.980   2.112   0.766 -0.6459 -0.0500 -0.1118
 5332TIP3    H116002   2.998   2.056   0.841 -0.1021 -1.1239 -1.0057
 5332TIP3    H216003   2.914   2.174   0.797 -2.4807 -2.1748  0.5106
 5333TIP3   OH216004   1.737   3.644   1.718  0.1968 -0.4036 -0.0909
 5333TIP3    H116005   1.711   3.568   1.770 -1.6207  1.3411  1.7673
 5333TIP3    H216006   1.813   3.614   1.668 -0.4381 -3.4065  0.5259
 5334TIP3   OH216007   3.640   5.173   2.632 -0.4171  0.4210 -0.6015
 5334TIP3    H116008   3.694   5.098   2.655  0.6485  1.5087  0.6003
 5334TIP3    H216009   3.550   5.142   2.646  0.0276 -0.4067  0.6533
 5335TIP3   OH216010   5.554   2.118   2.762  0.2849  0.3989 -0.0221
 5335TIP3    H116011   5.491   2.154   2.700  1.4072  2.1096 -0.2177
 5335TIP3    H216012   5.535   2.163   2.845  1.2842  1.0115 -0.1070
 5336TIP3   OH216013   4.725   0.638  -0.022 -0.0404 -0.0797  0.2373
 5336TIP3    H116014   4.739   0.544  -0.015  0.7482  0.0710  0.9625
 5336TIP3    H216015   4.696   0.664   0.066  2.2562  0.7143  0.8248
 5337TIP3   OH216016   1.008   1.500   1.609  0.4478  0.2143  0.4309
 5337TIP3    H116017   1.047   1.450   1.681  1.4782  1.1545  0.5434
 5337TIP3    H216018   1.021   1.445   1.532 -0.5957 -0.7664  0.9261
 5338TIP3   OH216019   2.454   0.620   2.789 -0.1962 -0.1012  0.1394
 5338TIP3    H116020   2.488   0.626   2.878 -1.5686  0.3585  0.6444
 5338TIP3    H216021   2.360   0.610   2.799 -0.4106  0.2470 -1.2711
 5339TIP3   OH216022   5.794   4.836   4.313 -0.2997 -0.1818 -0.2781
 5339TIP3    H116023   5.844   4.846   4.394 -0.8862 -0.1236  0.0810
 5339TIP3    H216024   5.704   4.827   4.341 -0.4562 -0.6583 -0.9038
 5340TIP3   OH216025   5.138   3.211   1.120 -0.2630  0.1203  0.4255
 5340TIP3    H116026   5.206   3.160   1.076 -1.3038  0.1155 -1.2263
 5340TIP3    H216027   5.181   3.293   1.143  1.4109 -1.3381  3.0236
 5341TIP3   OH216028   4.684   5.702   2.860  0.8427  0.0402  1.2975
 5341TIP3    H116029   4.604   5.686   2.809  1.9096  1.6324 -1.1216
 5341TIP3    H216030   4.707   5.617   2.897 -1.6519 -0.5672  1.6504
 5342TIP3   OH216031   2.544   4.433   5.007 -0.0392  0.3023 -0.6886
 5342TIP3    H116032   2.453   4.431   4.976  0.4659 -0.9999 -2.2763
 5342TIP3    H216033   2.596   4.436   4.927  1.3613 -2.4122 -0.0248
 5343TIP3   OH216034   2.849   1.114   3.596  0.5586 -0.1137  0.0470
 5343TIP3    H116035   2.860   1.132   3.689 -3.2530 -0.4596  0.7297
 5343TIP3    H216036   2.838   1.201   3.556  0.1639 -0.0534  0.2827
 5344TIP3   OH216037   3.589   2.862   5.025 -0.3693 -0.6477 -0.2831
 5344TIP3    H116038   3.562   2.774   5.051  2.1859 -1.3392  0.3320
 5344TIP3    H216039   3.572   2.916   5.102  3.5471 -1.9268  1.8003
 5345TIP3   OH216040   1.730   4.116   2.218 -0.5780 -0.2433 -0.2187
 5345TIP3    H116041   1.813   4.092   2.260 -0.8580 -1.7233 -0.4667
 5345TIP3    H216042   1.663   4.095   2.284 -0.9211 -1.3850 -0.8882
 5346TIP3   OH216043   5.807   1.835   0.313 -0.1393  0.6305  0.1093
 5346TIP3    H116044   5.818   1.812   0.406 -1.4523 -1.0690 -0.0976
 5346TIP3    H216045   5.893   1.822   0.274  0.2713  0.7143  0.9650
 5347TIP3   OH216046   5.344   2.889   2.849 -0.1219 -0.5036  0.3931
 5347TIP3    H116047   5.295   2.807   2.854 -0.1191 -0.5716 -0.5127
 5347TIP3    H216048   5.371   2.907   2.939 -2.3252 -0.1469  1.0511
 5348TIP3   OH216049   3.457   2.804   1.237 -0.3098  0.0959 -0.0947
 5348TIP3    H116050   3.468   2.899   1.233 -1.4619  0.2121 -1.1418
 5348TIP3    H216051   3.515   2.770   1.169  0.1913  0.0330  0.3596
 5349TIP3   OH216052   1.751   4.745   3.759  0.1286 -0.4987  0.2481
 5349TIP3    H116053   1.698   4.821   3.733  0.6359 -0.1046  0.3598
 5349TIP3    H216054   1.737   4.737   3.854  0.2894 -0.3795  0.2817
 5350TIP3   OH216055   0.552   0.581   2.863 -0.3801  0.2689  0.0011
 5350TIP3    H116056   0.599   0.596   2.781 -1.2356 -1.8713 -0.9669
 5350TIP3    H216057   0.467   0.624   2.849 -0.3070  0.4243  0.0257
 5351TIP3   OH216058   5.115   1.760   4.370 -0.2725  0.4166 -0.0164
 5351TIP3    H116059   5.126   1.755   4.465  0.4905 -0.0173 -0.1179
 5351TIP3    H216060   5.096   1.670   4.344  0.0999  0.4312 -0.3431
 5352TIP3   OH216061   4.552   0.397   3.876  0.8162 -0.2254 -0.0854
 5352TIP3    H116062   4.513   0.476   3.912 -0.6817 -0.0580 -1.8842
 5352TIP3    H216063   4.532   0.329   3.940  1.1942  0.6406  0.9764
 5353TIP3   OH216064   1.397   0.342   1.523  0.0700 -0.1798  0.4586
 5353TIP3    H116065   1.455   0.278   1.480  0.6559  1.5032 -1.3841
 5353TIP3    H216066   1.315   0.337   1.473 -0.4192 -0.5506  1.2807
 5354TIP3   OH216067   0.295   4.937   0.157  0.2779 -0.3595 -0.7785
 5354TIP3    H116068   0.243   4.970   0.084  1.0066  1.1919 -0.6378
 5354TIP3    H216069   0.241   4.868   0.196 -2.5638  2.3295  0.4788
 5355TIP3   OH216070   1.920   2.156   2.978 -0.4117  0.0922  0.1580
 5355TIP3    H116071   1.937   2.236   2.928  3.0568 -1.8142 -2.0890
 5355TIP3    H216072   1.834   2.127   2.948 -1.0450  2.1098 -0.1197
 5356TIP3   OH216073   2.896   3.143   1.939  0.0708 -0.1424 -0.0354
 5356TIP3    H116074   2.972   3.132   1.996  0.8228  1.7096 -0.5987
 5356TIP3    H216075   2.834   3.194   1.992 -0.6895 -1.3722  0.3082
 5357TIP3   OH216076   6.104   2.169   0.377 -0.6046  0.4947  0.0645
 5357TIP3    H116077   6.071   2.130   0.296 -0.6472 -2.4768  1.3695
 5357TIP3    H216078   6.170   2.107   0.408  0.9697  2.6379  1.2544
 5358TIP3   OH216079   4.879   4.839   1.102 -0.0621 -0.5005 -0.1874
 5358TIP3    H116080   4.935   4.761   1.108  1.3224  0.5766  1.9493
 5358TIP3    H216081   4.932   4.903   1.054 -0.1157  0.0036  0.4227
 5359TIP3   OH216082   1.075   1.772   1.612  0.1437 -0.5026  0.4367
 5359TIP3    H116083   1.070   1.678   1.599  1.7991 -0.4470 -0.9219
 5359TIP3    H216084   0.995   1.807   1.573 -0.4136 -1.3229  0.8328
 5360TIP3   OH216085   2.476   2.884   3.704  0.2431  0.2891 -0.5293
 5360TIP3    H116086   2.398   2.893   3.759  0.2199 -1.7083 -0.1737
 5360TIP3    H216087   2.449   2.824   3.634  1.3273 -0.0702 -0.6568
 5361TIP3   OH216088   3.554   1.105   0.393 -0.5522 -0.1960 -0.0374
 5361TIP3    H116089   3.615   1.043   0.355  0.1158 -1.4249  2.8109
 5361TIP3    H216090   3.603   1.150   0.461 -2.5228 -0.5893  1.7593
 5362TIP3   OH216091   3.943   0.571   0.047 -0.6664  0.1389  0.1748
 5362TIP3    H116092   3.861   0.607   0.080  0.2987  1.6023  1.1355
 5362TIP3    H216093   3.975   0.516   0.119 -1.3533 -1.4129 -0.6657
 5363TIP3   OH216094   1.457   0.316   2.815  0.5126  0.3269 -0.0332
 5363TIP3    H116095   1.460   0.254   2.742 -2.5330 -3.4570  2.6583
 5363TIP3    H216096   1.398   0.385   2.785 -0.5538 -1.0481 -1.2204
 5364TIP3   OH216097   5.565   5.413   5.130  0.6100 -0.2297 -0.5683
 5364TIP3    H116098   5.595   5.369   5.209 -0.0464 -1.1748 -0.8172
 5364TIP3    H216099   5.632   5.393   5.064  0.9865  0.2767 -0.3441
 5365TIP3   OH216100   2.409   3.560   5.101 -0.0636 -0.1486  0.1333
 5365TIP3    H116101   2.409   3.578   5.007 -0.3012 -1.4776 -0.1410
 5365TIP3    H216102   2.393   3.645   5.142 -1.7694  0.1666 -1.0838
 5366TIP3   OH216103   1.510   4.026   3.448  0.5375  0.4350  0.1733
 5366TIP3    H116104   1.512   3.932   3.462  1.6759  0.1561 -1.5199
 5366TIP3    H216105   1.417   4.049   3.450  0.3204 -0.2311  3.1077
 5367TIP3   OH216106   3.420   2.566   3.594 -0.2184  0.0802 -0.2613
 5367TIP3    H116107   3.474   2.489   3.577  0.9758  0.7921  0.0879
 5367TIP3    H216108   3.475   2.620   3.652 -1.5805  0.5635  0.6300
 5368TIP3   OH216109   4.789   4.407   1.158  0.0168 -0.2229  0.0185
 5368TIP3    H116110   4.724   4.423   1.089 -0.9024  0.3953  0.9830
 5368TIP3    H216111   4.831   4.325   1.133  0.1537  0.3009 -1.6004
 5369TIP3   OH216112   5.184   3.991   3.923 -0.4019  0.6460  0.2529
 5369TIP3    H116113   5.124   4.064   3.939 -1.6297  0.0251 -1.2302
 5369TIP3    H216114   5.244   3.992   3.997 -1.9966  1.5666  1.5990
 5370TIP3   OH216115   1.516   5.973   1.236 -0.0482 -0.1424 -0.0903
 5370TIP3    H116116   1.432   6.013   1.260 -1.2447 -2.5734  0.0605
 5370TIP3    H216117   1.513   5.886   1.275  2.2013 -0.6186 -0.8358
 5371TIP3   OH216118   3.022   2.068   1.422  0.1201  0.1804 -0.0627
 5371TIP3    H116119   3.089   2.136   1.431  0.4837 -0.2245  0.3233
 5371TIP3    H216120   3.071   1.986   1.423 -0.3762 -0.1162  0.1403
 5372TIP3   OH216121   4.619   3.567   1.200 -0.4454 -0.4927  0.7370
 5372TIP3    H116122   4.550   3.628   1.175  0.5736  0.5957  0.4839
 5372TIP3    H216123   4.668   3.612   1.269  1.6478 -0.0208 -0.9193
 5373TIP3   OH216124   5.990   4.356   4.028 -0.0240  0.0760 -0.0897
 5373TIP3    H116125   5.903   4.385   4.057 -0.0137  1.0113 -0.9187
 5373TIP3    H216126   6.036   4.437   4.005  1.0882 -0.4028  0.3607
 5374TIP3   OH216127   4.525   1.938   0.867  0.2415  0.0033 -0.4741
 5374TIP3    H116128   4.486   1.851   0.876  1.2690 -0.4607 -0.3312
 5374TIP3    H216129   4.503   1.983   0.948 -0.4011 -0.0833 -0.6000
 5375TIP3   OH216130   5.563   1.733   0.192  0.4182 -0.5829 -0.0668
 5375TIP3    H116131   5.651   1.762   0.215  0.2122 -0.1161  0.1346
 5375TIP3    H216132   5.539   1.672   0.262 -0.5117  1.4133  1.4659
 5376TIP3   OH216133   0.859   4.951   0.628 -0.3663  0.2257  0.2593
 5376TIP3    H116134   0.918   4.948   0.703  0.6098 -0.8420 -0.5098
 5376TIP3    H216135   0.825   5.040   0.627  0.7769  0.6923  1.0807
 5377TIP3   OH216136   1.923   3.323   4.035  0.0773 -0.2309 -0.4557
 5377TIP3    H116137   1.887   3.274   3.961 -1.1935 -0.1238  0.0708
 5377TIP3    H216138   1.854   3.321   4.101  0.8206  0.4965  0.3655
 5378TIP3   OH216139   4.491   4.977   1.782 -0.2416 -0.0613 -0.2169
 5378TIP3    H116140   4.415   5.028   1.809 -0.6387 -1.4428  1.4159
 5378TIP3    H216141   4.565   5.017   1.828  0.1370  1.4649 -2.0293
 5379TIP3   OH216142   4.938   4.678   3.238  0.3618 -0.0380  0.4798
 5379TIP3    H116143   4.958   4.771   3.255 -1.0684  0.8038 -1.9581
 5379TIP3    H216144   4.991   4.656   3.162 -1.6631 -0.2223 -0.9306
 5380TIP3   OH216145   6.151   0.144   4.046  0.4726 -0.5459 -0.0756
 5380TIP3    H116146   6.124   0.070   3.992 -2.8938  0.2685  0.3067
 5380TIP3    H216147   6.133   0.221   3.992  1.3278  0.1220  0.5611
 5381TIP3   OH216148   4.411   5.346   2.288  0.3234  0.1817  0.3363
 5381TIP3    H116149   4.394   5.273   2.348  0.9474  1.0611  1.6368
 5381TIP3    H216150   4.432   5.419   2.346  1.3467  0.9655 -0.9784
 5382TIP3   OH216151   0.464   0.467   0.089 -0.0684  0.5839  0.8846
 5382TIP3    H116152   0.426   0.503   0.009  1.2626  3.2029  1.3160
 5382TIP3    H216153   0.430   0.522   0.159  1.4288  0.5167  1.7093
 5383TIP3   OH216154   0.795   2.925   0.843  0.0367  0.3650  0.2411
 5383TIP3    H116155   0.808   2.957   0.932 -0.5185 -0.7203  0.7295
 5383TIP3    H216156   0.831   2.994   0.787 -0.5218  1.5197  1.2672
 5384TIP3   OH216157   5.851   1.326   4.390 -0.1640  0.5156  0.4521
 5384TIP3    H116158   5.882   1.258   4.450  0.0624  0.3722  0.1748
 5384TIP3    H216159   5.846   1.405   4.444 -1.2782  0.0922  0.9931
 5385TIP3   OH216160   2.400   5.762   0.343  0.0081  0.4129  0.5119
 5385TIP3    H116161   2.360   5.767   0.430  0.7348  1.2526  0.8241
 5385TIP3    H216162   2.363   5.837   0.296 -1.5261 -0.8798 -0.4394
 5386TIP3   OH216163   2.067   5.015   3.338  0.7886  0.0705  0.6137
 5386TIP3    H116164   2.063   5.106   3.308  2.4798  0.0589  0.1958
 5386TIP3    H216165   2.153   5.008   3.381  0.8542 -1.4180  0.3005
 5387TIP3   OH216166   4.721   2.739   3.292  0.5682  0.2293  0.8293
 5387TIP3    H116167   4.683   2.826   3.304 -0.2519 -0.1498  1.0439
 5387TIP3    H216168   4.646   2.683   3.269  1.3057 -0.1240 -0.8570
 5388TIP3   OH216169   0.870   4.684   4.293  0.1940  0.2013 -0.1687
 5388TIP3    H116170   0.919   4.623   4.347  0.3870  0.2758 -0.2595
 5388TIP3    H216171   0.803   4.719   4.351 -0.8252 -1.1456 -0.4880
 5389TIP3   OH216172   4.884   4.847   0.500  0.3201  0.1208 -0.3605
 5389TIP3    H116173   4.873   4.767   0.448  1.0178 -0.0667 -0.2349
 5389TIP3    H216174   4.846   4.825   0.585 -0.5681  0.3322 -0.6949
 5390TIP3   OH216175   0.327   2.989   4.959 -0.0881  0.5518  0.1137
 5390TIP3    H116176   0.370   2.904   4.962  0.3157  0.7900  1.7219
 5390TIP3    H216177   0.233   2.968   4.958  0.0066  0.0922  0.6925
 5391TIP3   OH216178   5.117   0.155   4.325 -0.4273  0.4687  0.0257
 5391TIP3    H116179   5.081   0.189   4.243 -0.8972 -0.6171 -0.2365
 5391TIP3    H216180   5.072   0.071   4.338  1.1246 -0.3509  0.3256
 5392TIP3   OH216181   6.181   0.995   4.148  0.1559 -0.2540 -0.2097
 5392TIP3    H116182   6.143   0.908   4.161  2.4829 -1.3490 -0.1699
 5392TIP3    H216183   6.211   1.021   4.235 -3.6259  2.3314  0.5975
 5393TIP3   OH216184   3.793   1.302   0.268 -0.5283 -0.3274  0.5596
 5393TIP3    H116185   3.798   1.215   0.229  0.3303  0.6701 -1.7521
 5393TIP3    H216186   3.700   1.320   0.278 -0.7217 -1.2449  0.4350
 5394TIP3   OH216187   3.090   5.382   3.105  0.3424  0.5339  0.2957
 5394TIP3    H116188   3.177   5.401   3.141  0.5577 -0.1238  0.1313
 5394TIP3    H216189   3.088   5.287   3.095  0.1395  0.6609 -1.0556
 5395TIP3   OH216190   5.921   3.221   2.341 -0.0924 -0.1485 -0.1707
 5395TIP3    H116191   5.991   3.269   2.297 -0.4282  0.2856 -0.2423
 5395TIP3    H216192   5.862   3.290   2.372  0.9278 -0.2936  2.3680
 5396TIP3   OH216193   4.412   0.037   2.422 -0.3471 -0.1471 -0.1031
 5396TIP3    H116194   4.389   0.006   2.335 -0.1755  1.5275 -0.7762
 5396TIP3    H216195   4.406   0.132   2.417 -0.0923  0.0072  1.6479
 5397TIP3   OH216196   3.122   1.438   2.837  0.3358 -0.0500 -0.8885
 5397TIP3    H116197   3.146   1.530   2.825 -1.0441  0.1848 -2.0949
 5397TIP3    H216198   3.027   1.437   2.830  0.2919 -1.5110 -0.3605
 5398TIP3   OH216199   4.026   3.597   0.091  0.1693 -0.3232 -0.3268
 5398TIP3    H116200   3.978   3.521   0.126  0.7678 -0.6626 -0.2328
 5398TIP3    H216201   4.005   3.597  -0.002  0.8687 -1.1373 -0.4945
 5399TIP3   OH216202   3.695   5.690   4.541  0.4960  1.2793  0.0502
 5399TIP3    H116203   3.776   5.686   4.489  0.8084  1.4219  0.5193
 5399TIP3    H216204   3.672   5.599   4.558 -0.1102  1.2038 -1.1024
 5400TIP3   OH216205   6.281   4.915   2.553 -0.2296 -0.3084 -0.1776
 5400TIP3    H116206   6.190   4.922   2.579  0.1875 -0.9238  1.5581
 5400TIP3    H216207   6.278   4.890   2.460 -1.8260 -1.6957  0.2035
 5401TIP3   OH216208   1.645   2.270   3.502 -0.5505  0.2274  0.0498
 5401TIP3    H116209   1.707   2.256   3.573  0.0571  1.5340 -0.1920
 5401TIP3    H216210   1.674   2.210   3.433 -1.1677 -1.0735  0.8773
 5402TIP3   OH216211   6.251   4.908   3.445  0.2609 -0.5442 -0.6392
 5402TIP3    H116212   6.260   4.841   3.513  2.6908  0.9504  0.6307
 5402TIP3    H216213   6.319   4.887   3.382  0.3427  0.1055 -0.7689
 5403TIP3   OH216214   2.578   1.724   2.995 -0.3528 -0.2470  0.5301
 5403TIP3    H116215   2.671   1.713   2.977 -0.4035  0.9387 -0.5425
 5403TIP3    H216216   2.566   1.686   3.083  1.2056 -0.0149  0.8636
 5404TIP3   OH216217   2.694   5.375   4.613  0.2017  0.2580 -0.5792
 5404TIP3    H116218   2.635   5.427   4.668  1.3539 -0.1049  1.0630
 5404TIP3    H216219   2.637   5.309   4.573 -0.2159 -2.2851  3.5998
 5405TIP3   OH216220   2.009   4.925   3.747  0.3172 -0.2776 -0.4233
 5405TIP3    H116221   2.104   4.915   3.750  0.4140  0.7162  1.4084
 5405TIP3    H216222   1.976   4.836   3.736  1.4413 -0.4906 -2.8201
 5406TIP3   OH216223   6.280   4.610   1.555  0.1707 -0.2314  0.0849
 5406TIP3    H116224   6.226   4.632   1.479 -0.7988 -1.2511  0.4306
 5406TIP3    H216225   6.263   4.516   1.568  0.5262 -0.1238  1.3879
 5407TIP3   OH216226   3.334   5.462   2.953 -0.0273 -0.2142 -0.2422
 5407TIP3    H116227   3.375   5.490   2.871 -0.4852  0.9695 -0.0804
 5407TIP3    H216228   3.314   5.369   2.939 -2.7985  0.6111 -2.6423
 5408TIP3   OH216229   1.161   1.091   0.519 -0.2122  0.2793 -0.3278
 5408TIP3    H116230   1.185   1.012   0.568 -1.3647  0.4420  0.5486
 5408TIP3    H216231   1.192   1.164   0.574  0.4184  0.4521 -0.9009
 5409TIP3   OH216232   3.272   1.465   0.480 -0.7268 -0.2885 -0.5951
 5409TIP3    H116233   3.232   1.390   0.435 -2.3189  0.8961 -1.2249
 5409TIP3    H216234   3.220   1.476   0.559 -0.4801  0.1562 -0.4950
 5410TIP3   OH216235   6.303   4.612   1.953 -0.3562  0.1605  0.7901
 5410TIP3    H116236   6.333   4.671   1.884 -0.1810  2.2596  2.5635
 5410TIP3    H216237   6.383   4.586   1.998 -0.6988  1.4568  2.2039
 5411TIP3   OH216238   0.721   2.509   4.839 -0.1394  0.0955  0.5667
 5411TIP3    H116239   0.690   2.516   4.930 -0.0723 -0.5387  0.6415
 5411TIP3    H216240   0.795   2.448   4.844  0.4119  0.7232  0.2171
 5412TIP3   OH216241   1.844   0.212   1.434 -0.4123 -0.7318 -0.0505
 5412TIP3    H116242   1.780   0.248   1.496  1.5230 -0.7536  2.1218
 5412TIP3    H216243   1.836   0.117   1.445  0.6295 -0.7230  1.0134
 5413TIP3   OH216244   2.150   3.819   2.222  0.2052 -0.1055 -0.3749
 5413TIP3    H116245   2.208   3.875   2.170 -1.0490  0.2272 -1.4862
 5413TIP3    H216246   2.143   3.739   2.171  0.5125 -0.5613  0.2850
 5414TIP3   OH216247   0.638   0.375   2.089 -0.5389  0.5110 -0.2401
 5414TIP3    H116248   0.584   0.378   2.168 -0.2907  1.2061 -0.0893
 5414TIP3    H216249   0.629   0.462   2.050 -1.1813 -0.0219 -1.3417
 5415TIP3   OH216250   1.117   3.883   3.552 -0.5227  0.2686 -0.0689
 5415TIP3    H116251   1.198   3.832   3.559 -0.7720 -0.0977  0.2283
 5415TIP3    H216252   1.055   3.836   3.608 -1.2122 -0.0024 -1.0333
 5416TIP3   OH216253   2.923   0.841   1.618 -0.5843 -0.4464  0.0995
 5416TIP3    H116254   2.840   0.848   1.570 -0.9770  1.7539  0.9466
 5416TIP3    H216255   2.908   0.891   1.698  1.4793 -0.2625  0.4259
 5417TIP3   OH216256   0.577   3.664   4.890  0.0704 -0.0661 -0.6176
 5417TIP3    H116257   0.551   3.663   4.982 -1.0415 -1.3250 -0.9096
 5417TIP3    H216258   0.666   3.628   4.890  0.3925  0.7094  0.0362
 5418TIP3   OH216259   1.748   1.336   2.190  0.3505 -0.0053  0.3512
 5418TIP3    H116260   1.693   1.322   2.267  1.8647 -1.2165  1.2619
 5418TIP3    H216261   1.836   1.311   2.218  1.0064 -0.1584 -1.6724
 5419TIP3   OH216262   3.830   1.780   1.610  0.0944  0.0712  0.4492
 5419TIP3    H116263   3.787   1.852   1.656  0.6432  2.6486 -2.7201
 5419TIP3    H216264   3.922   1.808   1.602  0.9643 -2.2639  1.3738
 5420TIP3   OH216265   0.218   0.612   2.127 -0.3932 -0.1551 -0.1656
 5420TIP3    H116266   0.155   0.568   2.185 -0.3818  1.3574  1.0686
 5420TIP3    H216267   0.247   0.544   2.067 -0.7738 -1.6899  1.3064
 5421TIP3   OH216268   2.760   4.492   3.800  0.1399 -0.7419 -0.1229
 5421TIP3    H116269   2.810   4.506   3.719 -0.8226  1.4144 -0.4206
 5421TIP3    H216270   2.669   4.506   3.774 -0.3899 -2.1226  0.9244
 5422TIP3   OH216271   1.494   2.400   1.027  0.1093 -0.3437  0.4624
 5422TIP3    H116272   1.514   2.451   1.105  0.0852 -0.7182  0.7121
 5422TIP3    H216273   1.475   2.312   1.059  2.5589 -1.1739 -0.1418
 5423TIP3   OH216274   5.727   3.428   0.256 -0.3548 -0.4147 -0.3371
 5423TIP3    H116275   5.790   3.480   0.206  1.4860  0.9990  3.1303
 5423TIP3    H216276   5.680   3.492   0.309  0.7638 -1.9832  2.8027
 5424TIP3   OH216277   0.730   5.315   3.656 -0.2963  0.3149  0.3279
 5424TIP3    H116278   0.764   5.225   3.662 -2.3208 -0.5479 -0.3442
 5424TIP3    H216279   0.759   5.356   3.737 -0.2925 -1.3178  1.2093
 5425TIP3   OH216280   5.541   5.359   1.078 -0.0560  0.1184  0.1933
 5425TIP3    H116281   5.624   5.380   1.035 -0.6009 -1.0751 -1.5908
 5425TIP3    H216282   5.496   5.301   1.016 -2.4483  1.1316  0.8517
 5426TIP3   OH216283   2.300   1.463   0.346  0.4110  0.2763  0.2178
 5426TIP3    H116284   2.280   1.433   0.258 -2.2632  4.3107 -0.8529
 5426TIP3    H216285   2.214   1.475   0.388  1.5321  0.0302  2.8056
 5427TIP3   OH216286   6.081   0.339   0.196 -0.1331  0.4437  0.3250
 5427TIP3    H116287   6.060   0.267   0.136 -2.0650  0.9957  0.2747
 5427TIP3    H216288   6.175   0.331   0.210 -0.1976 -1.7992 -0.0464
 5428TIP3   OH216289   2.169   1.154   2.790  0.1585  0.2872  0.0316
 5428TIP3    H116290   2.237   1.087   2.792 -0.4748 -0.3746  0.0933
 5428TIP3    H216291   2.092   1.110   2.828 -0.4935  0.7927 -0.6832
 5429TIP3   OH216292   1.207   1.089   3.718 -0.3959 -0.7925  0.2851
 5429TIP3    H116293   1.119   1.086   3.680 -0.0457  0.1578 -0.6315
 5429TIP3    H216294   1.263   1.052   3.650  0.1150  0.0899  0.2161
 5430TIP3   OH216295   3.425   3.120   0.391  0.3524 -0.5675  0.7410
 5430TIP3    H116296   3.446   3.130   0.484 -0.8187  0.2278  0.9328
 5430TIP3    H216297   3.388   3.204   0.365  0.8546 -0.7047 -0.5162
 5431TIP3   OH216298   4.050   1.280   1.113  0.0379 -0.0189 -0.1567
 5431TIP3    H116299   4.098   1.233   1.180  1.0839 -1.0138 -1.5471
 5431TIP3    H216300   3.975   1.224   1.093  0.6609 -0.5646 -1.0069
 5432TIP3   OH216301   2.350   2.247   3.586  0.1757 -0.0184  0.3793
 5432TIP3    H116302   2.284   2.220   3.523  2.0474 -0.4732 -1.5206
 5432TIP3    H216303   2.378   2.165   3.627 -0.4470  0.1784  1.2135
 5433TIP3   OH216304   3.556   5.749   4.785  0.4468 -0.3012 -0.1971
 5433TIP3    H116305   3.498   5.673   4.788  0.9260 -0.6982 -0.7175
 5433TIP3    H216306   3.588   5.752   4.695  0.9501  0.1295 -0.0136
 5434TIP3   OH216307   1.156   4.827   3.608  0.6761  0.2507  0.1952
 5434TIP3    H116308   1.107   4.803   3.687  0.5204  1.9979  0.6683
 5434TIP3    H216309   1.237   4.775   3.614  0.1830 -0.4616  0.9346
 5435TIP3   OH216310   1.171   1.048   1.442  0.0784  0.3483  0.3918
 5435TIP3    H116311   1.160   0.954   1.428  0.0015  0.5416 -1.0004
 5435TIP3    H216312   1.264   1.059   1.463  0.4829  0.1136 -1.1335
 5436TIP3   OH216313   5.185   2.175   2.970 -0.0110  0.0888  0.1562
 5436TIP3    H116314   5.225   2.261   2.981 -2.0469  0.8456  2.2864
 5436TIP3    H216315   5.249   2.114   3.006  0.6188  0.9157  0.4571
 5437TIP3   OH216316   2.246   4.560   1.914  0.0869  0.8857 -0.3382
 5437TIP3    H116317   2.321   4.503   1.899 -0.3984 -0.3583  1.6557
 5437TIP3    H216318   2.170   4.506   1.893 -0.3401  1.2547  0.2120
 5438TIP3   OH216319   0.232   2.066   3.311 -0.1934 -0.1187 -0.2160
 5438TIP3    H116320   0.265   2.042   3.225  0.2607 -1.4582  0.2944
 5438TIP3    H216321   0.210   1.982   3.352  1.4727  0.3107  1.6983
 5439TIP3   OH216322   2.460   1.407   1.614 -0.6971  0.2315 -0.1797
 5439TIP3    H116323   2.430   1.410   1.523  0.3575  0.4769 -0.5366
 5439TIP3    H216324   2.430   1.322   1.647  0.9423 -0.9379 -1.5155
 5440TIP3   OH216325   3.412   3.805   3.335 -0.0978  0.0505  0.7414
 5440TIP3    H116326   3.429   3.720   3.375 -0.7224 -0.1647  0.5513
 5440TIP3    H216327   3.479   3.863   3.373  1.1862 -0.8077 -0.1242
 5441TIP3   OH216328   4.875   4.362   0.559 -0.3325 -0.5031 -0.0827
 5441TIP3    H116329   4.834   4.410   0.631 -0.5047  0.8334 -1.0346
 5441TIP3    H216330   4.809   4.361   0.490  0.5733  0.1033 -0.9795
 5442TIP3   OH216331   3.295   4.418   3.721 -0.3865 -0.1663  0.2222
 5442TIP3    H116332   3.251   4.336   3.697 -0.5306  0.1142 -0.5077
 5442TIP3    H216333   3.262   4.439   3.808 -2.2703  0.4058 -0.5724
 5443TIP3   OH216334   5.815   4.174   3.253  0.5650 -0.5814 -0.0257
 5443TIP3    H116335   5.797   4.181   3.347  0.9432 -3.4560  0.3456
 5443TIP3    H216336   5.905   4.204   3.244  1.6799 -3.2367  1.1539
 5444TIP3   OH216337   4.512   4.730   3.646  0.4486  0.1020 -0.3803
 5444TIP3    H116338   4.549   4.647   3.676  0.8960  0.9193  1.4515
 5444TIP3    H216339   4.538   4.735   3.554  1.2462 -1.3389 -0.2726
 5445TIP3   OH216340   5.450   2.832   1.252 -0.4064 -0.3530 -0.3973
 5445TIP3    H116341   5.417   2.791   1.332 -0.3798 -2.0613 -1.2321
 5445TIP3    H216342   5.525   2.884   1.281 -1.9150  1.1525  1.0573
 5446TIP3   OH216343   2.896   3.872   1.709  0.0361  0.2251 -0.1933
 5446TIP3    H116344   2.886   3.779   1.731 -0.6607  0.4642  0.5387
 5446TIP3    H216345   2.822   3.890   1.652  0.1030  0.3581 -0.2356
 5447TIP3   OH216346   4.005   5.533   4.981  0.2473 -0.1043 -0.1862
 5447TIP3    H116347   4.057   5.476   4.925  1.1223  0.4585  0.0373
 5447TIP3    H216348   4.044   5.522   5.068  0.0707  0.4233 -0.0394
 5448TIP3   OH216349   1.220   1.618   2.588 -0.1958 -0.1279  0.0679
 5448TIP3    H116350   1.164   1.673   2.533 -0.4194  2.1675  2.4029
 5448TIP3    H216351   1.305   1.663   2.587 -0.3154  0.1983  1.8211
 5449TIP3   OH216352   5.779   0.551   0.117  0.2114 -0.1527  0.8973
 5449TIP3    H116353   5.862   0.597   0.128  0.2384  0.0903 -0.1519
 5449TIP3    H216354   5.801   0.458   0.124  0.5778 -0.0888  0.6090
 5450TIP3   OH216355   0.896   1.423   3.937  0.8405 -0.2219 -0.2452
 5450TIP3    H116356   0.966   1.360   3.921 -0.1387 -1.2683 -0.5724
 5450TIP3    H216357   0.906   1.446   4.030  1.2959 -0.7615 -0.1532
 5451TIP3   OH216358   5.244   5.463   3.602 -0.0567 -0.0861 -0.0037
 5451TIP3    H116359   5.324   5.436   3.556  0.3519 -0.4910  0.9154
 5451TIP3    H216360   5.205   5.529   3.545  1.2210  0.5121 -0.2307
 5452TIP3   OH216361   0.955   2.763   0.167 -0.3876 -0.2364  0.7958
 5452TIP3    H116362   0.994   2.839   0.210  0.7603 -0.0362 -0.5295
 5452TIP3    H216363   0.867   2.757   0.204  0.0570  0.7697  2.0918
 5453TIP3   OH216364   3.067   0.978   3.111  0.2212 -0.0652  0.2694
 5453TIP3    H116365   3.072   0.995   3.205  0.8257 -0.7645  0.3765
 5453TIP3    H216366   3.154   0.945   3.087 -0.0412 -0.2705 -0.4552
 5454TIP3   OH216367   5.065   3.802   2.730  0.3572  0.0604 -0.0321
 5454TIP3    H116368   5.042   3.772   2.642 -1.1444  1.4462 -0.1546
 5454TIP3    H216369   5.154   3.838   2.720  0.4638 -0.3998 -0.8252
 5455TIP3   OH216370   2.524   3.832   3.934  0.1399  0.2770 -0.3911
 5455TIP3    H116371   2.489   3.743   3.928 -2.6271  1.0313  2.1612
 5455TIP3    H216372   2.449   3.889   3.916  1.3433  2.0982  0.0612
 5456TIP3   OH216373   1.438   2.393   0.473  0.3613 -0.3447 -0.0901
 5456TIP3    H116374   1.443   2.382   0.568  0.3452  1.3151  0.1232
 5456TIP3    H216375   1.366   2.454   0.460  0.2687 -0.6697 -1.1955
 5457TIP3   OH216376   3.551   2.474   0.937  0.4276 -0.2474 -0.5473
 5457TIP3    H116377   3.544   2.561   0.975  0.4924 -0.2832 -0.4523
 5457TIP3    H216378   3.640   2.471   0.900  1.0129 -0.8276  0.8460
 5458TIP3   OH216379   0.509   0.639   1.138 -0.3980  0.2605  0.2587
 5458TIP3    H116380   0.495   0.733   1.124 -0.3475  0.5322  1.8168
 5458TIP3    H216381   0.563   0.612   1.065  2.4227  2.1890  1.4522
 5459TIP3   OH216382   2.696   1.495   4.538  0.5180 -0.5194  0.1892
 5459TIP3    H116383   2.603   1.518   4.542  0.8099  0.7295  0.2010
 5459TIP3    H216384   2.705   1.422   4.599 -0.0262  0.9925  2.2220
 5460TIP3   OH216385   4.438   1.338   4.636 -0.3475 -0.0690  0.1026
 5460TIP3    H116386   4.514   1.395   4.623 -0.5660  0.4138  0.8183
 5460TIP3    H216387   4.469   1.271   4.696 -0.6670  0.5542  0.9944
 5461TIP3   OH216388   0.235   0.600   3.122 -0.7257 -0.0544  0.5514
 5461TIP3    H116389   0.145   0.611   3.153 -0.9108 -0.9912  0.3819
 5461TIP3    H216390   0.257   0.509   3.143 -0.3302 -0.2649 -0.7113
 5462TIP3   OH216391   1.848   3.866   5.042  0.0801 -0.2743 -0.4689
 5462TIP3    H116392   1.759   3.837   5.019 -0.7373 -0.0657  2.1530
 5462TIP3    H216393   1.905   3.799   5.004 -1.4652 -2.6570  1.1099
 5463TIP3   OH216394   0.397   5.903   3.495  0.5117 -0.1054  0.2889
 5463TIP3    H116395   0.462   5.927   3.560  0.5806  1.3005 -0.2601
 5463TIP3    H216396   0.325   5.964   3.509  0.1962 -0.2947 -0.4342
 5464TIP3   OH216397   3.996   3.108   1.578  0.0761 -0.1167  0.2739
 5464TIP3    H116398   4.080   3.140   1.545  0.0508 -0.5038 -0.1815
 5464TIP3    H216399   3.935   3.126   1.506 -0.8781  2.8779  1.6583
 5465TIP3   OH216400   5.742   0.827   1.906 -0.1046 -0.6847 -0.7442
 5465TIP3    H116401   5.823   0.869   1.934 -0.1524 -1.3684  0.4770
 5465TIP3    H216402   5.751   0.819   1.811 -0.0062  1.8461 -1.0139
 5466TIP3   OH216403   2.848   3.623   3.475 -0.6407  0.0519  0.0168
 5466TIP3    H116404   2.793   3.553   3.440 -1.7367  1.2181 -0.6654
 5466TIP3    H216405   2.786   3.686   3.513  0.3754  0.1223  1.6716
 5467TIP3   OH216406   0.902   4.917   3.476  0.1115  0.0494 -0.7181
 5467TIP3    H116407   0.832   4.851   3.478 -0.8423  0.9812  2.6001
 5467TIP3    H216408   0.976   4.875   3.520  0.2192  0.4904 -0.4773
 5468TIP3   OH216409   5.412   3.329   4.362  0.1686 -0.3012  0.2975
 5468TIP3    H116410   5.331   3.312   4.409  1.0843 -0.8070  1.7688
 5468TIP3    H216411   5.464   3.383   4.422  1.6957 -1.6145  0.2236
 5469TIP3   OH216412   0.189   1.793   1.192  0.0744  0.2973 -0.1253
 5469TIP3    H116413   0.250   1.837   1.252 -0.4727  1.2130 -0.2116
 5469TIP3    H216414   0.126   1.750   1.249 -0.3709  1.0609 -0.0241
 5470TIP3   OH216415   6.151   5.977   1.800 -0.6741 -0.0286  0.5166
 5470TIP3    H116416   6.205   5.902   1.775 -0.6990  0.1557 -0.0913
 5470TIP3    H216417   6.195   6.053   1.763 -0.3657  0.3302  1.5717
 5471TIP3   OH216418   1.712   3.045   1.515  0.2753  0.2303  0.0970
 5471TIP3    H116419   1.703   2.963   1.466 -1.0164 -0.5062  1.4918
 5471TIP3    H216420   1.654   3.106   1.470 -0.6111 -0.3285  0.4584
 5472TIP3   OH216421   1.493   0.827   3.873  0.3173  0.0148 -0.2613
 5472TIP3    H116422   1.536   0.760   3.926  0.8941  0.1488 -0.5481
 5472TIP3    H216423   1.556   0.900   3.870 -0.0619  0.3407 -0.4243
 5473TIP3   OH216424   4.157   2.254   3.907  0.1373 -0.4825  0.1334
 5473TIP3    H116425   4.086   2.240   3.845  0.6754  1.0360 -0.8739
 5473TIP3    H216426   4.136   2.338   3.948  1.1547 -0.1964  0.0857
 5474TIP3   OH216427   3.307   3.676   1.593  0.1547  0.5304  0.0551
 5474TIP3    H116428   3.237   3.675   1.527 -0.1310 -1.6382  0.3295
 5474TIP3    H216429   3.296   3.760   1.637 -0.9096  1.1747 -1.3337
 5475TIP3   OH216430   5.873   1.745   3.076  0.2736  0.0382  0.2102
 5475TIP3    H116431   5.825   1.822   3.107  1.2812  0.3634  1.0563
 5475TIP3    H216432   5.875   1.754   2.981  0.1224  0.9016  0.2836
 5476TIP3   OH216433   0.850   2.678   2.156 -0.2150 -0.3598 -0.3456
 5476TIP3    H116434   0.943   2.697   2.162 -0.7935  2.6758  1.1985
 5476TIP3    H216435   0.821   2.724   2.077 -0.5649 -0.4460 -0.2712
 5477TIP3   OH216436   4.656   1.502   1.857 -0.5052  0.1484 -0.4512
 5477TIP3    H116437   4.626   1.567   1.794 -0.2315  1.8374  1.0508
 5477TIP3    H216438   4.578   1.481   1.909 -0.0556  1.4166  0.8122
 5478TIP3   OH216439   4.282   3.703   4.614 -0.8182  0.3580 -0.5576
 5478TIP3    H116440   4.318   3.774   4.562 -1.0234  0.0025 -1.1964
 5478TIP3    H216441   4.255   3.744   4.696  1.4415  0.5610  0.1458
 5479TIP3   OH216442   6.183   2.431   2.922  0.4808  0.1785  0.2779
 5479TIP3    H116443   6.103   2.425   2.974 -1.5946  0.1209 -2.7138
 5479TIP3    H216444   6.177   2.515   2.877  1.8813 -0.0361 -0.3778
 5480TIP3   OH216445   1.381   1.935   4.411  0.0873 -0.0419  0.3310
 5480TIP3    H116446   1.291   1.959   4.390 -0.0716  0.8617  1.9325
 5480TIP3    H216447   1.376   1.843   4.436 -0.6330  0.3520  1.6959
 5481TIP3   OH216448   4.743   1.457   1.459  0.2866  0.5649  0.1253
 5481TIP3    H116449   4.835   1.470   1.482  0.1514  2.8651 -0.4144
 5481TIP3    H216450   4.740   1.464   1.364 -0.4567  0.4581  0.1315
 5482TIP3   OH216451   3.985   4.920   2.201 -0.3462  0.3888 -0.8148
 5482TIP3    H116452   4.073   4.945   2.173  1.7642 -2.8348  2.0684
 5482TIP3    H216453   3.976   4.956   2.289 -1.6621  0.1984 -0.8526
 5483TIP3   OH216454   2.537   3.007   2.504  0.0144 -0.1068 -0.8347
 5483TIP3    H116455   2.497   2.962   2.430 -0.3253 -0.3460 -0.5081
 5483TIP3    H216456   2.624   3.032   2.473  0.1237 -0.7981 -1.0896
 5484TIP3   OH216457   5.292   1.777   2.305  0.1204 -0.4822  0.3773
 5484TIP3    H116458   5.319   1.729   2.383 -1.2505  0.2381  1.3424
 5484TIP3    H216459   5.282   1.867   2.335  1.5852  0.2377 -1.1451
 5485TIP3   OH216460   1.122   0.721   1.495 -0.0090 -0.4961 -0.6007
 5485TIP3    H116461   1.036   0.717   1.537 -0.8052 -2.0479 -2.2371
 5485TIP3    H216462   1.184   0.717   1.567 -1.3070 -1.0463  0.5398
 5486TIP3   OH216463   2.772   4.875   2.116  0.0145  0.2823 -0.0609
 5486TIP3    H116464   2.688   4.862   2.160 -0.6565 -1.5586 -1.7249
 5486TIP3    H216465   2.803   4.786   2.096  0.5311  0.9723 -2.6970
 5487TIP3   OH216466   3.288   3.562   4.360  0.6869 -0.9421  0.1134
 5487TIP3    H116467   3.361   3.520   4.314  1.9068  1.3137 -0.2031
 5487TIP3    H216468   3.331   3.618   4.425 -0.6041  1.6914 -1.1566
 5488TIP3   OH216469   6.243   5.382   3.311 -0.0310 -0.1271  0.3744
 5488TIP3    H116470   6.336   5.385   3.332 -0.0034 -1.2242  0.4868
 5488TIP3    H216471   6.219   5.472   3.292  1.5871 -0.1272 -2.0462
 5489TIP3   OH216472   5.563   3.820   1.829  0.3132 -0.2642 -0.3965
 5489TIP3    H116473   5.621   3.891   1.802 -0.1435 -0.5652 -2.3591
 5489TIP3    H216474   5.614   3.770   1.892  1.3834  0.6664 -0.4826
 5490TIP3   OH216475   4.227   5.532   2.183 -0.2326 -0.0771 -0.2061
 5490TIP3    H116476   4.222   5.591   2.258  1.3628  0.5130 -0.5133
 5490TIP3    H216477   4.296   5.470   2.206 -0.1672 -0.2739 -0.9207
 5491TIP3   OH216478   0.912   2.070   0.683  0.1212 -0.2478 -0.2308
 5491TIP3    H116479   0.901   2.153   0.637 -0.4889 -1.0273 -1.5301
 5491TIP3    H216480   0.896   2.003   0.617 -1.8507 -1.4211  1.3303
 5492TIP3   OH216481   0.814   2.312   5.191 -0.2121 -0.3954 -0.0082
 5492TIP3    H116482   0.857   2.280   5.112  1.2319  0.9769  0.1988
 5492TIP3    H216483   0.726   2.338   5.161  0.1963 -0.2042 -1.0806
 5493TIP3   OH216484   0.792   1.230   4.135 -0.4178  0.4314  0.1634
 5493TIP3    H116485   0.836   1.160   4.089 -3.5012 -1.3035 -0.4364
 5493TIP3    H216486   0.814   1.217   4.227 -0.6190 -1.1332  0.0115
 5494TIP3   OH216487   1.647   3.897   3.939  0.1869  0.4510 -0.4678
 5494TIP3    H116488   1.734   3.875   3.907 -0.2761 -0.2308 -1.3256
 5494TIP3    H216489   1.649   3.992   3.953  1.7996  0.1676  1.9109
 5495TIP3   OH216490   2.832   4.904   4.717 -0.0701  0.0487  0.4275
 5495TIP3    H116491   2.769   4.958   4.764 -0.8060 -0.6755  0.3037
 5495TIP3    H216492   2.796   4.815   4.722  0.5222 -0.2507 -0.3485
 5496TIP3   OH216493   2.781   3.047   2.391 -0.6380  0.8840 -0.0548
 5496TIP3    H116494   2.782   3.057   2.296  0.4417 -0.8266 -0.2707
 5496TIP3    H216495   2.868   3.074   2.419  0.6098 -2.5747 -0.1249
 5497TIP3   OH216496   6.127   4.288   0.476 -0.4845 -0.0002 -0.0103
 5497TIP3    H116497   6.039   4.266   0.446 -0.4654 -1.5895  1.0286
 5497TIP3    H216498   6.129   4.384   0.474 -0.8281  0.0904 -3.9602
 5498TIP3   OH216499   3.562   5.623   5.104 -0.1602  0.1196  0.6842
 5498TIP3    H116500   3.537   5.614   5.196  1.1737 -0.7901  0.9863
 5498TIP3    H216501   3.647   5.667   5.107 -1.3343  2.6325 -0.2824
 5499TIP3   OH216502   1.980   5.679   2.041  0.2000 -0.5489  0.1871
 5499TIP3    H116503   2.022   5.593   2.037 -0.6643 -0.9340 -0.8717
 5499TIP3    H216504   1.997   5.718   1.956 -2.7953 -1.3283 -0.8638
 5500TIP3   OH216505   5.533   5.977   4.064 -0.0742 -0.3387 -0.1317
 5500TIP3    H116506   5.560   5.948   4.152  2.8772 -1.9155 -1.4025
 5500TIP3    H216507   5.463   5.916   4.039 -0.7190 -0.0750  0.9771
 5501TIP3   OH216508   2.253   1.163   4.179 -0.6510 -0.2634  0.0251
 5501TIP3    H116509   2.172   1.163   4.129 -0.6475 -0.2980  0.0194
 5501TIP3    H216510   2.225   1.175   4.270 -0.7042 -0.8799  0.0915
 5502TIP3   OH216511   3.831   2.257   4.832  0.1797  0.1444  0.3243
 5502TIP3    H116512   3.860   2.304   4.754 -0.3258  0.7443  0.4927
 5502TIP3    H216513   3.882   2.176   4.831 -0.7228 -0.4510 -1.3199
 5503TIP3   OH216514   0.940   0.826   1.044  0.5881 -0.0692  0.2175
 5503TIP3    H116515   0.889   0.811   1.124 -0.0578  1.2913  0.0913
 5503TIP3    H216516   1.030   0.833   1.074  0.7211 -2.1809  0.4853
 5504TIP3   OH216517   0.322   4.698   4.621  0.2113  0.1576  0.7176
 5504TIP3    H116518   0.415   4.681   4.640  0.0720  1.3242  2.6666
 5504TIP3    H216519   0.324   4.751   4.541  1.1142 -0.8296  0.0427
 5505TIP3   OH216520   5.622   1.678   0.925 -0.6244 -0.3389 -0.4621
 5505TIP3    H116521   5.572   1.756   0.946  1.5003  0.8556  0.4270
 5505TIP3    H216522   5.674   1.660   1.003  0.8411 -1.1020 -1.5553
 5506TIP3   OH216523   2.724   2.799   3.806  0.4820 -0.0722  0.0194
 5506TIP3    H116524   2.800   2.850   3.777  0.4152  0.4858  0.7853
 5506TIP3    H216525   2.649   2.851   3.777  0.4050 -0.1393  0.1007
 5507TIP3   OH216526   0.041   5.828   3.337 -0.0842 -0.2652  0.1039
 5507TIP3    H116527   0.084   5.908   3.368  1.8970 -0.8971 -0.9209
 5507TIP3    H216528  -0.042   5.826   3.386  1.2270  0.7321  2.5317
 5508TIP3   OH216529   1.859   4.457   0.638 -0.2239  0.8802  0.2466
 5508TIP3    H116530   1.888   4.380   0.687 -0.4616  1.3682  1.1843
 5508TIP3    H216531   1.857   4.428   0.547 -1.5800 -0.6217  0.6960
 5509TIP3   OH216532   6.080   5.481   4.496 -0.1110  0.2220  0.4439
 5509TIP3    H116533   6.154   5.524   4.538 -0.3817  0.3538  0.7972
 5509TIP3    H216534   6.098   5.388   4.505 -0.3381  0.2396  1.1821
 5510TIP3   OH216535   0.760   5.006   2.113  0.3540 -0.1063  0.0207
 5510TIP3    H116536   0.824   4.937   2.097  2.9786  2.1303  0.0935
 5510TIP3    H216537   0.780   5.073   2.048 -1.4873  0.9887  0.5103
 5511TIP3   OH216538   1.733   4.605   2.242 -0.7856 -0.2198 -0.1814
 5511TIP3    H116539   1.703   4.518   2.218  1.4797 -1.1269 -0.0194
 5511TIP3    H216540   1.744   4.601   2.337 -1.3003  0.4596 -0.0911
 5512TIP3   OH216541   1.847   3.009   1.755 -1.0941  0.2079 -0.0280
 5512TIP3    H116542   1.933   2.984   1.720 -0.5256  1.3678  0.5137
 5512TIP3    H216543   1.811   3.070   1.690 -1.3234  0.0650 -0.0378
 5513TIP3   OH216544   3.809   2.347   0.333 -0.1510  0.2753  0.1389
 5513TIP3    H116545   3.844   2.291   0.402  3.5475  0.6375 -1.2077
 5513TIP3    H216546   3.790   2.288   0.261 -0.8728  0.2721  0.3207
 5514TIP3   OH216547   2.417   3.074   1.213  0.1579 -0.7108  0.0776
 5514TIP3    H116548   2.476   3.018   1.264  1.0762 -0.4833 -0.7064
 5514TIP3    H216549   2.412   3.033   1.127 -0.0778 -0.2198 -0.1507
 5515TIP3   OH216550   3.403   5.009   4.971  0.4291 -0.1933 -0.1748
 5515TIP3    H116551   3.367   5.052   5.049  1.1126  0.7028 -0.3280
 5515TIP3    H216552   3.494   4.992   4.993  0.2050 -1.4713 -0.1785
 5516TIP3   OH216553   2.706   1.667   1.030 -0.0075 -0.2160 -0.5831
 5516TIP3    H116554   2.742   1.741   0.981  0.4808 -0.8151 -1.1461
 5516TIP3    H216555   2.686   1.601   0.964 -0.9252 -0.3972 -0.1383
 5517TIP3   OH216556   4.815   3.600   4.229  0.1923 -0.0936 -0.1421
 5517TIP3    H116557   4.857   3.540   4.167  0.1997 -0.5699  0.3076
 5517TIP3    H216558   4.876   3.604   4.303 -0.3750 -0.5060  0.3624
 5518TIP3   OH216559   4.342   4.189   3.993  0.4043 -0.0437 -0.3951
 5518TIP3    H116560   4.333   4.272   3.946  1.5419 -0.0822 -0.7227
 5518TIP3    H216561   4.331   4.212   4.085 -1.5667  0.0790 -0.6245
 5519TIP3   OH216562   2.791   2.416   1.509  0.3060 -0.2689 -0.0909
 5519TIP3    H116563   2.700   2.409   1.483  0.2837 -1.0330  0.1683
 5519TIP3    H216564   2.800   2.356   1.583  1.2710 -1.0611 -0.8128
 5520TIP3   OH216565   0.081   0.771   0.287 -0.2968  0.4249  0.2821
 5520TIP3    H116566   0.017   0.807   0.225  1.1175  1.1531 -0.8132
 5520TIP3    H216567   0.085   0.678   0.266 -2.0176  0.0574  1.3422
 5521TIP3   OH216568   1.617   4.468   2.663  0.0407 -0.9735 -0.6430
 5521TIP3    H116569   1.587   4.402   2.601  0.3428 -2.3220  0.6038
 5521TIP3    H216570   1.640   4.419   2.741 -1.4348  0.7619  0.9873
 5522TIP3   OH216571   2.560   2.126   3.316  0.3754  0.1714 -0.4168
 5522TIP3    H116572   2.543   2.040   3.355  0.5955 -0.8640 -2.4755
 5522TIP3    H216573   2.554   2.111   3.222  1.4910  2.1967 -0.8612
 5523TIP3   OH216574   2.655   0.229   0.149 -0.7389  0.2215 -0.2316
 5523TIP3    H116575   2.598   0.156   0.123  0.8510 -0.7141 -1.2146
 5523TIP3    H216576   2.730   0.224   0.090  0.9726  0.6482  1.7745
 5524TIP3   OH216577   5.249   2.171   1.673 -0.0325  0.2160  0.6528
 5524TIP3    H116578   5.193   2.103   1.711 -1.2233 -0.0213 -1.3465
 5524TIP3    H216579   5.298   2.207   1.747 -1.4935 -0.8503  2.2084
 5525TIP3   OH216580   1.070   3.559   1.149 -0.4560  0.0350 -0.0675
 5525TIP3    H116581   1.090   3.545   1.056 -0.0480  1.2756 -0.1868
 5525TIP3    H216582   0.989   3.511   1.163 -0.4861 -0.2309 -1.0462
 5526TIP3   OH216583   3.627   2.810   2.891 -0.4635  0.1396 -0.3121
 5526TIP3    H116584   3.668   2.895   2.907 -1.1669  0.2238  1.2676
 5526TIP3    H216585   3.538   2.831   2.862 -0.8092 -0.0420  0.5887
 5527TIP3   OH216586   6.093   2.008   0.644 -0.4180 -0.2712 -0.2729
 5527TIP3    H116587   6.154   1.996   0.571  0.8880 -0.3110  0.7945
 5527TIP3    H216588   6.010   1.973   0.611  0.4946 -1.6625 -1.2240
 5528TIP3   OH216589   1.502   3.625   0.128 -0.4322 -0.3070 -0.2853
 5528TIP3    H116590   1.584   3.636   0.079  1.1610 -0.9393  2.0198
 5528TIP3    H216591   1.518   3.549   0.184 -0.2810  2.7178  4.3272
 5529TIP3   OH216592   4.048   1.674   4.387 -0.0278 -0.0921  0.2904
 5529TIP3    H116593   4.131   1.720   4.383 -0.6116  1.0312  0.5485
 5529TIP3    H216594   4.066   1.587   4.353  1.1646  0.2544  0.0171
 5530TIP3   OH216595   0.486   5.290   2.057 -0.3328  0.7901  0.1523
 5530TIP3    H116596   0.526   5.232   2.122 -1.5539 -0.4969 -0.1955
 5530TIP3    H216597   0.484   5.376   2.100 -1.2939 -0.0672  1.9287
 5531TIP3   OH216598   0.115   1.571   4.416  0.0923 -0.3955 -0.3565
 5531TIP3    H116599   0.144   1.482   4.434  1.7082 -0.3353 -2.2496
 5531TIP3    H216600   0.039   1.561   4.359  0.2728 -0.5740 -0.5672
 5532TIP3   OH216601   2.086   2.858   1.319  0.0114 -0.0273  0.1589
 5532TIP3    H116602   2.022   2.923   1.292  0.9645  1.1220  0.5955
 5532TIP3    H216603   2.135   2.838   1.239 -0.0598  0.0410  0.0980
 5533TIP3   OH216604   5.972   0.686   1.547 -0.2402  0.1758 -0.1414
 5533TIP3    H116605   6.000   0.600   1.579 -0.5030  0.4226  0.7754
 5533TIP3    H216606   6.051   0.723   1.506 -0.0016 -0.3067 -0.1205
 5534TIP3   OH216607   3.293   4.759   2.499  0.1549 -0.4659 -0.5126
 5534TIP3    H116608   3.242   4.681   2.521 -0.2197 -0.4537 -1.3148
 5534TIP3    H216609   3.378   4.745   2.542 -0.8468  0.0282  1.8080
 5535TIP3   OH216610   3.970   5.530   2.105 -0.7003  0.2981  0.3739
 5535TIP3    H116611   3.930   5.501   2.187 -0.3284 -0.7994  0.1845
 5535TIP3    H216612   4.064   5.535   2.124 -0.6830  0.6786  0.1976
 5536TIP3   OH216613   5.162   5.792   3.581  0.2536  0.6622 -0.2548
 5536TIP3    H116614   5.222   5.760   3.648 -0.9199  0.3575  0.6863
 5536TIP3    H216615   5.121   5.869   3.621 -1.4782 -0.3235 -0.0280
 5537TIP3   OH216616   5.255   4.233   2.822  0.0001 -0.3141 -0.2710
 5537TIP3    H116617   5.205   4.253   2.743 -0.1233 -1.7059 -0.5614
 5537TIP3    H216618   5.242   4.310   2.878 -3.1563 -0.9148  0.0090
 5538TIP3   OH216619   1.178   2.931   3.165 -0.2730  0.0354 -0.1629
 5538TIP3    H116620   1.189   2.836   3.152 -1.5342 -0.2765  0.8800
 5538TIP3    H216621   1.218   2.948   3.250  0.1060  0.4717 -0.4292
 5539TIP3   OH216622   2.689   1.101   0.474 -0.0656  0.4448  0.3338
 5539TIP3    H116623   2.729   1.082   0.389 -0.3332  2.9315 -0.4481
 5539TIP3    H216624   2.674   1.016   0.514 -2.1426 -1.0337 -3.1266
 5540TIP3   OH216625   5.296   2.601   2.077 -0.2658  0.5419  0.2785
 5540TIP3    H116626   5.220   2.542   2.072  0.4744 -0.6283  1.8498
 5540TIP3    H216627   5.267   2.681   2.034 -2.5832  0.3171  1.2706
 5541TIP3   OH216628   6.224   0.069   1.349  0.2167  0.3018 -0.4044
 5541TIP3    H116629   6.291   0.138   1.344  2.1534 -1.5087 -0.9221
 5541TIP3    H216630   6.248   0.008   1.279 -2.4257 -0.1078 -1.0482
 5542TIP3   OH216631   2.962   1.952   3.407 -0.5452  0.1733 -0.0307
 5542TIP3    H116632   3.052   1.975   3.432  0.4012 -1.9646 -1.1844
 5542TIP3    H216633   2.930   2.029   3.360 -0.0461  1.7130  1.9862
 5543TIP3   OH216634   5.810   1.360   1.349 -0.6492 -0.2018  0.5174
 5543TIP3    H116635   5.886   1.324   1.394 -0.9159  0.5197  1.5906
 5543TIP3    H216636   5.796   1.301   1.275 -0.0693 -1.3123  1.2602
 5544TIP3   OH216637   1.018   5.999   2.846 -0.3765  0.4777 -0.1645
 5544TIP3    H116638   1.005   5.924   2.788 -1.2970 -0.2021  0.8791
 5544TIP3    H216639   0.988   5.968   2.932  0.8256  1.4930  0.6546
 5545TIP3   OH216640   4.076   5.365   1.880  0.3489 -0.6090 -0.2607
 5545TIP3    H116641   3.999   5.319   1.847 -0.0191 -1.6683  1.8485
 5545TIP3    H216642   4.044   5.415   1.955  1.2041  1.3157 -1.1090
 5546TIP3   OH216643   5.669   1.095   2.106  0.2546 -0.2255 -0.3305
 5546TIP3    H116644   5.763   1.117   2.108  0.8446 -2.4205  1.9642
 5546TIP3    H216645   5.627   1.169   2.149  1.2267 -0.1317  0.5047
 5547TIP3   OH216646   4.597   5.466   3.944 -0.2094  0.5840  0.2317
 5547TIP3    H116647   4.617   5.382   3.902 -0.4960  0.6682 -0.0825
 5547TIP3    H216648   4.662   5.527   3.908 -0.1247  0.5376  0.3084
 5548TIP3   OH216649   2.862   5.753   4.083  0.1615 -0.6719 -0.3909
 5548TIP3    H116650   2.864   5.665   4.119  3.3269 -0.6912 -0.3477
 5548TIP3    H216651   2.924   5.802   4.136 -1.3921  1.5864 -0.5357
 5549TIP3   OH216652   5.791   5.114   0.900 -0.1077 -0.1388  0.0781
 5549TIP3    H116653   5.877   5.095   0.863  1.0502 -0.8494  2.9325
 5549TIP3    H216654   5.796   5.204   0.930 -0.3453 -0.1939  0.2951
 5550TIP3   OH216655   6.125   3.905   3.859  0.1865  0.4857  0.4804
 5550TIP3    H116656   6.220   3.911   3.851  0.1645 -0.8569 -1.3612
 5550TIP3    H216657   6.092   3.912   3.770 -1.2735 -1.2539  0.8077
 5551TIP3   OH216658   4.925   3.245   0.832 -0.0678 -0.1091 -0.1311
 5551TIP3    H116659   4.892   3.158   0.857  2.2956 -1.1469 -0.2800
 5551TIP3    H216660   4.941   3.289   0.915  1.2404 -0.9060  0.0863
 5552TIP3   OH216661   0.063   1.141   3.081  0.5954 -0.1056  0.6065
 5552TIP3    H116662   0.139   1.089   3.108 -0.4881 -2.0990  0.0473
 5552TIP3    H216663   0.096   1.200   3.014  1.6596 -0.9975  0.3158
 5553TIP3   OH216664   0.616   4.188   3.963 -0.6261 -0.4502 -0.4292
 5553TIP3    H116665   0.575   4.257   3.911 -1.3614 -0.2809  0.3720
 5553TIP3    H216666   0.710   4.201   3.949 -0.8018 -0.4554 -1.7680
 5554TIP3   OH216667   2.091   5.216   5.014 -0.5164  0.4679 -0.3647
 5554TIP3    H116668   2.134   5.281   5.070 -2.1927  1.8511 -0.5891
 5554TIP3    H216669   2.019   5.264   4.973 -0.6935 -1.0946 -1.9839
 5555TIP3   OH216670   1.644   1.414   1.468  0.3705  0.2566  0.5002
 5555TIP3    H116671   1.677   1.340   1.417  1.2494  0.5986  0.5429
 5555TIP3    H216672   1.721   1.469   1.481 -0.6311  2.2162 -1.2737
 5556TIP3   OH216673   1.891   1.387   2.454  0.3787 -0.3393 -0.1264
 5556TIP3    H116674   1.864   1.420   2.539  2.7183  1.4575  0.0424
 5556TIP3    H216675   1.839   1.309   2.440 -0.1239 -0.6639  2.9173
 5557TIP3   OH216676   1.386   0.554   3.817 -0.1420  0.1465  1.0233
 5557TIP3    H116677   1.303   0.559   3.864 -0.4690 -1.7145  0.7410
 5557TIP3    H216678   1.373   0.607   3.739 -1.3390 -0.6947  0.6244
 5558TIP3   OH216679   3.684   4.157   0.906  0.2280  0.4266 -0.4194
 5558TIP3    H116680   3.620   4.189   0.969  0.9371  0.5700  0.2464
 5558TIP3    H216681   3.746   4.106   0.958 -0.9008 -2.1597 -1.4471
 5559TIP3   OH216682   4.159   0.195   0.505 -0.4080 -0.7292  0.5653
 5559TIP3    H116683   4.086   0.158   0.455  0.0664 -1.9930  0.7769
 5559TIP3    H216684   4.169   0.135   0.580  0.1647  0.0309  1.1064
 5560TIP3   OH216685   2.198   0.822   0.793  0.0078  0.2175 -0.1814
 5560TIP3    H116686   2.202   0.861   0.880 -0.8792 -0.7107  0.2913
 5560TIP3    H216687   2.282   0.775   0.784  0.8863  1.8030 -0.5822
 5561TIP3   OH216688   4.446   3.325   0.803 -0.6159  0.4156 -0.6246
 5561TIP3    H116689   4.465   3.418   0.795 -1.8693  0.7184 -0.3359
 5561TIP3    H216690   4.454   3.307   0.896  0.1123  0.1207 -0.7443
 5562TIP3   OH216691   4.942   4.041   2.800  0.5147  0.2778 -0.6201
 5562TIP3    H116692   4.860   4.012   2.840  1.2173 -1.3785 -0.3293
 5562TIP3    H216693   4.991   3.961   2.784  2.4440  1.2782 -0.0229
 5563TIP3   OH216694   4.044   2.831   0.971 -0.5600  0.0990 -0.2736
 5563TIP3    H116695   3.993   2.900   1.013 -2.5291 -1.1092 -0.5298
 5563TIP3    H216696   4.033   2.755   1.029  0.7701 -0.2863 -0.4812
 5564TIP3   OH216697   6.165   0.317   2.750 -0.1658 -0.1834  0.2266
 5564TIP3    H116698   6.238   0.297   2.808  0.6443  1.1979 -0.2466
 5564TIP3    H216699   6.089   0.276   2.791  0.0600  1.9444  3.1430
 5565TIP3   OH216700   1.562   3.131   0.732  0.8480  0.1769 -0.6216
 5565TIP3    H116701   1.584   3.105   0.643 -2.4768  1.1544 -1.8715
 5565TIP3    H216702   1.591   3.222   0.738 -1.8198  1.2228 -2.0011
 5566TIP3   OH216703   0.733   2.189   1.223  0.3933 -0.2913  0.1840
 5566TIP3    H116704   0.752   2.211   1.132  0.5071 -2.2703 -0.3060
 5566TIP3    H216705   0.728   2.093   1.225  1.4586 -0.3696  2.4779
 5567TIP3   OH216706   2.367   4.037   3.792 -0.0087 -0.3691  0.2716
 5567TIP3    H116707   2.345   3.972   3.725  1.2090 -0.7278  0.2072
 5567TIP3    H216708   2.430   4.096   3.750  0.6893 -0.5342  1.0553
 5568TIP3   OH216709   2.741   2.915   3.120 -0.3005 -0.6451  0.0464
 5568TIP3    H116710   2.687   2.900   3.198 -1.4974 -1.0285 -0.8177
 5568TIP3    H216711   2.702   2.993   3.079 -0.2086 -0.9325 -0.5982
 5569TIP3   OH216712   1.521   4.128   1.165  0.0948  0.4418 -0.1555
 5569TIP3    H116713   1.543   4.037   1.184  0.7499  0.4585 -0.7595
 5569TIP3    H216714   1.606   4.172   1.162 -0.2145  1.0609  0.0623
 5570TIP3   OH216715   1.469   3.488   1.882 -0.6704  0.3169 -0.2053
 5570TIP3    H116716   1.478   3.472   1.976 -0.5809  2.3460  0.1715
 5570TIP3    H216717   1.378   3.463   1.862 -0.6606 -0.2206  0.3824
 5571TIP3   OH216718   0.731   4.106   0.625 -0.8343 -0.1109 -0.1233
 5571TIP3    H116719   0.745   4.147   0.539  0.3644 -0.4039 -0.0844
 5571TIP3    H216720   0.785   4.027   0.623  1.4353  1.2448  1.8737
 5572TIP3   OH216721   1.776   5.971   2.675  0.3005  0.0111 -0.3513
 5572TIP3    H116722   1.852   6.012   2.633 -0.5918  0.4778 -1.5769
 5572TIP3    H216723   1.722   5.941   2.602 -0.5908 -0.5325  0.5070
 5573TIP3   OH216724   2.321   3.280   4.813  0.1873 -0.0698  0.5416
 5573TIP3    H116725   2.227   3.293   4.800  0.2961 -0.0673 -0.2765
 5573TIP3    H216726   2.360   3.366   4.801  0.3265 -0.1199  0.6251
 5574TIP3   OH216727   5.076   0.902   4.326  0.2421  0.4144 -0.0973
 5574TIP3    H116728   5.012   0.912   4.397  0.7337 -1.3951  0.6608
 5574TIP3    H216729   5.148   0.851   4.365  1.8270  1.7523 -1.1329
 5575TIP3   OH216730   0.125   5.061   2.705 -0.4971  0.2485  0.1110
 5575TIP3    H116731   0.215   5.062   2.674 -0.4523 -0.2423  0.2191
 5575TIP3    H216732   0.083   4.992   2.653 -1.0614  1.1327 -0.6380
 5576TIP3   OH216733   4.434   4.978   0.255 -0.0804 -0.4877 -0.7521
 5576TIP3    H116734   4.432   4.976   0.159 -0.0919 -1.7605 -0.7385
 5576TIP3    H216735   4.523   5.007   0.277  0.0314 -0.5372 -1.1389
 5577TIP3   OH216736   4.794   5.473   2.939 -0.8382  0.0453 -0.0288
 5577TIP3    H116737   4.767   5.384   2.964 -0.5341 -0.5706 -1.7217
 5577TIP3    H216738   4.889   5.470   2.939 -0.8305  0.2035 -0.6373
 5578TIP3   OH216739   4.647   5.760   4.214  0.3602 -0.1177 -0.3296
 5578TIP3    H116740   4.736   5.735   4.188  0.0229  0.0427 -1.6982
 5578TIP3    H216741   4.660   5.827   4.282  1.2682 -0.7942  0.1910
 5579TIP3   OH216742   0.266   2.250   5.016 -0.3657 -0.3421 -0.5995
 5579TIP3    H116743   0.240   2.298   4.937 -0.8647  0.7760  0.2185
 5579TIP3    H216744   0.221   2.295   5.087  0.4903 -1.0069  0.3886
 5580TIP3   OH216745   0.626   3.714   0.784 -0.1463  0.4189  0.0016
 5580TIP3    H116746   0.576   3.795   0.777  0.7412  1.0483  0.7950
 5580TIP3    H216747   0.567   3.653   0.829 -1.0564  0.4008 -1.1868
 5581TIP3   OH216748   1.050   4.248   2.525  0.4863 -0.6627  0.1665
 5581TIP3    H116749   1.064   4.173   2.583 -1.3853 -0.2013  1.2815
 5581TIP3    H216750   0.982   4.300   2.568  1.5372  1.5813 -0.6877
 5582TIP3   OH216751   0.401   5.927   1.946  0.0919 -0.1485  0.2136
 5582TIP3    H116752   0.451   5.970   2.015 -0.1207  0.0975  0.2164
 5582TIP3    H216753   0.315   5.970   1.949  0.1155 -0.0670 -0.2767
 5583TIP3   OH216754   6.027   2.851   0.821 -0.1720  0.2277  0.6944
 5583TIP3    H116755   6.068   2.794   0.887  3.1389 -0.6060 -1.8160
 5583TIP3    H216756   5.992   2.791   0.755 -0.8677  1.0761  0.2670
 5584TIP3   OH216757   1.416   2.857   3.310  0.1987  0.1010 -0.6950
 5584TIP3    H116758   1.489   2.867   3.371 -1.0113 -0.7824  1.0055
 5584TIP3    H216759   1.400   2.763   3.308 -1.5844  0.3513 -0.1058
 5585TIP3   OH216760   6.358   4.627   3.081 -0.2477 -0.0368 -0.6211
 5585TIP3    H116761   6.281   4.576   3.106 -0.6725 -0.0486 -1.8686
 5585TIP3    H216762   6.324   4.693   3.021  0.1877  2.1502  1.3859
 5586TIP3   OH216763   3.888   4.183   0.554 -0.6710  0.2669  0.4033
 5586TIP3    H116764   3.927   4.215   0.634  0.6813 -0.1028 -0.0845
 5586TIP3    H216765   3.933   4.100   0.537 -0.9632  0.3204 -0.7052
 5587TIP3   OH216766   0.926   2.589   5.035  0.0226  0.2216  0.0513
 5587TIP3    H116767   0.955   2.570   5.124  0.8471  1.5590  0.0940
 5587TIP3    H216768   1.003   2.571   4.980 -0.2190  0.2023 -0.2821
 5588TIP3   OH216769   2.364   3.525   2.851 -0.4233  0.0455  0.4083
 5588TIP3    H116770   2.288   3.506   2.796 -0.3877 -0.1929  0.4439
 5588TIP3    H216771   2.401   3.605   2.813 -0.6837  0.1563  0.3844
 5589TIP3   OH216772   2.051   3.420   2.313  0.2671 -0.2110 -0.1577
 5589TIP3    H116773   2.082   3.463   2.233 -1.3860  1.0852 -0.1517
 5589TIP3    H216774   2.004   3.489   2.360  0.3059 -1.2350  1.4343
 5590TIP3   OH216775   3.934   3.378   0.266  0.2486  0.0513  0.2887
 5590TIP3    H116776   3.858   3.342   0.220 -1.5305  0.6587  2.5677
 5590TIP3    H216777   3.995   3.305   0.272 -0.7960 -0.9073 -0.2586
 5591TIP3   OH216778   2.268   0.088   1.951 -0.1097  0.4818 -0.2642
 5591TIP3    H116779   2.190   0.096   1.896  0.4267 -0.3150 -1.1656
 5591TIP3    H216780   2.233   0.091   2.041 -1.4576 -1.7607 -0.6166
 5592TIP3   OH216781   3.601   5.967   4.961  0.9475  0.6859  0.7087
 5592TIP3    H116782   3.582   5.896   4.898 -1.0498  0.6512  1.2657
 5592TIP3    H216783   3.651   5.925   5.031 -2.8947 -1.1382  2.6680
 5593TIP3   OH216784   3.035   2.491   4.014  0.6687 -0.4947 -0.1894
 5593TIP3    H116785   3.042   2.467   4.106 -2.2845 -2.7218 -0.3914
 5593TIP3    H216786   2.942   2.482   3.994  0.9283  1.6966 -2.9762
 5594TIP3   OH216787   1.733   2.269   4.300 -0.0673  0.3978 -0.1854
 5594TIP3    H116788   1.740   2.364   4.311 -0.2381  0.4912 -0.8272
 5594TIP3    H216789   1.813   2.245   4.252  0.4255  0.0761  0.7674
 5595TIP3   OH216790   5.364   5.839   0.905  0.4271 -0.2595 -0.5342
 5595TIP3    H116791   5.397   5.752   0.885 -1.9350 -1.8509  1.8170
 5595TIP3    H216792   5.402   5.860   0.991 -0.3017  0.3191 -0.3442
 5596TIP3   OH216793   5.500   5.955   3.515  1.1499 -0.0012 -0.0537
 5596TIP3    H116794   5.496   6.028   3.577  1.7920  0.8682 -1.0123
 5596TIP3    H216795   5.417   5.961   3.466  1.2967  0.2255 -0.2779
 5597TIP3   OH216796   0.896   1.165   4.385 -0.1380  0.2084 -0.0608
 5597TIP3    H116797   0.875   1.231   4.451 -1.4149 -1.2904  1.0911
 5597TIP3    H216798   0.938   1.095   4.434 -0.0678 -0.4591 -1.0478
 5598TIP3   OH216799   3.359   4.768   3.140  0.5028 -0.1081 -0.1423
 5598TIP3    H116800   3.382   4.743   3.051  0.4460  0.5307 -0.3358
 5598TIP3    H216801   3.277   4.816   3.132  0.4750 -0.0839  0.2583
 5599TIP3   OH216802   0.434   0.899   2.532 -0.0320 -0.2584 -0.4604
 5599TIP3    H116803   0.368   0.940   2.588  0.0496  1.0889 -1.3199
 5599TIP3    H216804   0.389   0.879   2.451  0.5105  0.3235 -0.9175
 5600TIP3   OH216805   2.113   1.440   3.833  0.3277 -0.3368 -0.0924
 5600TIP3    H116806   2.096   1.351   3.800 -1.2570  0.2203 -0.8749
 5600TIP3    H216807   2.035   1.490   3.808  0.9395  1.1429  0.8530
 5601TIP3   OH216808   2.189   0.945   0.545  0.0230 -0.8322  0.4599
 5601TIP3    H116809   2.204   0.900   0.628  0.6440 -1.9739 -0.2450
 5601TIP3    H216810   2.252   1.017   0.544  0.7629 -1.4672  0.5184
 5602TIP3   OH216811   0.012   5.633   1.405  0.0888 -0.0564 -0.0513
 5602TIP3    H116812   0.042   5.558   1.458  0.5486 -1.8203 -2.6187
 5602TIP3    H216813   0.091   5.669   1.367 -0.2716  0.8924  0.0812
 5603TIP3   OH216814   5.749   5.192   3.868  0.2589  0.2507 -0.1221
 5603TIP3    H116815   5.724   5.189   3.775  1.2100  0.1018 -0.3828
 5603TIP3    H216816   5.822   5.254   3.871  0.8131 -0.4055  0.3878
 5604TIP3   OH216817   0.841   3.708   2.452 -0.3948  0.3875 -0.9170
 5604TIP3    H116818   0.771   3.772   2.463 -1.3350 -0.8464  0.7702
 5604TIP3    H216819   0.797   3.623   2.457  1.2539 -0.4485  0.8301
 5605TIP3   OH216820   4.172   1.441   4.585  0.3425 -0.6871  0.2039
 5605TIP3    H116821   4.266   1.442   4.567  0.0974 -0.2129 -1.1674
 5605TIP3    H216822   4.132   1.432   4.499 -0.8748 -0.9971  0.7898
 5606TIP3   OH216823   5.020   3.315   2.832  0.1729  0.2177 -0.2530
 5606TIP3    H116824   4.974   3.372   2.894 -1.4791 -0.7337 -0.5546
 5606TIP3    H216825   5.058   3.375   2.768 -1.9875  1.0167 -0.8852
 5607TIP3   OH216826   1.594   2.027   2.698 -0.0634 -0.0951  0.5793
 5607TIP3    H116827   1.683   2.046   2.668 -0.7767 -0.4753 -1.9928
 5607TIP3    H216828   1.537   2.071   2.635 -1.7103 -1.2109  1.2130
 5608TIP3   OH216829   1.249   2.317   3.335  0.1206  0.4319 -0.3684
 5608TIP3    H116830   1.294   2.248   3.286 -0.9636  1.4678 -2.9565
 5608TIP3    H216831   1.156   2.296   3.329 -0.1017  1.0668  0.5270
 5609TIP3   OH216832   0.759   3.923   2.741  0.4629  0.1423  0.2198
 5609TIP3    H116833   0.729   3.994   2.798  0.2739 -0.4110  0.8295
 5609TIP3    H216834   0.707   3.932   2.662  0.7591  0.9506  0.1145
 5610TIP3   OH216835   0.195   3.717   5.082 -0.3046 -0.2317 -0.2411
 5610TIP3    H116836   0.274   3.663   5.085 -0.3478 -0.5088 -2.6644
 5610TIP3    H216837   0.227   3.806   5.065 -0.4916 -0.3257 -1.1115
 5611TIP3   OH216838   2.453   2.452   0.432  0.0025  0.1313 -0.6759
 5611TIP3    H116839   2.372   2.444   0.382 -1.1312  2.4744  0.6519
 5611TIP3    H216840   2.431   2.419   0.519  0.6812  0.1525 -0.4854
 5612TIP3   OH216841   1.054   1.308   0.146 -0.0019  0.2786 -0.1867
 5612TIP3    H116842   0.989   1.357   0.196 -1.4735 -0.8050 -0.9913
 5612TIP3    H216843   1.125   1.371   0.132 -0.4567  1.2120  1.4662
 5613TIP3   OH216844   0.056   0.527   0.178 -1.3070 -0.2695 -0.0942
 5613TIP3    H116845   0.111   0.484   0.113 -0.5547  1.4166 -0.6437
 5613TIP3    H216846   0.011   0.456   0.224  1.7723 -1.8066  0.8063
 5614TIP3   OH216847   0.247   2.637   2.675 -0.7319 -0.5573 -0.2794
 5614TIP3    H116848   0.320   2.626   2.736 -1.9479 -0.4926  1.2674
 5614TIP3    H216849   0.250   2.729   2.651  0.0213 -0.6783 -0.6801
 5615TIP3   OH216850   0.375   2.450   4.304 -0.2154 -0.3986 -0.1463
 5615TIP3    H116851   0.316   2.377   4.285 -1.5957  1.1263 -2.1835
 5615TIP3    H216852   0.316   2.523   4.323  1.0951  0.5688  0.3036
 5616TIP3   OH216853   5.582   4.583   2.408  0.2612  0.1091 -0.0366
 5616TIP3    H116854   5.496   4.623   2.419  0.3354  1.0004 -2.1945
 5616TIP3    H216855   5.563   4.491   2.391 -0.1906  0.0989  0.4889
 5617TIP3   OH216856   5.830   4.426   2.237 -0.1117 -0.4750 -0.0754
 5617TIP3    H116857   5.752   4.432   2.293 -0.6477  1.6322 -0.9486
 5617TIP3    H216858   5.810   4.482   2.162  1.3629 -1.6985 -1.4454
 5618TIP3   OH216859   0.712   2.770   0.298 -0.2571  0.4392  0.1806
 5618TIP3    H116860   0.691   2.787   0.390 -0.8036  1.1171 -0.0559
 5618TIP3    H216861   0.632   2.793   0.251 -0.3488 -0.9168 -0.3771
 5619TIP3   OH216862   4.586   2.558   3.749 -0.0303 -0.0078  0.1232
 5619TIP3    H116863   4.652   2.497   3.717  0.6643  1.0367 -0.4509
 5619TIP3    H216864   4.619   2.645   3.726 -1.4192  0.5526  0.1510
 5620TIP3   OH216865   3.678   2.566   5.204 -0.0324 -0.4602 -0.2346
 5620TIP3    H116866   3.605   2.532   5.151 -1.3564 -0.2483  1.3783
 5620TIP3    H216867   3.753   2.514   5.176 -0.2377  0.8028 -3.5592
 5621TIP3   OH216868   3.525   1.675   1.328  0.2439 -0.6067 -0.5773
 5621TIP3    H116869   3.479   1.605   1.281  1.0734 -1.2945 -0.3880
 5621TIP3    H216870   3.538   1.743   1.262 -1.4401 -0.1827 -0.5233
 5622TIP3   OH216871   2.383   0.876   5.128 -0.4993  0.3537 -0.1216
 5622TIP3    H116872   2.412   0.835   5.047  2.2544  1.5117  0.1458
 5622TIP3    H216873   2.334   0.808   5.174  0.7820 -1.4324 -1.2666
 5623TIP3   OH216874   2.263   2.258   4.564 -0.0368  0.2252  0.1322
 5623TIP3    H116875   2.179   2.212   4.565  0.0788 -0.0504  2.0943
 5623TIP3    H216876   2.246   2.339   4.613  0.1425  1.6276 -1.9759
 5624TIP3   OH216877   4.835   3.811   3.675 -0.2794  0.1798  0.6242
 5624TIP3    H116878   4.899   3.745   3.702 -0.5773 -1.0729 -1.4979
 5624TIP3    H216879   4.753   3.762   3.667 -0.8463  1.1399  0.4594
 5625TIP3   OH216880   3.777   0.983   0.599 -0.3220 -0.0671 -0.1115
 5625TIP3    H116881   3.872   0.971   0.599 -0.1614  1.0785  0.9376
 5625TIP3    H216882   3.751   0.963   0.509  0.5447 -2.9248  0.1608
 5626TIP3   OH216883   3.600   3.203   2.589  0.0861  0.0028  0.2792
 5626TIP3    H116884   3.693   3.217   2.568 -0.5975  1.2744 -2.2235
 5626TIP3    H216885   3.586   3.253   2.669  1.8274 -1.3934  1.5587
 5627TIP3   OH216886   1.499   2.615   1.910 -0.8126  0.2372  0.0914
 5627TIP3    H116887   1.444   2.585   1.838  1.1806 -2.0805 -0.6133
 5627TIP3    H216888   1.585   2.629   1.870 -0.5293  2.6485  1.3516
 5628TIP3   OH216889   3.438   5.085   3.698 -1.0541  0.2152  0.2165
 5628TIP3    H116890   3.486   5.026   3.639  0.3363  2.1815 -0.7127
 5628TIP3    H216891   3.453   5.048   3.785  1.2911  0.1066 -0.1573
 5629TIP3   OH216892   5.430   3.732   1.225  1.3182 -0.0447  0.0713
 5629TIP3    H116893   5.340   3.717   1.253  1.5419 -1.3590  0.1815
 5629TIP3    H216894   5.481   3.735   1.307  1.7840 -2.5481 -0.0367
 5630TIP3   OH216895   5.225   2.176   0.960 -0.3910  0.2140 -0.3669
 5630TIP3    H116896   5.220   2.083   0.941  0.6985 -0.0103  0.3356
 5630TIP3    H216897   5.257   2.180   1.050  1.6884  1.2467 -1.0769
 5631TIP3   OH216898   4.926   3.243   2.467  0.5989 -0.4686  0.5023
 5631TIP3    H116899   4.832   3.253   2.483  0.7254 -1.8212  2.4120
 5631TIP3    H216900   4.935   3.156   2.428  1.0075  0.0253 -0.5497
 5632TIP3   OH216901   4.222   0.914   4.219 -0.3091 -0.0405  0.6273
 5632TIP3    H116902   4.207   1.005   4.244 -1.5111 -0.0899  0.1175
 5632TIP3    H216903   4.237   0.869   4.302 -2.7628  0.0657  1.1841
 5633TIP3   OH216904   2.682   1.296   1.920  0.3364 -0.2483  0.0223
 5633TIP3    H116905   2.588   1.294   1.899  0.7461 -0.4645 -2.0135
 5633TIP3    H216906   2.688   1.252   2.005 -1.4298  0.0232  0.3345
 5634TIP3   OH216907   3.004   3.104   1.328 -0.6553  0.6996  0.2770
 5634TIP3    H116908   2.984   3.027   1.275 -1.2157  0.5943  0.6433
 5634TIP3    H216909   3.062   3.071   1.397 -0.8594  0.6173  0.4080
 5635TIP3   OH216910   4.985   2.758   4.100  0.7459  0.2222  0.4488
 5635TIP3    H116911   4.916   2.820   4.076  1.1568  0.2017 -0.8997
 5635TIP3    H216912   4.938   2.678   4.126  0.2232  0.9946  1.9358
 5636TIP3   OH216913   6.006   1.704   1.848 -0.5306  0.1811  0.1402
 5636TIP3    H116914   5.973   1.615   1.863  0.4919 -0.4119 -0.9131
 5636TIP3    H216915   5.928   1.758   1.841 -1.1649 -0.5574  1.2045
 5637TIP3   OH216916   3.023   4.412   4.153 -0.4676  0.0639  0.3245
 5637TIP3    H116917   2.944   4.385   4.105  1.8141 -1.1246 -3.0852
 5637TIP3    H216918   3.049   4.333   4.201  0.0669 -0.3939 -0.6938
 5638TIP3   OH216919   5.044   1.753   4.646  0.1151  0.4038 -0.4425
 5638TIP3    H116920   5.018   1.669   4.683  1.4049  0.7419  1.3522
 5638TIP3    H216921   4.963   1.790   4.610 -0.7100 -1.0152 -0.1115
 5639TIP3   OH216922   1.631   4.834   4.971  0.5697  0.2204  0.0287
 5639TIP3    H116923   1.580   4.888   5.031  1.0879 -0.4188  1.0771
 5639TIP3    H216924   1.689   4.783   5.028  1.2743 -0.2075 -1.0342
 5640TIP3   OH216925   4.889   1.558   2.009 -0.5874 -0.3519  0.2575
 5640TIP3    H116926   4.872   1.497   2.081 -1.9318 -0.0227  0.2422
 5640TIP3    H216927   4.815   1.546   1.949  1.2118 -1.7105 -1.8743
 5641TIP3   OH216928   3.380   3.961   3.675 -0.2119  0.1908 -0.1380
 5641TIP3    H116929   3.439   4.000   3.740 -0.2176  1.1073 -0.6538
 5641TIP3    H216930   3.438   3.913   3.616  0.2096  2.0909 -1.3503
 5642TIP3   OH216931   4.264   1.065   0.705 -0.1716  0.1517 -0.3502
 5642TIP3    H116932   4.297   1.045   0.617  0.6118 -1.8883  0.3530
 5642TIP3    H216933   4.318   1.139   0.734  1.3450 -0.7938 -0.6337
 5643TIP3   OH216934   4.460   3.561   2.024 -0.1229  0.1132  0.2103
 5643TIP3    H116935   4.531   3.624   2.042 -1.0999  0.2834  4.5036
 5643TIP3    H216936   4.505   3.477   2.012  0.9214  0.7744 -0.7478
 5644TIP3   OH216937   2.652   4.419   4.730 -0.4147 -0.0650 -0.1626
 5644TIP3    H116938   2.696   4.339   4.702 -1.3687 -0.9406  0.7408
 5644TIP3    H216939   2.593   4.441   4.658  0.5133  0.3687 -0.8089
 5645TIP3   OH216940   2.964   5.849   4.341  0.5640  0.1102  0.5529
 5645TIP3    H116941   3.046   5.823   4.381  0.4443 -2.4358 -0.6500
 5645TIP3    H216942   2.897   5.805   4.393  0.2187 -0.5838 -0.4414
 5646TIP3   OH216943   1.507   1.336   4.829 -0.0565 -0.7293 -0.1255
 5646TIP3    H116944   1.515   1.260   4.887  2.4487  0.2348  0.9254
 5646TIP3    H216945   1.588   1.335   4.778 -0.4578  0.6511 -0.8194
 5647TIP3   OH216946   4.802   4.028   0.519  0.5755 -0.2262  0.1065
 5647TIP3    H116947   4.824   4.115   0.486 -0.0580  0.2784  0.9834
 5647TIP3    H216948   4.874   3.972   0.490  1.8093  0.9000  0.9067
 5648TIP3   OH216949   4.363   3.082   4.281  0.7031  1.0141 -0.5499
 5648TIP3    H116950   4.400   3.084   4.369  1.0288 -0.9011 -0.5980
 5648TIP3    H216951   4.356   3.174   4.256 -2.0920  1.8716  2.5762
 5649TIP3   OH216952   2.851   2.266   1.711  0.0305 -0.8388 -0.1051
 5649TIP3    H116953   2.891   2.294   1.793 -1.3224  0.2430  0.2128
 5649TIP3    H216954   2.890   2.180   1.693  1.2460 -0.5461  1.0197
 5650TIP3   OH216955   3.992   0.661   3.300  0.0978 -0.0449 -0.3716
 5650TIP3    H116956   4.079   0.627   3.320 -0.4293 -1.5563 -0.5016
 5650TIP3    H216957   3.990   0.666   3.204  0.4184  1.0723 -0.3298
 5651TIP3   OH216958   3.858   1.003   2.890 -0.3213  0.1647  0.0444
 5651TIP3    H116959   3.876   0.999   2.796 -0.3249  0.7850  0.0186
 5651TIP3    H216960   3.942   1.025   2.930 -0.1280 -0.8930  0.2663
 5652TIP3   OH216961   3.313   1.079   4.476 -0.0040 -0.0551  0.3858
 5652TIP3    H116962   3.384   1.016   4.467  1.1843  1.0095  1.7546
 5652TIP3    H216963   3.325   1.139   4.402  0.5236  0.1069  0.5993
 5653TIP3   OH216964   2.736   0.943   4.015  0.0914  0.3169  0.2439
 5653TIP3    H116965   2.778   1.025   3.992  0.8184 -0.3731 -0.9720
 5653TIP3    H216966   2.726   0.896   3.932  1.0801 -1.4722  1.0654
 5654TIP3   OH216967   5.733   3.588   0.591  0.0587 -0.3121 -0.2029
 5654TIP3    H116968   5.795   3.579   0.519 -0.5087 -0.0338 -0.7349
 5654TIP3    H216969   5.736   3.504   0.636 -2.1534 -1.8426 -2.6470
 5655TIP3   OH216970   2.321   1.717   2.861 -0.6136  0.0709 -0.0703
 5655TIP3    H116971   2.344   1.647   2.800 -0.8006  0.9790 -1.2368
 5655TIP3    H216972   2.400   1.729   2.915 -0.0727 -0.0937 -0.8048
 5656TIP3   OH216973   1.141   3.549   0.882  0.1032  0.5027 -0.6890
 5656TIP3    H116974   1.084   3.608   0.833  0.0174 -0.1270 -1.3762
 5656TIP3    H216975   1.143   3.469   0.829  0.7351  0.1255 -0.1095
 5657TIP3   OH216976   2.780   4.538   1.262 -0.3229  0.3964  0.0679
 5657TIP3    H116977   2.740   4.525   1.176  1.9027  1.4291 -1.2255
 5657TIP3    H216978   2.836   4.615   1.251  0.7649 -0.0183  2.1736
 5658TIP3   OH216979   4.446   3.692   3.874  0.3457 -0.0512 -0.5224
 5658TIP3    H116980   4.447   3.688   3.970  0.6317 -0.3230 -0.5366
 5658TIP3    H216981   4.435   3.785   3.854  1.8449  0.1999 -0.2347
 5659TIP3   OH216982   3.161   4.759   3.935 -0.1190 -0.6579  0.1559
 5659TIP3    H116983   3.092   4.793   3.993 -0.6331 -0.7714 -0.3811
 5659TIP3    H216984   3.152   4.811   3.855  1.2697  0.2261  0.5418
 5660TIP3   OH216985   0.186   1.302   4.059  0.1581 -0.2288  0.5086
 5660TIP3    H116986   0.160   1.381   4.107  1.5015  0.6890 -0.2227
 5660TIP3    H216987   0.275   1.283   4.089  1.0159  0.3479 -1.5423
 5661TIP3   OH216988   5.491   0.037   4.664  0.7318  0.3661 -0.0020
 5661TIP3    H116989   5.403   0.049   4.701  0.5495 -2.3030  0.6032
 5661TIP3    H216990   5.475   0.015   4.572  0.9154  1.8894 -0.4220
 5662TIP3   OH216991   3.151   4.064   1.249 -0.2789  0.2328 -0.1877
 5662TIP3    H116992   3.138   4.056   1.344 -0.1062 -1.0450 -0.2543
 5662TIP3    H216993   3.246   4.054   1.237 -0.1067  1.8210 -0.3915
 5663TIP3   OH216994   1.306   3.722   0.630 -0.6993  0.2190 -0.2735
 5663TIP3    H116995   1.306   3.732   0.725 -1.2889  2.1182 -0.4345
 5663TIP3    H216996   1.253   3.644   0.615 -0.0672 -0.4789  0.9687
 5664TIP3   OH216997   4.418   5.389   3.017 -0.3107 -0.3863 -0.1859
 5664TIP3    H116998   4.464   5.368   2.936 -0.7577 -0.6841 -0.3615
 5664TIP3    H216999   4.387   5.305   3.051 -1.0605 -0.1502 -0.2696
 5665TIP3   OH217000   2.689  -0.016   3.707  0.4003  0.6760  0.1852
 5665TIP3    H117001   2.694   0.066   3.755  0.0625  0.3935  0.7026
 5665TIP3    H217002   2.781  -0.040   3.693  0.5313  0.1380  1.7690
 5666TIP3   OH217003   4.678   5.122   0.694  0.0498  0.0832 -0.2180
 5666TIP3    H117004   4.679   5.026   0.699 -1.1621  0.0150 -0.8278
 5666TIP3    H217005   4.766   5.149   0.720  0.5820 -1.2285 -0.5904
 5667TIP3   OH217006   3.829   5.357   3.947 -0.0823 -0.0132 -0.5526
 5667TIP3    H117007   3.800   5.338   3.857  2.1993  0.6549 -1.5049
 5667TIP3    H217008   3.910   5.407   3.936  0.4904 -0.2731  1.9089
 5668TIP3   OH217009   1.371   4.182   0.230 -0.4612 -0.3181 -0.1023
 5668TIP3    H117010   1.429   4.154   0.159  0.5844 -0.8113  0.9163
 5668TIP3    H217011   1.284   4.186   0.190  0.1723 -0.1310 -1.5176
 5669TIP3   OH217012   2.781   4.959   2.872  0.8231 -0.0486 -0.2333
 5669TIP3    H117013   2.773   4.868   2.846  0.2034 -0.4233  1.1789
 5669TIP3    H217014   2.838   4.998   2.806  1.5231 -1.5689 -0.5687
 5670TIP3   OH217015   5.129   0.008   0.010  0.1761  0.5706  0.2352
 5670TIP3    H117016   5.138   0.090  -0.040  0.5364  1.2433  1.3652
 5670TIP3    H217017   5.219  -0.017   0.031  0.0160  0.4514  0.7861
 5671TIP3   OH217018   6.056   1.389   1.890  0.1489  0.4847 -0.5041
 5671TIP3    H117019   6.130   1.328   1.883 -0.7562 -0.7773  0.4474
 5671TIP3    H217020   6.000   1.351   1.959 -1.1822  1.6182 -0.9174
 5672TIP3   OH217021   3.211   4.289   4.919  0.3092  0.2270 -0.2345
 5672TIP3    H117022   3.135   4.240   4.951  0.8829 -0.0004  0.8293
 5672TIP3    H217023   3.175   4.347   4.852 -0.3160 -1.9459 -1.8948
 5673TIP3   OH217024   5.798   0.920   1.219  0.1223 -0.7310 -0.1122
 5673TIP3    H117025   5.827   0.995   1.271  0.5390  0.7824 -2.3574
 5673TIP3    H217026   5.703   0.930   1.214  0.1622 -0.3968 -0.2907
 5674TIP3   OH217027   5.510   1.362   1.230 -0.3324  0.0399  0.2762
 5674TIP3    H117028   5.462   1.353   1.312 -1.4706  0.9248 -0.2667
 5674TIP3    H217029   5.558   1.445   1.239 -0.1327 -0.0662  0.2025
 5675TIP3   OH217030   0.626   5.162  -0.012 -0.1171  0.0092 -0.2371
 5675TIP3    H117031   0.611   5.233   0.052  0.9152  0.5614 -0.5851
 5675TIP3    H217032   0.626   5.082   0.041 -1.0993  0.2715  0.1912
 5676TIP3   OH217033   0.667   5.106   0.893  0.2896  0.2541 -0.1446
 5676TIP3    H117034   0.748   5.085   0.939  0.8426 -0.4772 -1.3937
 5676TIP3    H217035   0.695   5.155   0.815 -0.4000 -0.3845 -0.8146
 5677TIP3   OH217036   1.119   3.746   2.394 -0.5718  0.1249  0.1130
 5677TIP3    H117037   1.159   3.791   2.468 -0.9887  1.5399 -0.4894
 5677TIP3    H217038   1.026   3.743   2.415 -0.3960 -1.7269  0.7740
 5678TIP3   OH217039   0.206   5.402   1.190 -0.3934  0.2826  0.0181
 5678TIP3    H117040   0.122   5.448   1.193 -0.2658  0.6986 -1.9006
 5678TIP3    H217041   0.268   5.467   1.157  0.3003 -0.5542 -0.3774
 5679TIP3   OH217042   4.844   0.351   4.377 -0.1798 -0.3080  0.2300
 5679TIP3    H117043   4.787   0.299   4.319 -0.8820 -0.3541  0.9553
 5679TIP3    H217044   4.893   0.286   4.426 -1.6211 -0.3372  1.7026
 5680TIP3   OH217045   1.898   5.796   1.395 -0.2773 -0.0876 -0.3043
 5680TIP3    H117046   1.834   5.725   1.399 -2.6802  1.9368 -0.3636
 5680TIP3    H217047   1.970   5.767   1.451 -1.2157 -2.4606 -0.2120
 5681TIP3   OH217048   1.841   5.464   0.072  0.4276 -0.0465  0.2223
 5681TIP3    H117049   1.755   5.430   0.097 -0.2956  1.7437  0.2510
 5681TIP3    H217050   1.901   5.392   0.092 -0.9708 -1.1020  0.7926
 5682TIP3   OH217051   5.217   3.338   3.139  0.3932  0.2427  0.2234
 5682TIP3    H117052   5.150   3.389   3.093 -1.0044 -1.7799 -0.1078
 5682TIP3    H217053   5.169   3.265   3.179  2.2548 -0.6825  0.8925
 5683TIP3   OH217054   0.079   0.393   3.593 -0.3820 -0.2750  0.1197
 5683TIP3    H117055   0.067   0.333   3.520  1.0185  0.6861 -0.9509
 5683TIP3    H217056  -0.007   0.434   3.604 -0.6045 -0.4111 -1.0145
 5684TIP3   OH217057   5.158   2.386   0.376 -0.5056  0.3278  0.4109
 5684TIP3    H117058   5.065   2.365   0.373 -0.3770 -0.1721 -1.4901
 5684TIP3    H217059   5.197   2.333   0.306  0.7979  2.3755 -0.5056
 5685TIP3   OH217060   3.514   5.222   4.307 -0.4458 -0.2224 -0.1768
 5685TIP3    H117061   3.567   5.220   4.227 -2.1432  0.2577 -1.3801
 5685TIP3    H217062   3.533   5.140   4.351  1.3908  0.0050 -0.4728
 5686TIP3   OH217063   1.890   3.770   2.716  0.1532 -0.4581  0.1766
 5686TIP3    H117064   1.868   3.850   2.667  0.6327 -0.0333  0.6304
 5686TIP3    H217065   1.825   3.706   2.689 -0.2689  0.1047 -0.1635
 5687TIP3   OH217066   5.279   4.925   0.816  0.1849  0.1431 -0.0320
 5687TIP3    H117067   5.232   4.850   0.781  0.7635  0.0924 -0.7246
 5687TIP3    H217068   5.314   4.969   0.738  0.4312  0.7381  0.4123
 5688TIP3   OH217069   5.474   4.701   2.134  0.0098  0.5828 -0.6521
 5688TIP3    H117070   5.462   4.607   2.123 -0.6923  0.3525  1.6047
 5688TIP3    H217071   5.389   4.739   2.112  0.3096  0.7247 -1.6203
 5689TIP3   OH217072   1.007   5.497   1.141 -0.2194 -0.2277 -0.2265
 5689TIP3    H117073   0.946   5.568   1.119  0.1481  0.1157 -0.1290
 5689TIP3    H217074   0.953   5.434   1.189 -0.0891  0.9305  1.5153
 5690TIP3   OH217075   2.590   5.725   2.247 -0.5248  0.4018  0.2192
 5690TIP3    H117076   2.638   5.643   2.261  1.4061  1.1163 -1.6259
 5690TIP3    H217077   2.500   5.698   2.231 -0.0102 -1.3439  0.0361
 5691TIP3   OH217078   2.813   0.593   4.086  0.0980  0.4566 -0.0712
 5691TIP3    H117079   2.889   0.591   4.028 -1.7212  0.8373 -2.6391
 5691TIP3    H217080   2.828   0.668   4.144  2.8289 -1.0343  1.3145
 5692TIP3   OH217081   4.578   1.249   5.039  0.3724 -0.1359 -0.0253
 5692TIP3    H117082   4.651   1.240   5.099  0.2031 -1.3815  0.0235
 5692TIP3    H217083   4.597   1.328   4.988  0.1268  1.4114  2.1665
 5693TIP3   OH217084   1.279   4.658   0.731  0.1564 -0.1572 -0.2444
 5693TIP3    H117085   1.186   4.657   0.755  0.1006 -1.3651 -0.4449
 5693TIP3    H217086   1.296   4.570   0.696  0.9110  0.6209 -1.9642
 5694TIP3   OH217087   2.922   0.219   4.406 -0.0513  0.1962 -0.7082
 5694TIP3    H117088   2.880   0.296   4.367  0.7147  0.8024 -0.3780
 5694TIP3    H217089   2.885   0.215   4.495 -0.7518 -0.3544 -1.0150
 5695TIP3   OH217090   2.729   2.486   4.173  0.0601 -0.6370 -0.2642
 5695TIP3    H117091   2.808   2.529   4.206  0.2774 -1.6681  0.6494
 5695TIP3    H217092   2.745   2.392   4.188 -2.1876 -0.7760  2.0292
 5696TIP3   OH217093   1.456   2.155   0.292  0.3493  0.0594  0.3189
 5696TIP3    H117094   1.440   2.161   0.198  0.3144 -1.3050  0.2129
 5696TIP3    H217095   1.443   2.244   0.325  0.7217  0.6199 -1.0144
 5697TIP3   OH217096   3.851   4.494   1.233 -0.5898  0.3207 -0.2888
 5697TIP3    H117097   3.792   4.517   1.305  0.7143  0.7372  0.6846
 5697TIP3    H217098   3.857   4.574   1.181 -0.5931  0.3850 -0.1897
 5698TIP3   OH217099   4.492   1.313   1.115  0.3779 -0.2339  0.1170
 5698TIP3    H117100   4.574   1.286   1.157  0.3793 -0.4794 -0.0411
 5698TIP3    H217101   4.449   1.369   1.179  0.6610 -0.1220  0.2088
 5699TIP3   OH217102   0.729   5.467   1.517  0.3126 -0.2266  0.0111
 5699TIP3    H117103   0.809   5.511   1.542 -0.1011  1.8138 -1.9139
 5699TIP3    H217104   0.670   5.538   1.489 -1.2771 -1.8267 -0.9218
 5700TIP3   OH217105   0.945   4.565   3.485  0.1938 -0.1016 -0.2760
 5700TIP3    H117106   0.885   4.634   3.456 -0.2908  0.1040  1.1664
 5700TIP3    H217107   0.889   4.488   3.495  0.0907  0.1421  1.2811
 5701TIP3   OH217108   5.660   2.805   3.803 -0.3722  0.0187 -0.2313
 5701TIP3    H117109   5.741   2.754   3.802 -0.0271  0.5535 -0.2041
 5701TIP3    H217110   5.688   2.895   3.783 -1.0516  0.0772 -0.9909
 5702TIP3   OH217111   5.793   0.634   4.171 -0.4083  0.2122 -0.1356
 5702TIP3    H117112   5.828   0.593   4.250  1.3256  1.1945 -0.3301
 5702TIP3    H217113   5.719   0.686   4.202  0.4899  0.8931  0.9381
 5703TIP3   OH217114   4.718   3.372   0.338 -0.1736 -0.2385 -0.7046
 5703TIP3    H117115   4.633   3.416   0.337 -0.0551  0.0727  0.7976
 5703TIP3    H217116   4.729   3.342   0.428  1.4344 -0.0376 -0.7946
 5704TIP3   OH217117   2.151   0.202   1.383  0.2893 -0.7706  0.4453
 5704TIP3    H117118   2.062   0.166   1.388  0.3345 -1.0641 -0.7434
 5704TIP3    H217119   2.199   0.141   1.327  0.7065  0.4576 -0.5716
 5705TIP3   OH217120   3.796   5.984   3.885 -0.0470  0.0417 -0.0393
 5705TIP3    H117121   3.764   5.942   3.805  1.9541 -0.9714 -0.3928
 5705TIP3    H217122   3.783   5.918   3.953 -3.2505  1.4898  0.9087
 5706TIP3   OH217123   1.139   4.163   4.123 -1.0156  0.3138 -0.2303
 5706TIP3    H117124   1.098   4.209   4.049 -0.4348  0.9692 -0.1536
 5706TIP3    H217125   1.213   4.219   4.148  0.6640 -1.4022 -1.1289
 5707TIP3   OH217126   3.371   2.190   1.021 -0.3234 -0.0777 -0.3518
 5707TIP3    H117127   3.308   2.206   1.092  2.1671  1.1930  1.7456
 5707TIP3    H217128   3.396   2.098   1.032 -0.8113 -0.2161 -0.3501
 5708TIP3   OH217129   5.064   5.288   1.756 -0.4557 -0.3728  0.0823
 5708TIP3    H117130   5.093   5.287   1.664 -0.2801 -1.9058  0.1318
 5708TIP3    H217131   5.050   5.196   1.777 -1.6398  0.0649  1.2545
 5709TIP3   OH217132   3.560   3.485   0.634  0.0004  0.6604 -0.5918
 5709TIP3    H117133   3.504   3.486   0.712  1.5643  1.5110  0.5625
 5709TIP3    H217134   3.645   3.453   0.666  1.3725  3.2495 -1.4208
 5710TIP3   OH217135   3.729   0.317   3.756  0.6922 -0.2339  0.5925
 5710TIP3    H117136   3.737   0.250   3.689 -1.5218 -0.1650  0.1997
 5710TIP3    H217137   3.817   0.355   3.763  1.0960 -0.5450 -1.9385
 5711TIP3   OH217138   0.486   2.504   1.639 -0.0495 -0.2430 -0.2342
 5711TIP3    H117139   0.575   2.482   1.667  0.0161 -0.7515 -0.8179
 5711TIP3    H217140   0.485   2.600   1.638  0.4666 -0.2307 -0.1407
 5712TIP3   OH217141   2.646   3.350   3.188 -0.5518 -0.0151 -0.0020
 5712TIP3    H117142   2.603   3.276   3.146  1.2435 -0.1502 -1.7310
 5712TIP3    H217143   2.738   3.323   3.197 -0.5645  0.5024  2.9659
 5713TIP3   OH217144   5.950   0.295   4.561 -1.0195  0.4142 -0.2260
 5713TIP3    H117145   5.967   0.256   4.646 -0.4962  0.3020 -0.3790
 5713TIP3    H217146   5.934   0.221   4.503 -0.8324  0.4655 -0.3427
 5714TIP3   OH217147   0.177   0.959   2.659  0.5045 -0.2990  0.0049
 5714TIP3    H117148   0.168   0.884   2.600 -0.1060  0.7208 -1.2189
 5714TIP3    H217149   0.100   0.953   2.716  1.4746 -1.7088  1.2468
 5715TIP3   OH217150   4.798   1.044   0.129  0.1074 -0.4174 -0.4019
 5715TIP3    H117151   4.780   1.136   0.112 -1.3055 -1.0833 -3.1961
 5715TIP3    H217152   4.893   1.035   0.116  0.2025  0.5881 -0.4535
 5716TIP3   OH217153   1.055   4.502   4.970 -0.0753 -0.0232  0.0408
 5716TIP3    H117154   0.988   4.526   4.906 -0.1391  0.0957  0.1530
 5716TIP3    H217155   1.138   4.518   4.924 -0.1043  1.0116  0.3213
 5717TIP3   OH217156   2.648   3.815   2.044 -0.0035  0.4340  0.4715
 5717TIP3    H117157   2.600   3.850   1.969 -1.6596 -2.0413  0.2665
 5717TIP3    H217158   2.664   3.891   2.100 -0.0561  2.0968 -1.6432
 5718TIP3   OH217159   0.209   3.598   4.508  0.0842 -0.2470  0.3746
 5718TIP3    H117160   0.214   3.505   4.534  0.7010 -1.0430 -2.3068
 5718TIP3    H217161   0.202   3.645   4.591 -0.0111 -2.6668  1.8506
 5719TIP3   OH217162   2.250   1.965   4.230  0.0774  0.0803  0.6969
 5719TIP3    H117163   2.193   1.968   4.153 -0.7216 -1.9924  1.1375
 5719TIP3    H217164   2.291   2.052   4.233 -0.9286  0.6864 -1.2382
 5720TIP3   OH217165   6.282   0.312   1.529 -0.1599 -0.1475  0.3472
 5720TIP3    H117166   6.308   0.393   1.484  0.9483 -0.5462  0.2560
 5720TIP3    H217167   6.362   0.279   1.567 -0.4627 -1.5976 -0.2227
 5721TIP3   OH217168   2.094   4.424   0.052  0.7910 -0.0592  0.0235
 5721TIP3    H117169   2.021   4.445  -0.007 -1.3954  0.3183  2.6389
 5721TIP3    H217170   2.086   4.330   0.067  0.6533  0.0239  0.5015
 5722TIP3   OH217171   4.715   1.869   0.590  0.6643  0.8021  0.4978
 5722TIP3    H117172   4.693   1.943   0.533  1.2631 -0.6393 -1.7358
 5722TIP3    H217173   4.768   1.811   0.535  0.9597 -0.8980  2.4325
 5723TIP3   OH217174   0.755   4.549   3.150  0.1225 -0.1719 -0.1610
 5723TIP3    H117175   0.750   4.455   3.134 -0.4854  0.3136 -3.7893
 5723TIP3    H217176   0.840   4.575   3.114 -0.1090  0.7819 -0.0577
 5724TIP3   OH217177   2.433   3.902   1.640  0.2365  0.1318  0.2596
 5724TIP3    H117178   2.454   3.940   1.726  2.2512  1.1219 -0.6031
 5724TIP3    H217179   2.398   3.815   1.661 -0.6707  0.8826  2.1209
 5725TIP3   OH217180   4.524   2.653   1.368  0.2654 -0.5904 -0.0370
 5725TIP3    H117181   4.492   2.692   1.449 -0.6028 -0.6036 -0.3633
 5725TIP3    H217182   4.547   2.727   1.313  1.1728 -0.5852  0.3372
 5726TIP3   OH217183   4.688   2.093   0.060  0.3217 -0.4424 -0.9941
 5726TIP3    H117184   4.695   2.005   0.022 -2.0803 -0.7932 -0.7389
 5726TIP3    H217185   4.611   2.089   0.116 -0.6803  2.1956 -2.0233
 5727TIP3   OH217186   2.416   5.887   5.090  0.3050  0.3827  0.4012
 5727TIP3    H117187   2.339   5.839   5.118  0.4964  0.4709  1.0910
 5727TIP3    H217188   2.429   5.860   4.999  0.2840 -0.7037  0.7075
 5728TIP3   OH217189   4.269   1.988  -0.013  0.3771  0.1280  0.5454
 5728TIP3    H117190   4.325   1.910  -0.011  1.3316  0.7386 -0.8492
 5728TIP3    H217191   4.229   1.991   0.074  0.8471 -1.5234  0.8603
 5729TIP3   OH217192   2.900   3.824   0.627 -0.0452 -0.3924  0.3781
 5729TIP3    H117193   2.863   3.789   0.708 -1.0912 -0.4006 -0.0849
 5729TIP3    H217194   2.943   3.906   0.653 -0.1913 -0.4993  0.9710
 5730TIP3   OH217195   3.500   2.956   3.504 -0.5980 -0.4081 -0.2166
 5730TIP3    H117196   3.426   2.974   3.561 -1.0655 -1.0696 -0.6081
 5730TIP3    H217197   3.484   2.867   3.471  0.7728 -0.8904  0.3293
 5731TIP3   OH217198   5.239   5.693   5.158 -0.4185 -0.4370  0.3048
 5731TIP3    H117199   5.210   5.722   5.071 -0.9268 -1.3770  0.1454
 5731TIP3    H217200   5.243   5.598   5.151 -1.0506 -0.5689  1.4883
 5732TIP3   OH217201   0.702   3.592   3.998  0.1372 -0.2039  0.7107
 5732TIP3    H117202   0.746   3.512   3.970  0.0548 -0.3049  0.8659
 5732TIP3    H217203   0.695   3.583   4.093 -0.6665 -0.4216  0.6442
 5733TIP3   OH217204   1.929   0.665   0.663 -0.2046  0.0190  0.1136
 5733TIP3    H117205   1.938   0.752   0.624 -0.7168  0.3545  0.7315
 5733TIP3    H217206   1.844   0.667   0.706 -0.6695 -1.1235 -0.7020
 5734TIP3   OH217207   4.473   2.804   4.584  0.4906 -0.4902  0.0675
 5734TIP3    H117208   4.543   2.825   4.645 -0.2767 -0.0260  0.8221
 5734TIP3    H217209   4.396   2.847   4.621 -0.1765 -0.9250 -0.7772
 5735TIP3   OH217210   6.221   4.523   2.231 -0.6413 -0.5556 -0.1535
 5735TIP3    H117211   6.282   4.462   2.189  0.0228  0.9680 -1.5000
 5735TIP3    H217212   6.172   4.562   2.159 -0.5668  1.0098  0.5920
 5736TIP3   OH217213   1.544   1.164   2.027 -0.0754  0.1873 -0.6468
 5736TIP3    H117214   1.605   1.145   1.955  0.1713 -0.6563 -0.2265
 5736TIP3    H217215   1.584   1.239   2.072  1.3575 -1.0950  0.3600
 5737TIP3   OH217216   2.067   2.430   5.001 -0.5648  0.1474  0.3725
 5737TIP3    H117217   2.071   2.336   5.017  0.8986  0.0096 -0.6507
 5737TIP3    H217218   1.983   2.444   4.957 -1.0488 -0.5831  1.0483
 5738TIP3   OH217219   1.005   3.953   0.314 -0.3773  0.0119 -0.5578
 5738TIP3    H117220   1.089   3.968   0.271  1.0338  0.3790  2.1124
 5738TIP3    H217221   0.944   4.012   0.270  1.1915  1.1001 -1.3598
 5739TIP3   OH217222   2.700   3.788   2.443  1.0581 -0.1245  0.0151
 5739TIP3    H117223   2.755   3.753   2.373  1.6203 -0.6106  0.6838
 5739TIP3    H217224   2.755   3.855   2.486  1.3338 -0.9365  0.9789
 5740TIP3   OH217225   4.297   0.439   1.671  0.1359 -0.0680 -0.5660
 5740TIP3    H117226   4.252   0.508   1.623  1.7886  1.5582  0.1118
 5740TIP3    H217227   4.366   0.485   1.719  1.6488 -2.2769 -0.5176
 5741TIP3   OH217228  -0.001   3.526   2.185  0.0849 -0.5280 -0.6649
 5741TIP3    H117229   0.059   3.479   2.242  1.6405  0.9168 -1.0269
 5741TIP3    H217230  -0.011   3.612   2.225 -0.4843 -0.2048 -1.4568
 5742TIP3   OH217231   4.002   2.901   2.291 -0.2745  0.0552 -0.4781
 5742TIP3    H117232   4.060   2.825   2.278  0.8346  0.5576  1.1089
 5742TIP3    H217233   4.048   2.973   2.248  0.3532  0.4647  0.8209
 5743TIP3   OH217234   4.682   4.379   0.364 -0.1765 -0.4149  0.2626
 5743TIP3    H117235   4.723   4.372   0.278  0.6018 -0.1448  0.6068
 5743TIP3    H217236   4.590   4.359   0.348  0.0485 -0.8388 -0.5486
 5744TIP3   OH217237   2.186   5.401   2.026 -0.0760 -0.2401 -0.0827
 5744TIP3    H117238   2.255   5.444   2.077 -0.4345  0.1673  0.0641
 5744TIP3    H217239   2.231   5.367   1.949  0.2997 -0.0204  0.0370
 5745TIP3   OH217240   2.393   1.003   2.804 -0.3329 -0.1127 -0.7891
 5745TIP3    H117241   2.440   0.981   2.723  0.1678  0.1760 -0.5855
 5745TIP3    H217242   2.448   1.069   2.846  0.7175 -1.9738  0.9827
 5746TIP3   OH217243   2.772   5.037   3.993  0.4037  0.4572  0.0067
 5746TIP3    H117244   2.728   5.002   4.070  1.1833  1.9597  1.1896
 5746TIP3    H217245   2.713   5.018   3.920 -1.0905  0.3624  1.1991
 5747TIP3   OH217246   4.553   4.506   4.433 -0.1169 -0.2998 -0.6285
 5747TIP3    H117247   4.579   4.415   4.415  1.4026  0.3780 -2.0370
 5747TIP3    H217248   4.457   4.502   4.439 -0.0813 -1.9996 -0.5995
 5748TIP3   OH217249   2.350   2.710   3.528 -0.5008 -0.4404  0.5261
 5748TIP3    H117250   2.355   2.784   3.468 -0.6481 -0.8974 -0.0557
 5748TIP3    H217251   2.258   2.685   3.529 -0.5861 -0.1509  1.3107
 5749TIP3   OH217252   5.030   5.823   2.301 -0.1267  0.3569  0.1436
 5749TIP3    H117253   5.109   5.769   2.291 -0.5073 -0.1869  0.0351
 5749TIP3    H217254   5.043   5.869   2.384 -0.0430 -0.3211  0.5105
 5750TIP3   OH217255   5.519   5.371   3.452  1.1846  0.1882  0.2105
 5750TIP3    H117256   5.536   5.433   3.382 -0.5169 -0.5619 -0.9327
 5750TIP3    H217257   5.475   5.297   3.409  0.4526 -0.4762  1.9891
 5751TIP3   OH217258   6.082   3.161   1.602 -0.0152  0.0102  0.1441
 5751TIP3    H117259   6.018   3.103   1.644 -0.8819  1.9551  1.6697
 5751TIP3    H217260   6.167   3.121   1.621 -0.6134 -1.1098  0.5602
 5752TIP3   OH217261   3.733   1.622   0.389  0.4359 -0.5706  0.7193
 5752TIP3    H117262   3.804   1.610   0.326  0.3457  1.3355  0.2095
 5752TIP3    H217263   3.667   1.557   0.364  0.2417  0.3755 -1.3955
 5753TIP3   OH217264   0.600   2.240   2.137 -0.3732  0.0466 -0.1415
 5753TIP3    H117265   0.508   2.251   2.161 -0.9270  1.2251 -2.5090
 5753TIP3    H217266   0.644   2.317   2.174 -0.2643 -0.6091  1.1486
 5754TIP3   OH217267   6.315   0.127   3.780  0.6410  0.3053  0.2860
 5754TIP3    H117268   6.257   0.165   3.714 -0.2343 -0.0737  0.8158
 5754TIP3    H217269   6.349   0.203   3.828  0.8869  0.5536 -0.2700
 5755TIP3   OH217270   1.365   5.225   4.069 -0.1924  0.1206 -0.5388
 5755TIP3    H117271   1.349   5.226   4.163 -0.7394  2.1994 -0.6002
 5755TIP3    H217272   1.459   5.205   4.061 -0.7237 -3.2876  0.2313
 5756TIP3   OH217273   0.418   5.825   2.624  0.4683  0.3654 -0.6516
 5756TIP3    H117274   0.390   5.917   2.625  0.5053  0.3991 -1.6780
 5756TIP3    H217275   0.367   5.786   2.553  0.7122 -0.3356 -0.4475
 5757TIP3   OH217276   5.981   3.734   1.736  0.2359  0.1968 -0.5636
 5757TIP3    H117277   5.924   3.672   1.690 -0.7208  0.2531  0.4836
 5757TIP3    H217278   6.068   3.694   1.733 -0.0809 -0.4622 -1.2033
 5758TIP3   OH217279   2.017   4.339   4.061 -0.0826 -0.1288  0.2234
 5758TIP3    H117280   1.943   4.398   4.046 -0.4089 -0.2942  1.1308
 5758TIP3    H217281   2.022   4.287   3.981 -1.6773 -0.8849  0.5753
 5759TIP3   OH217282   0.793   4.339   3.521  0.2335 -0.1360  0.3009
 5759TIP3    H117283   0.820   4.248   3.534  2.4460  0.1187 -1.7923
 5759TIP3    H217284   0.794   4.378   3.608  1.3595 -1.5972  0.9788
 5760TIP3   OH217285   1.846   4.078   4.131 -0.5485 -0.2010  0.3952
 5760TIP3    H117286   1.777   4.117   4.077 -0.2427  1.9062  1.4266
 5760TIP3    H217287   1.921   4.136   4.119  0.0587 -0.6701  1.7206
 5761TIP3   OH217288   1.213   0.982   3.224 -0.2174 -0.0343  0.2809
 5761TIP3    H117289   1.290   0.938   3.259 -0.9752 -1.4135  0.2632
 5761TIP3    H217290   1.244   1.022   3.143 -0.0655 -2.7883 -1.1411
 5762TIP3   OH217291   2.309   4.747   2.934  0.0286 -0.1033  0.3425
 5762TIP3    H117292   2.247   4.820   2.931  1.2399  0.9386 -0.3135
 5762TIP3    H217293   2.357   4.760   3.016 -0.8632 -1.1439  1.0543
 5763TIP3   OH217294   5.186   1.146   1.321  0.3068 -0.3522  0.0687
 5763TIP3    H117295   5.123   1.193   1.376 -0.5385 -0.0139 -1.1601
 5763TIP3    H217296   5.256   1.120   1.382 -0.0268  1.0230  1.0806
 5764TIP3   OH217297   0.976   3.774   3.759  0.3736 -0.1910  0.3778
 5764TIP3    H117298   0.994   3.683   3.780 -0.7723 -0.4741  0.1838
 5764TIP3    H217299   0.926   3.807   3.834 -0.6956 -0.2288 -0.2899
 5765TIP3   OH217300   2.976   3.970   1.018  0.1526  0.2451 -0.0682
 5765TIP3    H117301   2.890   3.998   1.050  0.4082  0.7494  0.1947
 5765TIP3    H217302   3.010   3.913   1.087 -0.7798 -1.5489 -1.0380
 5766TIP3   OH217303   5.033   5.038   0.967 -0.3597  0.0938  0.2623
 5766TIP3    H117304   5.104   5.009   0.910 -0.0083  0.3790  0.5480
 5766TIP3    H217305   4.984   5.101   0.914 -0.1176  0.2516  0.2239
 5767TIP3   OH217306   0.734   1.026   4.642 -0.5182 -0.5272  0.8494
 5767TIP3    H117307   0.731   1.095   4.576 -0.6406  0.8794  2.2848
 5767TIP3    H217308   0.710   0.947   4.594 -1.8569  0.6471 -0.5181
 5768TIP3   OH217309   0.121   2.874   4.792  0.1988 -0.2515 -0.9813
 5768TIP3    H117310   0.044   2.898   4.741  0.7816  1.1648 -1.2536
 5768TIP3    H217311   0.188   2.938   4.766  1.2762 -1.0678 -0.3034
 5769TIP3   OH217312   6.323   0.839   3.968  0.0415  0.6739 -0.3333
 5769TIP3    H117313   6.376   0.803   4.038  1.2304  0.7958 -1.1487
 5769TIP3    H217314   6.253   0.887   4.013 -1.7528 -2.7178  0.8196
 5770TIP3   OH217315   5.133   3.082   1.448 -0.1377 -0.4741  0.6388
 5770TIP3    H117316   5.063   3.135   1.410  0.1565 -0.2991  0.3358
 5770TIP3    H217317   5.213   3.133   1.432  0.1660 -1.0637  0.2235
 5771TIP3   OH217318   1.078   2.863   1.171  0.3652 -0.3178  0.2935
 5771TIP3    H117319   1.014   2.850   1.241  1.8421 -1.2936  1.5439
 5771TIP3    H217320   1.037   2.827   1.093 -0.1526 -2.1156  1.3404
 5772TIP3   OH217321   2.918   5.920   2.494  0.4116  0.3107  0.4749
 5772TIP3    H117322   2.922   5.825   2.486  0.4843  0.4248 -1.1534
 5772TIP3    H217323   3.007   5.950   2.476 -0.2059  0.8281 -2.1670
 5773TIP3   OH217324   5.426   3.023   0.544 -0.3607  0.5008  0.5235
 5773TIP3    H117325   5.453   3.113   0.526 -0.3200  0.5325  0.7349
 5773TIP3    H217326   5.503   2.970   0.525 -1.0876  0.2277 -1.9561
 5774TIP3   OH217327   2.940   3.653   0.293  0.3205 -0.0770  0.1147
 5774TIP3    H117328   2.979   3.703   0.365  0.0617  1.5538 -0.8130
 5774TIP3    H217329   2.846   3.658   0.309  0.3252 -2.5796  1.4350
 5775TIP3   OH217330   1.930   2.473   3.400  0.0008  0.0284  0.3269
 5775TIP3    H117331   1.864   2.540   3.417 -0.2507  0.1440 -0.9690
 5775TIP3    H217332   1.883   2.406   3.349  1.0832  0.5675 -1.4603
 5776TIP3   OH217333   3.253   0.262   2.756 -0.2431  0.0455 -0.4005
 5776TIP3    H117334   3.225   0.174   2.781 -2.4404  0.3583 -1.5876
 5776TIP3    H217335   3.177   0.318   2.772  0.4356  1.3690 -1.5574
 5777TIP3   OH217336   5.419   1.013   1.174  0.1939 -0.1429  0.3157
 5777TIP3    H117337   5.485   1.051   1.232 -1.4151  0.1788  1.9999
 5777TIP3    H217338   5.338   1.013   1.225 -0.6041 -2.8700 -0.7466
 5778TIP3   OH217339   4.278   2.296   0.138 -0.2897 -0.5950 -0.6033
 5778TIP3    H117340   4.203   2.264   0.087  0.2400 -2.1383 -0.4846
 5778TIP3    H217341   4.309   2.373   0.090 -0.8475 -1.0053 -1.6652
 5779TIP3   OH217342   2.966   4.404   0.686 -0.4941 -0.1659 -0.3447
 5779TIP3    H117343   2.988   4.493   0.713  1.3333 -0.3748 -0.9863
 5779TIP3    H217344   2.954   4.357   0.769  0.2891  0.2871  0.0444
 5780TIP3   OH217345   1.453   4.998   2.058  0.3232  0.3054 -0.5982
 5780TIP3    H117346   1.524   4.934   2.051  0.4883  0.5976 -1.7666
 5780TIP3    H217347   1.374   4.948   2.039  0.4389  0.4108 -1.3822
 5781TIP3   OH217348   6.031   0.330   0.507 -0.0017  0.2263  0.5212
 5781TIP3    H117349   6.121   0.345   0.478  0.0958 -1.6946 -0.2532
 5781TIP3    H217350   6.040   0.274   0.585 -0.5046  0.8404  1.0349
 5782TIP3   OH217351   4.076   0.094   1.028 -0.1194 -0.3751  0.1188
 5782TIP3    H117352   4.035   0.091   1.114 -2.6558 -0.1563 -0.9807
 5782TIP3    H217353   4.037   0.171   0.986  1.7515  0.0647 -0.9151
 5783TIP3   OH217354   4.441   0.014   0.202  0.3733 -0.0064  0.0381
 5783TIP3    H117355   4.522   0.018   0.153  0.4077  0.4312  0.1248
 5783TIP3    H217356   4.436   0.098   0.247 -0.7032  0.4479 -0.8801
 5784TIP3   OH217357   3.626   2.217   1.783 -0.2438  0.1696 -0.0912
 5784TIP3    H117358   3.594   2.278   1.850  0.8297  1.0616 -0.3442
 5784TIP3    H217359   3.548   2.191   1.735 -0.5408  3.3711 -1.6150
 5785TIP3   OH217360   3.163   3.980   5.054 -0.4237  0.1281 -0.1063
 5785TIP3    H117361   3.169   3.921   4.978  0.1492  0.3640 -0.2508
 5785TIP3    H217362   3.253   3.990   5.082 -0.7902 -2.0293  2.2223
 5786TIP3   OH217363   5.438   4.801   3.726 -0.4437  0.0479  0.5846
 5786TIP3    H117364   5.447   4.713   3.690 -1.5880 -1.1869  3.0764
 5786TIP3    H217365   5.528   4.833   3.736  0.1816 -2.0530  2.2939
 5787TIP3   OH217366   3.437   3.060   2.830 -0.2586 -0.3457 -0.7066
 5787TIP3    H117367   3.458   3.065   2.737  1.3086  1.7314 -0.3307
 5787TIP3    H217368   3.370   3.126   2.843  1.3255  1.2109 -0.0119
 5788TIP3   OH217369   6.225   2.160   1.382  0.4245  0.1692 -0.7528
 5788TIP3    H117370   6.288   2.171   1.454  0.6769 -0.9367 -0.7909
 5788TIP3    H217371   6.163   2.095   1.414  1.4871 -1.6134 -2.1155
 5789TIP3   OH217372   2.647   3.355   1.077 -0.6269  0.4606 -0.1981
 5789TIP3    H117373   2.668   3.262   1.070 -1.1674  0.2615  0.6459
 5789TIP3    H217374   2.662   3.377   1.169 -2.0255  0.8005 -0.0186
 5790TIP3   OH217375   5.689   2.205   3.279 -0.0876 -0.1588  0.4327
 5790TIP3    H117376   5.641   2.180   3.358  0.2536 -0.9858  0.3866
 5790TIP3    H217377   5.781   2.205   3.307  0.0776 -0.9416 -0.0769
 5791TIP3   OH217378   6.323   0.612   0.771  0.1232 -0.4401 -0.3782
 5791TIP3    H117379   6.248   0.636   0.826  0.5054 -0.9898  0.4064
 5791TIP3    H217380   6.344   0.692   0.723  0.6049  0.4766  1.2717
 5792TIP3   OH217381   3.293   1.401   1.616 -0.1070  0.3816  0.1382
 5792TIP3    H117382   3.235   1.456   1.564 -1.1112 -1.4761 -0.8106
 5792TIP3    H217383   3.236   1.333   1.652  1.2334 -0.6592  0.3728
 5793TIP3   OH217384   5.758   2.697   0.563  0.5273  0.3983 -0.1838
 5793TIP3    H117385   5.739   2.608   0.594  1.2691  0.5217  0.6672
 5793TIP3    H217386   5.745   2.752   0.640 -1.7386  1.3055 -1.1360
 5794TIP3   OH217387   2.147   2.282   2.400 -0.4084  0.6433 -0.0597
 5794TIP3    H117388   2.077   2.242   2.451  0.1333  0.4026  0.5016
 5794TIP3    H217389   2.105   2.356   2.357 -1.4293 -0.4860 -1.1044
 5795TIP3   OH217390   3.000   2.088   3.693 -0.2126 -0.2655  0.3021
 5795TIP3    H117391   3.061   2.120   3.759 -0.6686  0.9930  0.1449
 5795TIP3    H217392   3.042   2.109   3.609 -0.3358 -0.4412  0.1971
 5796TIP3   OH217393   5.104   0.078   3.452 -0.0061 -0.1947 -0.4130
 5796TIP3    H117394   5.054   0.008   3.494 -1.5596 -0.2242 -2.1972
 5796TIP3    H217395   5.088   0.155   3.508 -2.0613 -0.2186 -0.8898
 5797TIP3   OH217396   3.518   4.421   2.190 -0.5473 -0.3127 -0.6420
 5797TIP3    H117397   3.536   4.399   2.099 -0.0234  2.3243 -1.2535
 5797TIP3    H217398   3.431   4.463   2.188 -0.4610 -0.0848  0.0430
 5798TIP3   OH217399   6.347   2.369   4.833 -0.1259  0.2366  0.3049
 5798TIP3    H117400   6.384   2.457   4.834  1.4230 -0.3869  1.7898
 5798TIP3    H217401   6.268   2.375   4.887 -0.8722  0.9994 -0.8104
 5799TIP3   OH217402   4.005   1.393   4.367  0.0589  0.4032  0.2137
 5799TIP3    H117403   3.955   1.326   4.416  0.7517 -1.4407 -1.4757
 5799TIP3    H217404   3.952   1.410   4.290  1.8837 -1.6151 -1.6361
 5800TIP3   OH217405   3.459   3.321   1.037  0.3761  0.4065 -0.3368
 5800TIP3    H117406   3.410   3.338   0.957 -0.0425 -1.8559 -0.6382
 5800TIP3    H217407   3.426   3.386   1.099 -0.9093  0.7896 -1.3732
 5801TIP3   OH217408   6.279   2.185   5.089 -0.1416 -0.3035  0.0891
 5801TIP3    H117409   6.311   2.101   5.121  0.5222 -0.5434 -1.1333
 5801TIP3    H217410   6.347   2.248   5.113  0.1216 -0.3988 -0.3950
 5802TIP3   OH217411   1.993   3.730   2.961  0.7614 -0.2473  0.3446
 5802TIP3    H117412   1.985   3.636   2.942  0.9841 -0.2969  0.4979
 5802TIP3    H217413   1.961   3.773   2.882  1.1035 -0.4542  0.0954
 5803TIP3   OH217414   0.511   3.262   4.542 -0.1209  0.4880  0.0647
 5803TIP3    H117415   0.510   3.260   4.637 -0.2402  0.4652  0.0639
 5803TIP3    H217416   0.418   3.259   4.517 -0.0667 -0.4254 -0.0723
 5804TIP3   OH217417   4.002   2.025   4.762  0.6652 -0.4870 -0.0034
 5804TIP3    H117418   4.036   2.029   4.673 -0.6710 -0.1614 -0.5271
 5804TIP3    H217419   3.930   1.962   4.757  0.6447 -0.5510  0.8772
 5805TIP3   OH217420   0.951   2.335   2.455  0.1811 -0.2084  0.2161
 5805TIP3    H117421   0.951   2.250   2.499  1.7593 -0.5516 -0.3931
 5805TIP3    H217422   1.004   2.321   2.376  1.6661  1.6780  0.8112
 5806TIP3   OH217423   2.567   3.089   3.029 -0.3827  0.0390  0.2828
 5806TIP3    H117424   2.492   3.089   3.088 -1.4477 -1.2782 -1.0087
 5806TIP3    H217425   2.536   3.132   2.949 -0.6851 -2.7178 -1.2417
 5807TIP3   OH217426   2.373   2.764   1.587 -0.1821 -0.4883 -0.3659
 5807TIP3    H117427   2.447   2.726   1.634 -0.3659 -2.1790 -1.3862
 5807TIP3    H217428   2.354   2.702   1.516 -2.0311  0.3233 -0.6476
 5808TIP3   OH217429   4.624   4.308   2.600  0.2931  0.1552  0.0554
 5808TIP3    H117430   4.615   4.229   2.547  1.6903  0.4314 -0.6590
 5808TIP3    H217431   4.540   4.318   2.643  0.0563 -1.6629  0.0915
 5809TIP3   OH217432   4.883   5.157   2.389  0.2797 -0.0281 -0.1786
 5809TIP3    H117433   4.808   5.209   2.418 -0.2777 -0.5774 -0.6057
 5809TIP3    H217434   4.873   5.073   2.433  0.6293 -0.1144 -0.2600
 5810TIP3   OH217435   0.821   4.059   2.350 -0.5912 -0.0854 -0.0191
 5810TIP3    H117436   0.796   3.983   2.298 -1.7038 -0.2169  0.6863
 5810TIP3    H217437   0.766   4.054   2.428 -0.4191  1.2469  0.2077
 5811TIP3   OH217438   3.720   1.597   1.904  0.1777  0.8065  0.1690
 5811TIP3    H117439   3.731   1.653   1.827 -0.2818  0.2435 -0.3213
 5811TIP3    H217440   3.808   1.565   1.923  0.1819  0.2842 -0.6529
 5812TIP3   OH217441   5.000   1.185   1.760 -0.3773  0.7446  0.4171
 5812TIP3    H117442   4.911   1.198   1.727 -0.2296 -1.5613 -1.1585
 5812TIP3    H217443   4.988   1.158   1.851 -1.4374 -0.8924 -0.1617
 5813TIP3   OH217444   2.802   4.328   4.022 -1.0378 -0.0793  0.1216
 5813TIP3    H117445   2.784   4.382   3.945  0.2137  0.2624  0.0485
 5813TIP3    H217446   2.771   4.241   3.997  0.7107 -0.3338 -1.3881
 5814TIP3   OH217447   0.982   5.078   4.175 -0.5000  0.9373 -0.1311
 5814TIP3    H117448   0.908   5.066   4.234 -0.1820  2.3074  0.5683
 5814TIP3    H217449   1.002   4.989   4.144 -1.0762  0.2753  1.3164
 5815TIP3   OH217450   5.036   2.502   2.100  0.2731  0.3230  0.4671
 5815TIP3    H117451   4.961   2.463   2.145  0.1766  0.4271  0.3967
 5815TIP3    H217452   5.007   2.512   2.009  0.0751  1.1249  0.6097
 5816TIP3   OH217453   2.853   2.654   1.377  0.6392 -0.1500 -0.0944
 5816TIP3    H117454   2.849   2.710   1.455  2.2588 -1.2706  0.8685
 5816TIP3    H217455   2.816   2.571   1.405 -0.3592 -0.0591 -1.0667
 5817TIP3   OH217456   5.225   1.940   4.162 -0.3610  0.3739 -0.1495
 5817TIP3    H117457   5.191   1.925   4.074  1.9866  0.4501 -1.1551
 5817TIP3    H217458   5.187   1.871   4.215 -0.7679 -0.5118 -1.5401
 5818TIP3   OH217459   2.174   2.047   2.978  0.0008 -0.0766  0.6191
 5818TIP3    H117460   2.081   2.044   2.955 -0.0009 -1.5397  0.7321
 5818TIP3    H217461   2.176   2.042   3.073  0.1442  2.5196  0.8309
 5819TIP3   OH217462   3.968   4.899   5.043 -0.1230  0.4239  0.1181
 5819TIP3    H117463   4.057   4.932   5.059 -0.0668  0.4547 -0.2407
 5819TIP3    H217464   3.942   4.860   5.126  0.7811 -0.8688 -0.1681
 5820TIP3   OH217465   6.025   3.059   1.869 -0.0795 -0.8224 -0.6446
 5820TIP3    H117466   6.067   3.144   1.855  1.0061 -1.0083  1.1855
 5820TIP3    H217467   6.098   2.997   1.875 -0.6635 -1.4087  0.9906
 5821TIP3   OH217468   5.991   4.554   1.394  0.0516 -0.3089  0.2948
 5821TIP3    H117469   6.067   4.500   1.369 -0.9021 -1.1695 -0.9199
 5821TIP3    H217470   5.977   4.534   1.486  0.5757 -1.0855  0.2221
 5822TIP3   OH217471   5.208   5.936   1.521  0.6531 -0.4802 -0.6486
 5822TIP3    H117472   5.226   5.894   1.437 -1.5601  1.7121 -2.3618
 5822TIP3    H217473   5.131   5.890   1.554 -0.0831  0.3483 -1.1666
 5823TIP3   OH217474   3.138   5.994   4.758 -0.2319 -0.6323  0.0651
 5823TIP3    H117475   3.164   5.902   4.749  1.5307 -0.1551 -0.0118
 5823TIP3    H217476   3.056   6.000   4.709 -0.0817 -2.0352 -0.4149
 5824TIP3   OH217477   0.899   2.196   3.579  0.1434 -0.4490 -0.3417
 5824TIP3    H117478   0.966   2.205   3.646  0.0355  0.3518 -0.3315
 5824TIP3    H217479   0.938   2.139   3.513  1.0898  0.5212 -0.6472
 5825TIP3   OH217480   3.786   0.159   0.583  0.2434 -0.3905  0.7664
 5825TIP3    H117481   3.838   0.236   0.605  0.0334 -0.3196  1.0073
 5825TIP3    H217482   3.828   0.125   0.504  0.4011 -0.0908  0.7172
 5826TIP3   OH217483   2.574   2.527   4.757 -0.2881 -0.1733  0.0515
 5826TIP3    H117484   2.508   2.587   4.721  0.8137  0.5058 -0.9083
 5826TIP3    H217485   2.643   2.525   4.690 -0.0539 -2.1195  0.2997
 5827TIP3   OH217486   2.050   2.675   1.518  0.1067 -0.6381  0.2252
 5827TIP3    H117487   2.060   2.727   1.438  0.0520  1.1340  1.3084
 5827TIP3    H217488   2.134   2.631   1.528  0.0597 -1.0095 -0.8823
 5828TIP3   OH217489   2.674   2.290   2.340 -0.1133  0.0151 -0.1048
 5828TIP3    H117490   2.722   2.211   2.314  0.0493 -0.0682  0.4505
 5828TIP3    H217491   2.584   2.274   2.310 -0.1595 -0.5319  0.3168
 5829TIP3   OH217492   2.361   2.811   4.196 -0.5261  0.3136  0.3130
 5829TIP3    H117493   2.424   2.791   4.266 -0.3827  0.7689  0.3136
 5829TIP3    H217494   2.287   2.753   4.214  0.5929 -1.5435 -0.7084
 5830TIP3   OH217495   2.971   5.619   4.797  0.5036 -0.0072  0.4960
 5830TIP3    H117496   3.059   5.582   4.787 -0.0619 -0.8231 -2.2085
 5830TIP3    H217497   2.937   5.579   4.877  1.4968 -2.0622 -0.0561
 5831TIP3   OH217498   1.075   1.817   2.441 -0.6034  0.1193  0.6344
 5831TIP3    H117499   1.060   1.790   2.350  1.0332 -1.1539  0.6988
 5831TIP3    H217500   1.061   1.912   2.440 -1.1155  0.0542 -0.8251
 5832TIP3   OH217501   2.121   5.611   0.314  0.3594 -0.0114  0.4920
 5832TIP3    H117502   2.144   5.694   0.357  2.0614 -0.1748 -0.0055
 5832TIP3    H217503   2.199   5.557   0.326 -0.4579 -1.2773  0.1674
 5833TIP3   OH217504   1.362   5.673   2.828 -0.4582  0.7033  0.3324
 5833TIP3    H117505   1.273   5.640   2.833 -0.4844  0.6835 -0.1847
 5833TIP3    H217506   1.352   5.762   2.794 -0.1126 -0.3581 -2.9362
 5834TIP3   OH217507   2.424   4.808   4.976  0.0816  0.1033  0.4428
 5834TIP3    H117508   2.361   4.869   4.937  1.5491  1.8291  0.6395
 5834TIP3    H217509   2.398   4.804   5.068  0.1242  0.6365  0.4805
 5835TIP3   OH217510   5.079   5.505   2.902  0.0600  0.0317  0.0625
 5835TIP3    H117511   5.107   5.586   2.944  1.4753  0.4238 -1.5034
 5835TIP3    H217512   5.039   5.533   2.820 -1.3919 -0.7746  0.4708
 5836TIP3   OH217513   3.072   0.884   1.919  0.0875 -0.4790  0.1439
 5836TIP3    H117514   2.977   0.886   1.908 -0.1751 -0.2454  2.0578
 5836TIP3    H217515   3.098   0.976   1.918  0.2831 -0.5343 -0.1636
 5837TIP3   OH217516   1.728   0.620   3.220  0.1561  0.6792  0.0287
 5837TIP3    H117517   1.772   0.682   3.278 -0.0478 -1.0978  2.1763
 5837TIP3    H217518   1.789   0.547   3.212  0.2159  0.8822 -2.1419
 5838TIP3   OH217519   5.611   0.808   4.346 -0.3695 -0.5539  0.1093
 5838TIP3    H117520   5.586   0.899   4.358  0.7182 -0.0487 -1.1623
 5838TIP3    H217521   5.544   0.773   4.286 -1.7998 -1.1376  1.9415
 5839TIP3   OH217522   4.258   5.683   2.413 -0.3121 -0.2869  0.0286
 5839TIP3    H117523   4.192   5.743   2.378  0.3653 -0.0217 -0.8404
 5839TIP3    H217524   4.241   5.680   2.507 -2.7060 -1.6426 -0.3842
 5840TIP3   OH217525   0.752   5.094   5.142 -0.3129  0.3907  0.3101
 5840TIP3    H117526   0.756   5.004   5.109  1.1940  0.4606  0.2232
 5840TIP3    H217527   0.680   5.094   5.204 -2.0955 -0.1889 -1.6297
 5841TIP3   OH217528   3.955   5.770   1.266  0.0679  0.3679 -0.3020
 5841TIP3    H117529   4.008   5.729   1.333  0.4312 -0.6170 -1.1662
 5841TIP3    H217530   4.016   5.824   1.216  0.6068 -1.7958 -2.1277
 5842TIP3   OH217531   2.239   2.410   4.795 -0.4557 -0.0014 -0.3795
 5842TIP3    H117532   2.301   2.355   4.843 -0.5383 -0.6746 -1.0264
 5842TIP3    H217533   2.165   2.420   4.855 -0.8636 -1.4176 -0.6015
 5843TIP3   OH217534   4.106   2.010   0.858 -0.5339 -0.0004  0.5635
 5843TIP3    H117535   4.135   2.030   0.947  2.3630  0.9737 -0.4674
 5843TIP3    H217536   4.111   1.915   0.853  0.9735  0.0284  0.9852
 5844TIP3   OH217537   2.562   4.696   3.379  0.0004  0.4323 -0.8842
 5844TIP3    H117538   2.573   4.602   3.367  0.8887  0.2998  0.6399
 5844TIP3    H217539   2.498   4.704   3.449 -2.4606  1.0663 -3.0753
 5845TIP3   OH217540   0.702   2.004   2.825 -0.3151 -0.1169  0.1974
 5845TIP3    H117541   0.667   2.093   2.831  0.0788  0.1004 -0.6377
 5845TIP3    H217542   0.634   1.950   2.865 -0.9750  0.4611 -0.1150
 5846TIP3   OH217543   6.239   1.725   2.370  0.4022 -0.2587  0.5589
 5846TIP3    H117544   6.207   1.637   2.392 -0.9349 -0.1930 -0.9525
 5846TIP3    H217545   6.160   1.778   2.366  1.0469  0.6752 -0.0406
 5847TIP3   OH217546   0.761   2.515   1.725 -0.3896  0.1891  0.4000
 5847TIP3    H117547   0.779   2.441   1.782  1.6455  1.2510  1.2631
 5847TIP3    H217548   0.839   2.523   1.670 -1.0799  0.9609 -0.5158
 5848TIP3   OH217549   3.495   2.018   2.118 -0.4054 -0.3713  0.5753
 5848TIP3    H117550   3.535   1.956   2.057 -3.1261 -2.6359  0.8509
 5848TIP3    H217551   3.523   1.989   2.204  0.4064  0.4591  0.6012
 5849TIP3   OH217552   5.414   0.505   3.827 -0.2659 -0.6419  0.2806
 5849TIP3    H117553   5.500   0.540   3.805  0.3122 -1.4942  1.0917
 5849TIP3    H217554   5.354   0.579   3.817  0.5874  0.0132 -0.0902
 5850TIP3   OH217555   2.323   5.185   3.200 -0.1177 -0.0011  0.1741
 5850TIP3    H117556   2.244   5.219   3.242 -0.6791 -1.2251  0.1510
 5850TIP3    H217557   2.340   5.102   3.244  0.4714 -0.3177 -0.6196
 5851TIP3   OH217558   3.271   1.769   0.057  0.3029 -0.5184 -0.4003
 5851TIP3    H117559   3.299   1.779  -0.034  1.7151 -1.8367 -0.1497
 5851TIP3    H217560   3.208   1.696   0.054 -1.3911  0.8659 -0.5943
 5852TIP3   OH217561   3.034   5.081   1.822  0.2769  0.1339 -0.3722
 5852TIP3    H117562   3.120   5.046   1.796  0.1857  0.4934 -1.1695
 5852TIP3    H217563   2.971   5.028   1.773  0.0733  0.3398 -0.3319
 5853TIP3   OH217564   1.095   3.764   5.132 -0.3674 -0.1139  0.0299
 5853TIP3    H117565   1.173   3.736   5.179 -1.3750 -0.8310  1.3503
 5853TIP3    H217566   1.101   3.718   5.047 -0.7319 -2.4791  1.1928
 5854TIP3   OH217567   3.665   4.699   4.012 -0.7635  0.0371  0.2014
 5854TIP3    H117568   3.622   4.759   4.072 -0.0111  0.8927 -0.0902
 5854TIP3    H217569   3.621   4.712   3.928  2.4470  3.8970 -1.1912
 5855TIP3   OH217570   6.353   5.177   4.066 -0.4603  0.2161 -0.2925
 5855TIP3    H117571   6.381   5.200   3.978 -0.7764 -0.9958 -0.7346
 5855TIP3    H217572   6.282   5.238   4.085 -1.4910 -0.5434 -1.5422
 5856TIP3   OH217573   2.794   1.254   4.376 -0.0201 -0.1679  0.3693
 5856TIP3    H117574   2.888   1.272   4.373 -0.3271  1.6592  0.4403
 5856TIP3    H217575   2.754   1.340   4.382 -1.7635 -0.8359 -0.8021
 5857TIP3   OH217576   0.207   4.724   2.361  0.9293  0.1585 -0.6081
 5857TIP3    H117577   0.251   4.644   2.332 -0.7143 -0.8931 -0.3500
 5857TIP3    H217578   0.166   4.700   2.444 -0.7983  0.7956 -1.2267
 5858TIP3   OH217579   5.735   1.773   0.688 -0.1997 -0.0597 -0.0654
 5858TIP3    H117580   5.702   1.717   0.759 -1.1174 -0.0515 -0.4740
 5858TIP3    H217581   5.763   1.712   0.621 -0.1138 -0.0523 -0.0361
 5859TIP3   OH217582   5.606   1.647   3.192  0.3120 -0.0761  0.1845
 5859TIP3    H117583   5.680   1.700   3.164  0.9099 -0.7799  0.4284
 5859TIP3    H217584   5.549   1.644   3.115  0.3145  0.8175  0.1286
 5860TIP3   OH217585   2.763   0.434   4.290  0.4037 -0.9430  0.2498
 5860TIP3    H117586   2.706   0.504   4.323  2.1629 -0.0618  1.6127
 5860TIP3    H217587   2.787   0.462   4.202  0.4067 -0.2193  0.4697
 5861TIP3   OH217588   4.840   3.292   4.833 -0.6074  0.2948  0.2870
 5861TIP3    H117589   4.785   3.234   4.885 -0.8704 -0.7037 -1.0367
 5861TIP3    H217590   4.924   3.246   4.826 -0.8835 -0.0720 -0.9466
 5862TIP3   OH217591   6.089   4.538   0.791  0.2985 -0.5643 -0.3234
 5862TIP3    H117592   6.064   4.529   0.883 -0.3182 -1.3666 -0.5547
 5862TIP3    H217593   6.184   4.526   0.791  0.0824 -2.7665 -0.0139
 5863TIP3   OH217594   3.109   0.499   4.570  0.2976 -0.1635 -0.0630
 5863TIP3    H117595   3.164   0.423   4.589 -0.0120 -0.3915 -0.0657
 5863TIP3    H217596   3.107   0.503   4.474  3.0701  1.8637 -0.1650
 5864TIP3   OH217597   3.058   3.964   0.007  0.0643  0.1501  0.6915
 5864TIP3    H117598   2.980   3.984   0.059 -0.3321 -0.3324  0.2945
 5864TIP3    H217599   3.131   3.982   0.066 -0.2992  1.5715  0.7594
 5865TIP3   OH217600   0.422   2.895   0.360  0.3166  0.0026  1.1812
 5865TIP3    H117601   0.444   2.896   0.452 -0.0236  2.1848  1.2961
 5865TIP3    H217602   0.412   2.987   0.336  1.9155 -0.3873 -1.4196
 5866TIP3   OH217603   5.598   2.030   0.569  0.3429 -0.4286 -0.5185
 5866TIP3    H117604   5.686   2.053   0.599  1.1936 -1.1885 -2.2525
 5866TIP3    H217605   5.595   1.935   0.571 -1.0252 -0.4039  0.9419
 5867TIP3   OH217606   3.601   0.222   5.023  0.2628  0.7123 -0.6880
 5867TIP3    H117607   3.554   0.213   5.106 -0.4028  1.3436 -0.9763
 5867TIP3    H217608   3.654   0.301   5.035  2.2096 -0.6462  0.0606
 5868TIP3   OH217609   3.062   1.447   2.465 -0.0303 -0.1643 -0.1836
 5868TIP3    H117610   2.996   1.501   2.423 -0.8928  0.8035  2.2157
 5868TIP3    H217611   3.145   1.489   2.441 -0.1299 -1.6043 -3.5183
 5869TIP3   OH217612   4.111   5.522   0.668  0.2061 -0.2795  0.1325
 5869TIP3    H117613   4.151   5.605   0.640 -0.4068  0.4443  1.3553
 5869TIP3    H217614   4.185   5.471   0.704  0.3072  0.4376  0.9688
 5870TIP3   OH217615   1.565   3.462   3.505  0.0300 -0.2458 -0.7768
 5870TIP3    H117616   1.606   3.376   3.514  0.2256 -0.1176 -0.4254
 5870TIP3    H217617   1.557   3.475   3.411  1.1382 -0.1159 -0.8655
 5871TIP3   OH217618   1.865   3.303   3.243  0.3004 -0.4508  0.2488
 5871TIP3    H117619   1.947   3.267   3.276 -0.0404 -0.5170  1.0424
 5871TIP3    H217620   1.876   3.398   3.250 -0.6072 -0.4709  2.7311
 5872TIP3   OH217621   5.705   0.668   0.740 -0.0242 -0.1527 -0.0749
 5872TIP3    H117622   5.630   0.719   0.711 -1.7568 -1.3616  2.0293
 5872TIP3    H217623   5.725   0.700   0.827  1.8322  0.0067 -0.5094
 5873TIP3   OH217624   2.762   2.761   2.740  0.1733  0.2884  0.6823
 5873TIP3    H117625   2.813   2.723   2.811  0.6063 -0.8938 -0.2366
 5873TIP3    H217626   2.827   2.800   2.682 -0.1288  0.6779  0.6040
 5874TIP3   OH217627   3.994   2.908   3.288  0.3057 -0.2274 -0.1612
 5874TIP3    H117628   3.902   2.883   3.293 -0.0241  0.5898 -1.6041
 5874TIP3    H217629   4.011   2.955   3.369 -0.2117 -1.3675  0.6355
 5875TIP3   OH217630   1.475   4.761   3.348  0.5424 -0.2588  0.0789
 5875TIP3    H117631   1.515   4.847   3.357  2.3418 -1.2015  1.9150
 5875TIP3    H217632   1.397   4.776   3.294  0.6663  2.5321  0.5270
 5876TIP3   OH217633   0.407   5.579   3.800 -0.0269  0.0734  0.8972
 5876TIP3    H117634   0.382   5.664   3.835  0.6423  0.4337  0.5046
 5876TIP3    H217635   0.406   5.521   3.876 -0.2176  0.4844  1.2145
 5877TIP3   OH217636   1.115   5.316   4.164 -0.3383  0.1122  0.0186
 5877TIP3    H117637   1.188   5.286   4.110 -1.3839 -0.3789 -1.1806
 5877TIP3    H217638   1.067   5.236   4.185 -1.4023  0.5870 -0.5392
 5878TIP3   OH217639   5.246   3.807   1.430 -0.1863 -0.5428 -0.5299
 5878TIP3    H117640   5.192   3.844   1.361  0.2596 -1.7268 -1.5528
 5878TIP3    H217641   5.288   3.882   1.471 -2.3305  0.3883  0.1006
 5879TIP3   OH217642   0.479   3.012   4.034  0.1405 -0.3841  0.2897
 5879TIP3    H117643   0.409   3.070   4.007  0.0661 -0.0069  1.2552
 5879TIP3    H217644   0.469   2.934   3.979 -0.4108  0.0754 -0.2651
 5880TIP3   OH217645   4.969   0.707   5.198  0.4218  0.3568  0.4421
 5880TIP3    H117646   4.884   0.734   5.163  0.0141 -1.5544 -0.1718
 5880TIP3    H217647   5.033   0.758   5.148 -0.3088  0.7330 -0.1305
 5881TIP3   OH217648   3.092   0.676   3.397 -0.4091 -0.1763 -0.2134
 5881TIP3    H117649   3.071   0.608   3.333  0.3551  0.1350 -0.8184
 5881TIP3    H217650   3.155   0.634   3.456  0.1355  0.0210 -0.6432
 5882TIP3   OH217651   3.578   3.446   0.293 -0.1177  0.2837 -0.3265
 5882TIP3    H117652   3.501   3.392   0.274 -0.0176 -0.4925  1.2904
 5882TIP3    H217653   3.621   3.401   0.365  2.0662  0.5342 -1.4084
 5883TIP3   OH217654   3.244   2.446   0.834  0.0055  0.4339 -0.5414
 5883TIP3    H117655   3.176   2.473   0.895  0.5139  2.4656 -0.8282
 5883TIP3    H217656   3.217   2.480   0.749  0.8911  0.4108 -0.8473
 5884TIP3   OH217657   5.318   3.779   1.908  0.1791 -0.4247  0.1502
 5884TIP3    H117658   5.407   3.780   1.872  0.9187  1.1505  1.8958
 5884TIP3    H217659   5.272   3.846   1.858  0.4757  0.0001  0.4496
 5885TIP3   OH217660   2.300   2.828   3.900 -0.4192 -0.0156  0.3110
 5885TIP3    H117661   2.360   2.832   3.974  0.5834 -0.2601 -0.4714
 5885TIP3    H217662   2.266   2.738   3.900 -0.4442 -0.0065  0.4807
 5886TIP3   OH217663   2.570   1.220   2.887 -0.2566 -0.6405  0.1243
 5886TIP3    H117664   2.643   1.252   2.939 -1.3733  0.2925  1.1617
 5886TIP3    H217665   2.572   1.274   2.807 -0.2239 -0.1600  0.4486
 5887TIP3   OH217666   0.597   2.666   3.136 -1.0213  0.0178  0.6381
 5887TIP3    H117667   0.603   2.580   3.176  1.6339 -1.1551 -1.9017
 5887TIP3    H217668   0.505   2.677   3.114 -1.3114 -2.5330  0.3255
 5888TIP3   OH217669   1.835   3.912   0.896 -0.0759 -0.2800 -0.0013
 5888TIP3    H117670   1.744   3.903   0.924  0.2171 -0.6914  0.8637
 5888TIP3    H217671   1.885   3.917   0.978  0.5573  1.3744 -0.4433
 5889TIP3   OH217672   2.266   4.457   3.856 -0.4416  0.2849 -0.3346
 5889TIP3    H117673   2.224   4.399   3.793  0.9954 -0.4810 -0.6283
 5889TIP3    H217674   2.194   4.502   3.899 -1.4921  0.1170 -1.8480
 5890TIP3   OH217675   5.236   5.436   0.902 -0.3351  0.2392  0.0499
 5890TIP3    H117676   5.321   5.480   0.897 -0.3638  0.1693 -2.1701
 5890TIP3    H217677   5.230   5.386   0.820 -2.1462 -0.4571  0.5499
 5891TIP3   OH217678   5.519   1.017   0.450 -0.6904 -0.2479  0.0039
 5891TIP3    H117679   5.588   1.012   0.385 -0.0656  2.6825  0.3087
 5891TIP3    H217680   5.530   0.938   0.503  0.8790 -1.0305 -1.3982
 5892TIP3   OH217681   6.020   1.490   4.195 -0.1882  0.0393 -0.0327
 5892TIP3    H117682   5.957   1.420   4.214 -0.0614  0.0616  0.4848
 5892TIP3    H217683   5.969   1.557   4.151 -0.0607 -0.9075 -1.7152
 5893TIP3   OH217684   2.132   3.417   0.610 -0.7351  0.3729  0.6230
 5893TIP3    H117685   2.142   3.349   0.543  0.5167 -0.5204  1.6573
 5893TIP3    H217686   2.068   3.477   0.573 -0.1643 -0.1240 -1.3437
 5894TIP3   OH217687   1.220   5.732   3.100 -0.6200 -0.1031  0.3875
 5894TIP3    H117688   1.283   5.669   3.134  1.4672  0.9459 -1.3318
 5894TIP3    H217689   1.164   5.680   3.042  0.9761 -0.4917 -0.8871
 5895TIP3   OH217690   5.100   1.948   0.859  0.2178 -0.2361  0.8879
 5895TIP3    H117691   5.005   1.945   0.869 -0.0188  1.6706 -0.1252
 5895TIP3    H217692   5.113   1.967   0.766  1.6254 -1.2071  0.8618
 5896TIP3   OH217693   4.220   3.544   2.328  0.0191 -0.6779  0.5207
 5896TIP3    H117694   4.261   3.489   2.394 -0.8228  1.1837  2.7314
 5896TIP3    H217695   4.283   3.614   2.312 -0.7713  0.2578  1.3097
 5897TIP3   OH217696   3.530   3.448   4.259  0.4880  0.4339  0.1654
 5897TIP3    H117697   3.502   3.369   4.213 -1.3595  0.5163  1.0530
 5897TIP3    H217698   3.607   3.421   4.309  1.2741 -0.1776 -1.3327
 5898TIP3   OH217699   4.158   5.646   2.702  0.0598 -0.0162 -0.2772
 5898TIP3    H117700   4.114   5.566   2.732 -0.5677 -0.9041 -3.2535
 5898TIP3    H217701   4.088   5.711   2.697  0.4214  0.5478  1.3533
 5899TIP3   OH217702   4.360   2.837   5.056  0.0563 -0.1789 -0.3197
 5899TIP3    H117703   4.409   2.886   4.990  0.7145 -0.3484  0.0365
 5899TIP3    H217704   4.296   2.786   5.005  0.3521 -0.0749 -0.8036
 5900TIP3   OH217705   2.525   5.260   2.835  0.0859  0.2856 -0.3321
 5900TIP3    H117706   2.565   5.236   2.752  0.7290  0.2401 -0.0132
 5900TIP3    H217707   2.475   5.339   2.815 -0.4099 -0.1756 -0.9339
 5901TIP3   OH217708   2.266   5.953   2.160 -0.4780 -0.1737 -0.0441
 5901TIP3    H117709   2.194   5.984   2.104  0.2289 -0.2796 -1.0368
 5901TIP3    H217710   2.339   5.940   2.100  0.3178 -0.2659  0.9224
 5902TIP3   OH217711   2.941   4.054   3.805  0.2087 -0.0649  0.2116
 5902TIP3    H117712   2.902   4.069   3.891 -1.0427 -0.9474 -0.1673
 5902TIP3    H217713   2.869   4.066   3.743  1.1782  0.9878 -0.7751
 5903TIP3   OH217714   3.784   4.821   0.555 -0.1079 -0.4086  0.0557
 5903TIP3    H117715   3.784   4.738   0.603  0.4727 -0.8415 -0.6736
 5903TIP3    H217716   3.875   4.849   0.555 -0.4883  0.9366  1.4582
 5904TIP3   OH217717   1.187   4.303   5.122 -0.3547 -0.0189  0.8386
 5904TIP3    H117718   1.248   4.357   5.173 -0.9315  1.0757  0.4071
 5904TIP3    H217719   1.116   4.363   5.099 -0.3867 -0.6392 -0.7687
 5905TIP3   OH217720   3.847   4.251   4.693  0.0403 -0.3691 -0.1879
 5905TIP3    H117721   3.808   4.174   4.651 -1.0522 -0.2993  0.6588
 5905TIP3    H217722   3.941   4.245   4.672  0.3292 -2.9565  1.3982
 5906TIP3   OH217723   5.196   4.681   2.085 -0.2237  0.7590 -0.2611
 5906TIP3    H117724   5.212   4.666   1.992 -3.2839  0.0975 -0.7941
 5906TIP3    H217725   5.132   4.752   2.088  0.1864  1.1239  1.3991
 5907TIP3   OH217726   5.240   1.735   0.970  0.2981  0.2801  0.1838
 5907TIP3    H117727   5.180   1.666   1.001 -0.8089  0.1162 -2.0914
 5907TIP3    H217728   5.181   1.803   0.935  1.4197  0.8398 -0.6663
 5908TIP3   OH217729   4.967   4.032   1.397 -0.0596 -0.0665 -0.4255
 5908TIP3    H117730   5.005   4.099   1.454  1.4081 -0.3765 -0.9827
 5908TIP3    H217731   4.877   4.022   1.428 -0.5844  2.6732 -0.7717
 5909TIP3   OH217732   2.785   3.278   2.832  0.1451  0.4679  0.2972
 5909TIP3    H117733   2.738   3.195   2.829 -0.5320  0.8458  0.3049
 5909TIP3    H217734   2.870   3.256   2.871 -0.2004 -0.1389  0.7207
 5910TIP3   OH217735   0.370   0.631   3.404  0.7544  0.2240  0.4893
 5910TIP3    H117736   0.415   0.702   3.451 -0.4878  2.0460 -0.9113
 5910TIP3    H217737   0.277   0.652   3.414  0.3054 -1.7680  0.8010
 5911TIP3   OH217738   4.145   2.725   0.069  0.5340  0.5240  0.5581
 5911TIP3    H117739   4.084   2.660   0.105  1.6312 -1.4112 -0.8825
 5911TIP3    H217740   4.191   2.760   0.146  0.1781 -0.6913  1.3554
 5912TIP3   OH217741   0.868   4.203   1.649  0.3314  0.5613 -0.3338
 5912TIP3    H117742   0.778   4.181   1.623  0.3078 -0.0379  0.2372
 5912TIP3    H217743   0.921   4.176   1.574  0.0770  0.5204 -0.5029
 5913TIP3   OH217744   3.119   3.664   0.559 -0.4350  0.5329  1.0022
 5913TIP3    H117745   3.032   3.704   0.564 -0.1129  1.4918 -0.4559
 5913TIP3    H217746   3.174   3.731   0.520  0.3468 -0.9873 -0.6630
 5914TIP3   OH217747   3.806   3.099  -0.017 -0.3316  0.0943 -0.2746
 5914TIP3    H117748   3.739   3.130   0.043 -0.6287 -0.3737 -0.3616
 5914TIP3    H217749   3.873   3.060   0.039  0.2929  1.3147 -0.1251
 5915TIP3   OH217750   0.131   3.157   0.632  0.2888 -0.0743  0.2415
 5915TIP3    H117751   0.065   3.148   0.563  0.3646  0.2085  0.1339
 5915TIP3    H217752   0.134   3.070   0.672 -0.2193 -0.0622  0.3126
 5916TIP3   OH217753   2.746   3.521   2.939 -0.0650 -0.1683 -0.3760
 5916TIP3    H117754   2.776   3.468   2.865 -1.0001 -0.5473 -0.5044
 5916TIP3    H217755   2.699   3.459   2.995  0.3824  0.1744  0.3908
 5917TIP3   OH217756   3.753   0.827   2.536 -0.0410  0.2362  0.4594
 5917TIP3    H117757   3.711   0.791   2.614  0.8335 -1.3766  0.2369
 5917TIP3    H217758   3.832   0.774   2.526  1.4448  2.3986  0.2004
 5918TIP3   OH217759   3.902   5.074   0.189  0.0044  0.0995  0.0566
 5918TIP3    H117760   3.851   5.117   0.257 -0.7912  0.6089 -0.8255
 5918TIP3    H217761   3.958   5.012   0.235 -0.3784  0.5679  1.1732
 5919TIP3   OH217762   5.286   2.961   1.634  0.0593 -0.0014  0.1493
 5919TIP3    H117763   5.224   2.996   1.570 -1.4853 -1.4576  0.7419
 5919TIP3    H217764   5.368   3.005   1.616 -0.7032  0.6936 -1.8719
 5920TIP3   OH217765   5.240   2.407   4.115 -0.1027  0.7472 -0.0819
 5920TIP3    H117766   5.167   2.364   4.070  1.5514 -2.4274 -0.0824
 5920TIP3    H217767   5.303   2.425   4.046  0.7391 -0.3383  0.3673
 5921TIP3   OH217768   0.671   5.802   2.331  0.3562  0.4310  0.3032
 5921TIP3    H117769   0.710   5.889   2.333 -1.7216  1.4145  0.9103
 5921TIP3    H217770   0.610   5.804   2.257 -0.7451  0.0015  1.1592
 5922TIP3   OH217771   2.178   2.908   2.008  0.4270 -0.6317  0.1177
 5922TIP3    H117772   2.250   2.891   1.947 -0.2020 -0.4741 -0.6862
 5922TIP3    H217773   2.182   3.003   2.023  0.7761 -0.7159  0.5778
 5923TIP3   OH217774   0.870   0.975   1.588 -0.0302  0.0262  0.6106
 5923TIP3    H117775   0.847   0.885   1.569 -0.9505  0.3840 -0.0019
 5923TIP3    H217776   0.811   1.028   1.534 -0.8384  1.0300  2.3978
 5924TIP3   OH217777   1.189   4.929   2.064 -0.1696  0.2720 -0.0089
 5924TIP3    H117778   1.117   4.935   2.001  0.9137  0.4863 -1.2712
 5924TIP3    H217779   1.162   4.985   2.137 -1.6659 -0.3605 -0.0483
 5925TIP3   OH217780   0.581   1.096   0.572  0.2137  0.7164  0.0257
 5925TIP3    H117781   0.661   1.074   0.619  0.6937  1.7883 -0.2606
 5925TIP3    H217782   0.553   1.179   0.611 -0.2101  0.8495 -0.5522
 5926TIP3   OH217783   3.725   5.262   3.695  0.0665  0.0077 -0.1070
 5926TIP3    H117784   3.646   5.207   3.686  0.5480 -0.7891  0.3987
 5926TIP3    H217785   3.790   5.217   3.641  0.4687  0.0745  0.3183
 5927TIP3   OH217786   3.636   1.178   2.927  0.0880  0.0574  0.3222
 5927TIP3    H117787   3.719   1.133   2.910  0.5046  1.1026 -0.5564
 5927TIP3    H217788   3.582   1.113   2.971  0.9075 -1.0759 -0.2841
 5928TIP3   OH217789   4.650   2.425   0.745  0.0114 -0.6046 -0.4847
 5928TIP3    H117790   4.582   2.450   0.683  0.5656 -0.5317 -1.0784
 5928TIP3    H217791   4.628   2.472   0.825  0.3290  0.8080 -1.1918
 5929TIP3   OH217792   3.178   3.422   1.838  0.2742  0.8721  0.3564
 5929TIP3    H117793   3.175   3.362   1.912  1.1166 -2.2611 -1.9137
 5929TIP3    H217794   3.255   3.476   1.853  0.6295  0.0637  1.5854
 5930TIP3   OH217795   0.218   1.089   0.782  0.3135 -0.3692  0.1919
 5930TIP3    H117796   0.242   1.033   0.707  1.0862  0.0012  0.1586
 5930TIP3    H217797   0.295   1.087   0.839  0.3349  0.6223  0.2108
 5931TIP3   OH217798   0.243   3.986   4.441  0.7861  0.0861 -0.6118
 5931TIP3    H117799   0.166   4.017   4.393  2.6935  1.8269 -2.7198
 5931TIP3    H217800   0.289   3.929   4.379  1.0780 -1.2359  0.7528
 5932TIP3   OH217801   5.991   1.701   3.512 -0.7545  0.5751 -0.0092
 5932TIP3    H117802   5.934   1.641   3.561 -3.3604  1.5084 -1.6734
 5932TIP3    H217803   5.999   1.662   3.425  1.1378  0.5393  0.1399
 5933TIP3   OH217804   5.445   2.605   3.041 -0.1641  0.5680 -0.1542
 5933TIP3    H117805   5.478   2.567   3.123 -0.3791  1.3492  0.3074
 5933TIP3    H217806   5.503   2.570   2.973  1.5409  1.7903  0.6129
 5934TIP3   OH217807   0.730   2.545   1.068 -0.3500 -0.3068 -0.0826
 5934TIP3    H117808   0.678   2.605   1.015 -0.2839 -0.2507 -0.0847
 5934TIP3    H217809   0.821   2.564   1.043 -0.3069 -0.1365  0.2024
 5935TIP3   OH217810   6.192   2.909   4.895 -0.3811  1.1918 -0.4253
 5935TIP3    H117811   6.158   2.837   4.843  0.0432  0.5413  0.1785
 5935TIP3    H217812   6.174   2.987   4.843  0.1065  0.5526 -1.5889
 5936TIP3   OH217813   4.436   3.723   2.335 -0.0818  0.2108 -0.3607
 5936TIP3    H117814   4.432   3.717   2.431 -0.6627 -0.5273 -0.4195
 5936TIP3    H217815   4.518   3.680   2.312 -0.8405 -1.3351 -0.3017
 5937TIP3   OH217816   4.134   5.920   0.214  0.2048 -0.0264 -0.2485
 5937TIP3    H117817   4.111   5.919   0.122  1.4103  0.6031 -0.5708
 5937TIP3    H217818   4.178   5.836   0.229  0.8280  0.2584 -0.4702
 5938TIP3   OH217819   3.823   3.395   2.580 -1.0432  0.0774  0.0791
 5938TIP3    H117820   3.856   3.401   2.491  0.4346  0.3096  0.6185
 5938TIP3    H217821   3.783   3.481   2.597 -0.3963  0.4075 -0.0213
 5939TIP3   OH217822   6.099   5.256   4.232  0.0692 -0.1030 -0.4139
 5939TIP3    H117823   6.127   5.248   4.323 -0.0028  1.1836 -0.2588
 5939TIP3    H217824   6.057   5.172   4.213 -1.5026  0.2110  1.3130
 5940TIP3   OH217825   6.112   1.934   2.572 -0.4633 -0.3240 -0.6053
 5940TIP3    H117826   6.106   1.925   2.667 -2.5645  1.7238 -0.4634
 5940TIP3    H217827   6.203   1.959   2.556  0.9045 -3.9886  0.4340
 5941TIP3   OH217828   2.364   1.276   3.054  0.3652  0.2182 -0.2576
 5941TIP3    H117829   2.291   1.321   3.012 -0.4859 -0.3394  0.5905
 5941TIP3    H217830   2.428   1.265   2.983  0.6693  2.7889 -0.4786
 5942TIP3   OH217831   4.833   0.117   0.510  0.4557  0.2472  0.2660
 5942TIP3    H117832   4.792   0.197   0.477 -0.0038  1.3027  3.1645
 5942TIP3    H217833   4.873   0.078   0.432 -1.3794  1.9886 -1.6946
 5943TIP3   OH217834   5.068   5.425   1.332 -0.0886 -0.0086  0.5798
 5943TIP3    H117835   5.056   5.428   1.237 -0.9088 -0.8712  0.6374
 5943TIP3    H217836   5.002   5.484   1.366 -0.5329 -0.5284  0.6465
 5944TIP3   OH217837   1.314   1.250   2.337 -0.0466 -0.0025 -0.4711
 5944TIP3    H117838   1.256   1.208   2.273 -0.8364  0.1585  0.1081
 5944TIP3    H217839   1.376   1.301   2.285 -0.3197 -0.3194 -1.1193
 5945TIP3   OH217840   1.525   1.501   4.219 -0.5813 -0.7467 -0.0120
 5945TIP3    H117841   1.516   1.436   4.289 -0.4120 -0.3082  0.4181
 5945TIP3    H217842   1.568   1.575   4.260  1.4932 -1.2759 -1.0730
 5946TIP3   OH217843   0.926   4.158   1.364 -0.0689  0.2696 -0.4672
 5946TIP3    H117844   0.853   4.125   1.311  0.8558  1.3518 -2.5289
 5946TIP3    H217845   0.992   4.089   1.358 -0.0605  0.2830 -0.5349
 5947TIP3   OH217846   0.576   2.318  -0.022  0.5899 -0.1053  0.1019
 5947TIP3    H117847   0.569   2.376   0.054 -1.1909  1.1059 -0.9140
 5947TIP3    H217848   0.510   2.250  -0.007 -0.0699  0.3831 -0.5370
 5948TIP3   OH217849   0.119   1.617   2.193 -0.0463  0.5931  0.0445
 5948TIP3    H117850   0.184   1.687   2.184 -0.4278  0.6604 -4.4052
 5948TIP3    H217851   0.041   1.660   2.227  0.3592  1.9682 -0.6945
 5949TIP3   OH217852   3.987   2.530   0.876 -0.0355 -0.0442  0.3394
 5949TIP3    H117853   3.926   2.489   0.814  1.8576 -1.0186 -0.9985
 5949TIP3    H217854   4.022   2.457   0.927  2.0020  0.0423 -0.8116
 5950TIP3   OH217855   2.367   5.458   2.253  0.0613 -0.3552  0.2597
 5950TIP3    H117856   2.395   5.444   2.343 -0.0950 -0.2902  0.3191
 5950TIP3    H217857   2.326   5.545   2.254  0.5078 -0.1386  0.0201
 5951TIP3   OH217858   5.931   0.078   4.354 -0.2009 -0.0261  0.0843
 5951TIP3    H117859   6.015   0.037   4.335  0.3729  1.2939 -0.2945
 5951TIP3    H217860   5.905   0.042   4.439  0.9171 -0.1752  0.3746
 5952TIP3   OH217861   2.747   1.960   1.900  0.2854  0.2663 -0.3530
 5952TIP3    H117862   2.692   1.881   1.895  0.2251  0.3601 -1.4080
 5952TIP3    H217863   2.747   1.994   1.811  0.4675  1.3632  0.0580
 5953TIP3   OH217864   2.249   0.483   0.896  0.3341 -0.1402  0.3128
 5953TIP3    H117865   2.338   0.463   0.864  0.4128 -1.0156  1.0192
 5953TIP3    H217866   2.209   0.532   0.825  2.2024  2.5143  0.9367
 5954TIP3   OH217867   2.717   0.618   0.935 -0.3156  0.2949  0.0280
 5954TIP3    H117868   2.738   0.528   0.961  0.5562  0.5801  0.3626
 5954TIP3    H217869   2.788   0.642   0.876 -1.7686 -0.0113 -1.9209
 5955TIP3   OH217870   3.342   5.813   5.006 -0.5271 -0.7839 -0.1573
 5955TIP3    H117871   3.382   5.893   5.040 -1.2236 -0.8464  0.8508
 5955TIP3    H217872   3.410   5.747   5.014  0.3291 -0.1499 -1.7415
 5956TIP3   OH217873   3.344   5.478   2.464 -0.3714  0.4392 -0.2662
 5956TIP3    H117874   3.290   5.444   2.393 -0.5884  0.1562  0.0360
 5956TIP3    H217875   3.299   5.557   2.493 -0.2609  0.5790 -0.4649
 5957TIP3   OH217876   3.077   5.091   3.062 -0.4363 -0.0233 -0.6381
 5957TIP3    H117877   3.066   5.056   3.151 -1.0824  1.5058 -0.0890
 5957TIP3    H217878   3.052   5.018   3.005  2.3082 -1.8638  0.3212
 5958TIP3   OH217879   3.733   5.386   2.872  0.2270  0.1560 -0.3546
 5958TIP3    H117880   3.665   5.449   2.847  1.1836  1.3813  0.0434
 5958TIP3    H217881   3.786   5.375   2.794 -0.2948 -0.6613 -0.6099
 5959TIP3   OH217882   1.534   3.834   4.296  0.0130 -0.2701 -0.4804
 5959TIP3    H117883   1.598   3.794   4.237  0.4425 -1.1382  0.5658
 5959TIP3    H217884   1.506   3.914   4.249  2.6287  0.7136 -0.5122
 5960TIP3   OH217885   3.482   1.494   0.872 -0.0495  0.1288 -0.3718
 5960TIP3    H117886   3.437   1.442   0.804  1.6631  0.4792 -1.8662
 5960TIP3    H217887   3.558   1.530   0.827  0.7794  0.9694  1.6021
 5961TIP3   OH217888   1.465   2.907   1.951  0.0271  0.2817 -0.5486
 5961TIP3    H117889   1.417   2.826   1.962 -1.2297  1.1239  0.5652
 5961TIP3    H217890   1.553   2.880   1.925  0.3338 -1.5742  2.0422
 5962TIP3   OH217891   3.556   1.118   4.189  0.3293 -0.2456 -0.2883
 5962TIP3    H117892   3.580   1.028   4.169  0.6033  0.3295 -3.0243
 5962TIP3    H217893   3.610   1.171   4.130 -1.6452  1.5568 -0.6180
 5963TIP3   OH217894   5.665   5.799   0.462  0.3186 -0.1986  0.4716
 5963TIP3    H117895   5.697   5.764   0.545  0.8135 -1.6974 -0.3115
 5963TIP3    H217896   5.726   5.870   0.442 -0.1508  0.5637  1.6510
 5964TIP3   OH217897   1.139   4.582   1.012  0.1757 -0.3709  0.1895
 5964TIP3    H117898   1.162   4.499   1.054 -1.1364  0.0654  1.9020
 5964TIP3    H217899   1.043   4.580   1.007  0.1615  0.8052 -0.2568
 5965TIP3   OH217900   4.634   5.166   3.855  0.1643  0.2217 -0.4964
 5965TIP3    H117901   4.629   5.138   3.946  0.4571 -2.3346 -1.2055
 5965TIP3    H217902   4.566   5.114   3.810  0.5295  0.8802 -1.8678
 5966TIP3   OH217903   0.866   0.346   2.223 -0.1472  0.2860  0.5098
 5966TIP3    H117904   0.864   0.430   2.270  0.9283  0.5033  0.2039
 5966TIP3    H217905   0.793   0.352   2.162 -0.1917  0.9393  0.6135
 5967TIP3   OH217906   4.081   4.357   2.163  0.2784 -0.1923  0.3575
 5967TIP3    H117907   4.135   4.434   2.180  0.6282 -0.3351 -0.0953
 5967TIP3    H217908   4.141   4.294   2.122 -0.1845 -0.4241  0.0300
 5968TIP3   OH217909   0.267   1.342   4.436 -0.3673  0.3996 -0.0948
 5968TIP3    H117910   0.261   1.257   4.391 -0.0804  1.4918 -2.3590
 5968TIP3    H217911   0.361   1.357   4.447 -0.3126  1.2543 -1.4974
 5969TIP3   OH217912   0.493   1.260   2.352 -0.0808  0.1114  0.8174
 5969TIP3    H117913   0.428   1.198   2.318  0.8526 -0.7141  0.5005
 5969TIP3    H217914   0.551   1.207   2.406  0.0129  0.9468  1.5668
 5970TIP3   OH217915   5.471   4.206   3.390  0.0712 -0.0535 -0.0146
 5970TIP3    H117916   5.510   4.146   3.454  1.7879  1.5464  0.5046
 5970TIP3    H217917   5.380   4.176   3.383  0.0063 -0.7511  2.6065
 5971TIP3   OH217918   3.878   5.251   4.836  0.0378  0.1570 -0.3492
 5971TIP3    H117919   3.828   5.333   4.842 -0.8085 -0.3958  0.3195
 5971TIP3    H217920   3.813   5.182   4.845  0.8686 -0.5911  0.1077
 5972TIP3   OH217921   3.438   1.784   3.187  0.0791  0.6350 -0.0490
 5972TIP3    H117922   3.418   1.792   3.094 -2.2886 -2.5542  0.0516
 5972TIP3    H217923   3.405   1.865   3.225 -1.8425  0.6521 -1.6067
 5973TIP3   OH217924   2.710   0.091   1.461 -0.5288  0.4042  0.4498
 5973TIP3    H117925   2.752   0.126   1.539 -2.2007 -0.4596  1.7979
 5973TIP3    H217926   2.660   0.165   1.425 -0.8394  0.4660  0.9954
 5974TIP3   OH217927   4.877   0.285   3.379  0.6670  0.3669  0.1957
 5974TIP3    H117928   4.868   0.206   3.433 -0.8701  0.7608  0.5523
 5974TIP3    H217929   4.790   0.301   3.344  1.0083  1.7615 -0.0909
 5975TIP3   OH217930   1.251   0.696   5.099  0.4202 -0.5348  0.0879
 5975TIP3    H117931   1.165   0.661   5.123 -0.5519  1.4492 -0.2502
 5975TIP3    H217932   1.289   0.725   5.181 -0.6306  1.4208 -0.0523
 5976TIP3   OH217933   5.364   0.829   3.661 -0.4632 -0.3775  0.0033
 5976TIP3    H117934   5.305   0.903   3.652  0.1298  0.0348 -0.5634
 5976TIP3    H217935   5.440   0.864   3.707 -1.1908 -1.2164  1.9549
 5977TIP3   OH217936   0.123   1.972   2.011 -0.4122 -0.1789  0.3650
 5977TIP3    H117937   0.142   2.010   1.925 -0.2320 -1.5975 -0.2510
 5977TIP3    H217938   0.044   1.919   1.996 -1.6415  1.2174  1.5876
 5978TIP3   OH217939   4.201   0.886   3.280  0.3803  0.4480 -0.2195
 5978TIP3    H117940   4.164   0.941   3.210 -1.4710 -1.3821 -0.7706
 5978TIP3    H217941   4.145   0.903   3.355 -0.3213 -0.7499 -0.4435
 5979TIP3   OH217942   4.129   2.679   4.290  0.6325 -0.1056 -0.4497
 5979TIP3    H117943   4.127   2.775   4.283  0.9838  0.0325  1.0257
 5979TIP3    H217944   4.212   2.660   4.334  0.8275 -1.1444 -1.2195
 5980TIP3   OH217945   2.455   5.739   3.049 -0.1611 -0.0713 -0.2196
 5980TIP3    H117946   2.434   5.653   3.086  2.3180 -0.9984 -0.7864
 5980TIP3    H217947   2.467   5.723   2.956 -0.5653  1.1025 -0.4908
 5981TIP3   OH217948   3.521   1.860   1.107  0.6015 -0.0465  0.2103
 5981TIP3    H117949   3.581   1.860   1.033  0.3913  0.8649  0.0335
 5981TIP3    H217950   3.439   1.826   1.070  1.2487 -2.3296  0.6914
 5982TIP3   OH217951   1.472   0.491   1.828  0.3481 -0.5064  0.5481
 5982TIP3    H117952   1.534   0.562   1.843  0.1688 -0.2363  0.0228
 5982TIP3    H217953   1.484   0.433   1.903  0.0095  0.4162  1.3267
 5983TIP3   OH217954   3.992   4.122   5.117  0.4422  0.3100 -0.4248
 5983TIP3    H117955   3.913   4.075   5.146  0.0575  1.4577  0.4926
 5983TIP3    H217956   4.064   4.065   5.143 -0.0335 -0.0943  0.0454
 5984TIP3   OH217957   0.823   4.554   0.873  0.0687  0.5802  0.1447
 5984TIP3    H117958   0.797   4.641   0.842 -1.0907 -0.1451 -1.0789
 5984TIP3    H217959   0.894   4.528   0.815  0.1749  0.5790  0.2765
 5985TIP3   OH217960   6.113   0.354   1.294 -0.3726 -0.0721 -0.1518
 5985TIP3    H117961   6.097   0.282   1.355  1.4218 -1.3467 -1.0933
 5985TIP3    H217962   6.184   0.403   1.334  0.2546 -0.4376 -0.8034
 5986TIP3   OH217963   3.244   0.107   1.875 -0.2340  0.1580  0.1161
 5986TIP3    H117964   3.260   0.017   1.906 -0.2320  0.5734  1.3950
 5986TIP3    H217965   3.152   0.123   1.893 -0.4229  0.1698 -0.8097
 5987TIP3   OH217966   2.185   5.762   0.929  0.2768  0.1358 -0.2146
 5987TIP3    H117967   2.223   5.843   0.962  0.1128  1.2964 -2.5910
 5987TIP3    H217968   2.118   5.738   0.993  0.8232  1.4628  0.8997
 5988TIP3   OH217969   2.933   5.814   0.769 -0.2942 -0.3078  0.3038
 5988TIP3    H117970   3.016   5.767   0.779 -0.1425 -0.0170  0.4367
 5988TIP3    H217971   2.899   5.786   0.684  0.3299  0.1780 -0.1165
 5989TIP3   OH217972   2.078   3.010   3.856 -0.0450 -0.2901  0.7948
 5989TIP3    H117973   2.083   3.055   3.941  1.1136  0.4408  0.3622
 5989TIP3    H217974   2.152   2.949   3.857 -0.6372 -1.0266  0.7081
 5990TIP3   OH217975   3.624   5.321   1.037 -0.1103 -0.2978 -0.2194
 5990TIP3    H117976   3.551   5.357   0.987  0.4270 -0.6137 -1.2668
 5990TIP3    H217977   3.665   5.398   1.078 -0.5944 -0.0414 -0.2124
 5991TIP3   OH217978   5.069   3.340   2.259 -0.4557  0.7107 -0.5385
 5991TIP3    H117979   5.050   3.354   2.352  1.1477  0.5112 -0.1536
 5991TIP3    H217980   4.990   3.297   2.225  0.0702 -2.1771  1.4543
 5992TIP3   OH217981   4.490   1.141   0.862  0.4179 -0.3242  0.0357
 5992TIP3    H117982   4.584   1.121   0.869 -0.0514 -2.0372  2.8948
 5992TIP3    H217983   4.473   1.200   0.935 -0.9646 -1.0237  0.2946
 5993TIP3   OH217984   1.461   2.404   1.505 -0.9988  0.0450 -0.2516
 5993TIP3    H117985   1.498   2.456   1.433 -0.3201 -0.0173  0.0497
 5993TIP3    H217986   1.432   2.323   1.463  1.3730 -0.9219 -0.1368
 5994TIP3   OH217987   4.194   1.384   1.904  0.5616 -0.9293 -0.5660
 5994TIP3    H117988   4.246   1.355   1.829 -0.3471 -1.3646 -1.0345
 5994TIP3    H217989   4.182   1.305   1.957  2.4512 -0.3567  0.8522
 5995TIP3   OH217990   0.428   2.900   0.642 -0.1959  0.0971  0.5753
 5995TIP3    H117991   0.335   2.875   0.646 -0.5271  1.0478 -0.5983
 5995TIP3    H217992   0.443   2.947   0.724 -0.7235 -0.1529  0.8246
 5996TIP3   OH217993   1.765   0.232   2.629 -0.3967 -0.2361 -0.2809
 5996TIP3    H117994   1.670   0.221   2.633 -0.3516 -0.4953  0.2491
 5996TIP3    H217995   1.779   0.305   2.569 -0.9605  0.1505  0.0494
 5997TIP3   OH217996   5.744   4.916   5.137  0.0152 -0.6986 -0.2161
 5997TIP3    H117997   5.687   4.913   5.215  1.4009  0.9233  0.9266
 5997TIP3    H217998   5.810   4.849   5.154 -1.0148 -1.9943 -1.1499
 5998TIP3   OH217999   5.761   4.285   2.647  0.5391 -0.1216  0.0082
 5998TIP3    H118000   5.679   4.295   2.695 -0.1459 -0.4020 -1.0795
 5998TIP3    H218001   5.745   4.213   2.586  1.1960  0.5844 -1.0357
 5999TIP3   OH218002   4.883   5.399   0.092  0.5025  0.0756 -0.0017
 5999TIP3    H118003   4.940   5.414   0.016  0.5472 -0.0108  0.0147
 5999TIP3    H218004   4.794   5.412   0.058  0.5563  0.7474  0.0977
 6000TIP3   OH218005   4.931   2.360   1.576  0.5653 -0.2061  0.2401
 6000TIP3    H118006   4.937   2.281   1.521 -1.0335  0.9395 -1.7214
 6000TIP3    H218007   4.855   2.408   1.541  1.0902  1.8946  1.7896
 6001TIP3   OH218008   1.927   4.462   2.778 -0.2321 -0.0026  0.4438
 6001TIP3    H118009   2.016   4.485   2.804  0.5388 -0.5455 -1.5331
 6001TIP3    H218010   1.930   4.368   2.761 -0.2014  0.4703 -2.9069
 6002TIP3   OH218011   2.653   3.416   0.350 -0.3409  0.2411  0.2855
 6002TIP3    H118012   2.570   3.369   0.345  0.6464 -1.5041 -0.6916
 6002TIP3    H218013   2.634   3.493   0.404 -2.7041  0.1929 -0.3593
 6003TIP3   OH218014   2.538   2.145   2.724 -0.3045 -0.3042  0.2932
 6003TIP3    H118015   2.460   2.104   2.688 -0.0123  0.0793 -0.8074
 6003TIP3    H218016   2.599   2.073   2.737  0.3341 -0.2440 -1.9572
 6004TIP3   OH218017   4.445   2.425   4.663  0.1810 -0.4209 -0.3146
 6004TIP3    H118018   4.351   2.416   4.648  0.3018  0.2150 -1.6077
 6004TIP3    H218019   4.453   2.498   4.725 -0.1282  0.7894 -1.6476
 6005TIP3   OH218020   1.580   0.048   0.393  0.1400 -0.1374  0.0108
 6005TIP3    H118021   1.527   0.125   0.414  0.1304 -0.5827  1.7155
 6005TIP3    H218022   1.669   0.072   0.419  0.0526 -0.8581  1.0240
 6006TIP3   OH218023   2.890   0.812   4.212 -0.4523  0.1203 -0.1259
 6006TIP3    H118024   2.857   0.861   4.137 -0.4074  0.2896 -0.0362
 6006TIP3    H218025   2.975   0.852   4.231 -0.6373  0.3383  0.2580
 6007TIP3   OH218026   6.037   0.965   2.304 -0.3600 -0.4524  0.1597
 6007TIP3    H118027   6.043   0.924   2.390 -1.6389 -0.5581  0.2084
 6007TIP3    H218028   5.991   1.048   2.319 -0.5800 -0.4609 -0.4197
 6008TIP3   OH218029   1.459   2.034   3.554 -0.1977  0.2087 -0.0517
 6008TIP3    H118030   1.370   2.026   3.519 -0.3212  1.2951 -0.0149
 6008TIP3    H218031   1.509   1.967   3.508 -0.7302  0.5088 -1.1080
 6009TIP3   OH218032   4.398   2.389   3.914  0.0193 -0.2966 -0.1652
 6009TIP3    H118033   4.468   2.442   3.877 -2.4165  2.4711 -1.1869
 6009TIP3    H218034   4.351   2.448   3.973  0.0645 -2.8399  2.7074
 6010TIP3   OH218035   6.308   1.367   4.320  0.6550 -0.0866  0.2624
 6010TIP3    H118036   6.227   1.374   4.270  1.0666  0.0250 -0.4057
 6010TIP3    H218037   6.298   1.287   4.371  0.2129 -0.1918  0.0173
 6011TIP3   OH218038   1.877   0.514   2.567  0.3034 -0.3270 -0.2818
 6011TIP3    H118039   1.784   0.529   2.588 -0.2517 -0.4644 -2.4573
 6011TIP3    H218040   1.880   0.512   2.472  2.5032 -0.7573 -0.2422
 6012TIP3   OH218041   0.010   2.704   2.999 -0.5920  0.2311  0.3246
 6012TIP3    H118042  -0.025   2.783   2.957  0.3637  0.9037  0.7424
 6012TIP3    H218043   0.103   2.724   3.012 -0.2186 -1.1592 -0.0048
 6013TIP3   OH218044   3.442   0.263   0.892  0.1041  0.3346 -0.7094
 6013TIP3    H118045   3.365   0.246   0.945 -0.0046  0.6114 -0.7757
 6013TIP3    H218046   3.410   0.318   0.820  0.1159 -0.5848 -1.4293
 6014TIP3   OH218047   0.406   0.982   2.929 -0.2227  0.3935 -0.4014
 6014TIP3    H118048   0.375   0.906   2.880 -0.0726 -0.9798  1.5087
 6014TIP3    H218049   0.341   0.994   2.998  1.2858  0.0574  1.1577
 6015TIP3   OH218050   1.517   3.782   2.995 -0.7913 -0.5253 -0.3592
 6015TIP3    H118051   1.544   3.845   2.929 -0.3545  0.4714  0.7241
 6015TIP3    H218052   1.502   3.701   2.947 -0.1917  0.0870 -1.6237
 6016TIP3   OH218053   2.978   2.540   0.908 -0.0020 -0.0684 -0.1162
 6016TIP3    H118054   2.978   2.483   0.985 -0.2043  1.3727  0.9998
 6016TIP3    H218055   2.890   2.529   0.871 -0.1007 -0.3351  0.1888
 6017TIP3   OH218056   3.883   2.722   2.943  0.3430  0.0006 -0.2240
 6017TIP3    H118057   3.793   2.695   2.960  0.7806 -1.0785  0.4526
 6017TIP3    H218058   3.875   2.812   2.910 -1.0015 -0.2281 -0.5935
 6018TIP3   OH218059   4.412   4.361   2.326 -0.3995 -0.1040 -0.4356
 6018TIP3    H118060   4.418   4.453   2.298 -1.7735  0.4526  0.9381
 6018TIP3    H218061   4.384   4.314   2.248  3.7650 -0.0605 -2.2319
 6019TIP3   OH218062   0.205   1.485   3.850  0.2248 -0.9193  0.1908
 6019TIP3    H118063   0.248   1.549   3.907 -0.8913  0.1148 -0.0846
 6019TIP3    H218064   0.176   1.416   3.909  2.6731 -1.9347  0.3235
 6020TIP3   OH218065   5.757   1.472   2.064 -0.2670  0.3173 -0.4392
 6020TIP3    H118066   5.685   1.444   2.120 -0.0367 -1.9906 -1.1684
 6020TIP3    H218067   5.716   1.494   1.981 -0.4215  2.0254  0.0642
 6021TIP3   OH218068   4.719   0.986   3.737  0.3317 -0.3789 -1.0734
 6021TIP3    H118069   4.673   0.918   3.688  0.3268 -0.2297 -1.2761
 6021TIP3    H218070   4.810   0.978   3.710  0.4480 -0.7460 -0.5902
 6022TIP3   OH218071   2.721   5.197   2.348  0.0947 -0.1489  0.0338
 6022TIP3    H118072   2.809   5.161   2.336  0.3450  0.7145 -0.9378
 6022TIP3    H218073   2.687   5.154   2.426  1.2262 -0.7985  0.1856
 6023TIP3   OH218074   0.427   5.135   2.990 -0.1650 -0.3512 -0.0927
 6023TIP3    H118075   0.484   5.112   3.063  1.6480 -1.5914 -1.7989
 6023TIP3    H218076   0.452   5.074   2.920 -1.9079  0.6916 -1.7077
 6024TIP3   OH218077   5.801   4.192   3.529  0.3427  0.1576 -0.0715
 6024TIP3    H118078   5.822   4.198   3.622  0.3660  2.0988 -0.1591
 6024TIP3    H218079   5.727   4.131   3.525  1.2062 -1.0274  1.0365
 6025TIP3   OH218080   2.975   4.790   3.102  0.6076  0.8315 -0.0911
 6025TIP3    H118081   2.925   4.772   3.181 -0.0352  1.3516 -0.3676
 6025TIP3    H218082   3.018   4.707   3.081  0.4356  0.5752  0.5560
 6026TIP3   OH218083   0.219   0.434   0.477  0.2833 -0.2447 -0.4006
 6026TIP3    H118084   0.236   0.486   0.398  0.0219 -1.0849 -1.0204
 6026TIP3    H218085   0.245   0.492   0.549  3.9778 -0.6738 -1.1740
 6027TIP3   OH218086   5.511   4.346   2.350 -0.0894  0.4923 -0.7608
 6027TIP3    H118087   5.435   4.309   2.303 -0.7851  0.8386  0.0595
 6027TIP3    H218088   5.554   4.269   2.388  0.8409  0.1424 -2.4389
 6028TIP3   OH218089   0.054   3.175   2.948 -0.4521  0.2774  0.3894
 6028TIP3    H118090  -0.035   3.172   2.981 -0.3895 -0.0694  0.5323
 6028TIP3    H218091   0.101   3.231   3.009 -0.1363 -1.0366  1.3850
 6029TIP3   OH218092   4.449   5.464   0.712 -0.1439 -0.0724  0.0992
 6029TIP3    H118093   4.509   5.488   0.783  0.3103  2.7752 -1.1067
 6029TIP3    H218094   4.479   5.516   0.637 -2.9466 -0.0116 -1.1012
 6030TIP3   OH218095   5.245   3.559   2.349 -0.8852 -0.5646 -0.0388
 6030TIP3    H118096   5.185   3.505   2.400 -1.1810  0.7606  1.0737
 6030TIP3    H218097   5.192   3.633   2.319  0.3649  1.2099  1.9017
 6031TIP3   OH218098   4.376   2.747   3.469  0.3053  0.3550 -0.2257
 6031TIP3    H118099   4.334   2.756   3.384 -1.0179 -0.5764  0.3015
 6031TIP3    H218100   4.453   2.804   3.464  0.8323 -0.4518 -2.3994
 6032TIP3   OH218101   4.791   2.673   0.648 -0.3996  0.1249  0.0210
 6032TIP3    H118102   4.720   2.614   0.671 -1.1552  1.4888  1.3372
 6032TIP3    H218103   4.871   2.625   0.671 -0.9979 -0.2811  1.3121
 6033TIP3   OH218104   0.659   1.736   2.473  0.0948  0.0485 -0.3282
 6033TIP3    H118105   0.645   1.830   2.482 -0.0717  0.0112 -0.2099
 6033TIP3    H218106   0.573   1.696   2.486  0.1654 -0.1209 -0.3680
 6034TIP3   OH218107   3.294   0.982   3.627 -0.2739 -0.7124 -0.0991
 6034TIP3    H118108   3.291   1.025   3.713  0.6029  0.1834 -0.4988
 6034TIP3    H218109   3.290   0.889   3.647 -1.0760 -0.4946  0.8549
 6035TIP3   OH218110   3.816   2.596   1.913 -0.3516 -0.0165  0.5543
 6035TIP3    H118111   3.894   2.553   1.877  0.7883 -1.3295  4.1461
 6035TIP3    H218112   3.842   2.687   1.925 -0.2982  0.1292 -0.5177
 6036TIP3   OH218113   0.590   0.936   1.330 -0.2795  0.0220 -0.3085
 6036TIP3    H118114   0.534   0.926   1.253  0.6887  0.8390 -1.1529
 6036TIP3    H218115   0.546   1.004   1.382 -1.4418 -1.2039  0.3682
 6037TIP3   OH218116   2.574   0.660   1.783 -0.3745  0.2023 -0.3403
 6037TIP3    H118117   2.590   0.569   1.757 -1.1895  0.0130 -0.2000
 6037TIP3    H218118   2.521   0.653   1.862 -1.2329  0.8002 -0.8489
 6038TIP3   OH218119   5.457   4.623   0.841  0.0746  1.1017 -0.1694
 6038TIP3    H118120   5.552   4.633   0.840  0.0067  1.7924 -1.0528
 6038TIP3    H218121   5.437   4.594   0.931  1.3378 -1.7332 -0.6928
 6039TIP3   OH218122   3.955   3.127   1.308 -0.6743 -0.0850  0.2157
 6039TIP3    H118123   3.987   3.206   1.265 -2.1420  1.0786  1.1571
 6039TIP3    H218124   4.033   3.074   1.321  0.2550  0.8847 -1.0496
 6040TIP3   OH218125   4.986   1.179   2.400  0.1198 -0.2433  0.1194
 6040TIP3    H118126   5.070   1.159   2.441  0.1579  0.8787  0.6286
 6040TIP3    H218127   5.001   1.167   2.307  0.9360  0.2152  0.1847
 6041TIP3   OH218128   4.993   1.679   0.694  0.1834  0.0476 -0.1659
 6041TIP3    H118129   5.075   1.659   0.739 -0.3871 -3.1025 -0.2625
 6041TIP3    H218130   4.926   1.676   0.763 -0.0746  0.5354 -0.3940
 6042TIP3   OH218131   2.532   3.529   1.500 -0.2906 -0.0177 -0.4565
 6042TIP3    H118132   2.514   3.435   1.503  0.2502 -0.1286 -0.6223
 6042TIP3    H218133   2.625   3.535   1.479  0.6243  0.4763  3.0593
 6043TIP3   OH218134   3.062   1.312   4.394  0.4062 -0.5106  0.2026
 6043TIP3    H118135   3.146   1.273   4.370  0.9190 -0.1881  1.4007
 6043TIP3    H218136   3.077   1.406   4.387 -0.2411 -0.4647 -0.7750
 6044TIP3   OH218137   0.962   5.844   4.006  0.5039  0.3505 -1.0829
 6044TIP3    H118138   1.019   5.808   4.074 -1.3297 -1.2750 -0.3003
 6044TIP3    H218139   0.913   5.912   4.050 -0.7580 -0.7713 -0.6905
 6045TIP3   OH218140   1.513   0.114   1.389  0.3152 -0.1148 -0.2126
 6045TIP3    H118141   1.555   0.060   1.323 -0.4368 -0.9284 -0.0475
 6045TIP3    H218142   1.534   0.071   1.472 -1.1808 -0.8177 -0.1561
 6046TIP3   OH218143   5.148   3.595   1.169  0.4805  0.2085  0.2353
 6046TIP3    H118144   5.116   3.671   1.218 -1.6232  0.0512 -0.7921
 6046TIP3    H218145   5.111   3.605   1.082  2.2855 -0.6994 -0.6952
 6047TIP3   OH218146   3.553   1.458   2.517 -0.0873  0.0494 -0.3202
 6047TIP3    H118147   3.521   1.376   2.555 -1.1846  0.1777 -0.9213
 6047TIP3    H218148   3.568   1.437   2.425  2.4511 -0.2339  0.0703
 6048TIP3   OH218149   1.075   2.871   1.926  0.2916  0.5411 -0.4272
 6048TIP3    H118150   1.068   2.879   1.831 -0.9077  1.5222 -0.2790
 6048TIP3    H218151   1.106   2.782   1.940 -3.2898 -1.1079 -1.6438
 6049TIP3   OH218152   0.284   3.555   0.631  0.0938 -0.2089  0.0422
 6049TIP3    H118153   0.249   3.559   0.720 -0.8874  0.6211 -0.3666
 6049TIP3    H218154   0.330   3.638   0.620 -0.0198 -0.1933 -0.3174
 6050TIP3   OH218155   4.027   1.910   0.490 -0.2710 -0.4068  0.4891
 6050TIP3    H118156   4.068   1.900   0.577 -0.0726 -2.6223  0.2205
 6050TIP3    H218157   4.066   1.840   0.438 -0.0943  1.1336 -1.5443
 6051TIP3   OH218158   5.495   4.108   0.947 -0.7102 -0.0188 -0.9213
 6051TIP3    H118159   5.546   4.189   0.947 -0.2213 -0.2808  0.8349
 6051TIP3    H218160   5.515   4.068   1.032 -1.2596 -1.7746 -1.5878
 6052TIP3   OH218161   1.331   1.700   0.865  0.0895  0.1246  0.4350
 6052TIP3    H118162   1.291   1.768   0.811  0.9885  0.5443  0.2761
 6052TIP3    H218163   1.373   1.641   0.803  0.2794  0.0590  0.6226
 6053TIP3   OH218164   4.205   4.149   4.901  0.1640  0.4401  0.3295
 6053TIP3    H118165   4.219   4.055   4.908  2.6146  0.8672  3.3563
 6053TIP3    H218166   4.149   4.171   4.976 -0.6646  1.3998 -0.5325
 6054TIP3   OH218167   6.045   0.454   4.091 -0.5491 -0.5978  0.4366
 6054TIP3    H118168   6.113   0.438   4.156  0.2552  0.5199 -0.1049
 6054TIP3    H218169   5.966   0.417   4.130 -0.5272  1.7136  2.9260
 6055TIP3   OH218170   5.237   4.279   1.921 -0.7036  0.3178  0.3938
 6055TIP3    H118171   5.330   4.289   1.939 -0.7816  1.0522  0.4103
 6055TIP3    H218172   5.229   4.192   1.882  0.4101  1.2810 -2.2294
 6056TIP3   OH218173   1.677   5.241   4.048  0.1002 -0.5477 -0.1943
 6056TIP3    H118174   1.720   5.218   3.965  0.9779  1.7928 -0.4607
 6056TIP3    H218175   1.732   5.199   4.114  0.9197 -0.3019 -0.6964
 6057TIP3   OH218176   4.568   5.819   3.890 -0.4128 -0.1037  0.0824
 6057TIP3    H118177   4.526   5.835   3.974 -3.1962 -1.4454 -0.9089
 6057TIP3    H218178   4.504   5.766   3.841  1.1350  0.4767 -2.8136
 6058TIP3   OH218179   5.263   1.576   0.669  0.3387  0.1760  0.5236
 6058TIP3    H118180   5.240   1.524   0.746  0.8697  0.6284  1.0000
 6058TIP3    H218181   5.281   1.511   0.601 -0.1405 -0.2272  0.7806
 6059TIP3   OH218182   5.850   0.312   4.202 -0.0002 -0.3292 -0.0896
 6059TIP3    H118183   5.779   0.324   4.264  0.7098 -0.3448  0.7442
 6059TIP3    H218184   5.885   0.225   4.222  1.5100  0.4627  0.8379
 6060TIP3   OH218185   1.026   3.466   3.828  0.0056 -0.2417 -0.0961
 6060TIP3    H118186   1.025   3.513   3.911 -0.6147 -1.4604  0.6132
 6060TIP3    H218187   0.943   3.419   3.826  0.7863 -1.6649 -0.5509
 6061TIP3   OH218188   5.299   0.585   0.297  0.2116  0.4373 -0.4152
 6061TIP3    H118189   5.393   0.598   0.313  0.2445  0.3145 -0.5073
 6061TIP3    H218190   5.256   0.621   0.374  0.2756  1.5271 -0.8702
 6062TIP3   OH218191   0.601   3.908   3.124 -0.1032  0.1530  0.2077
 6062TIP3    H118192   0.570   3.840   3.064 -0.9595 -0.1168  0.9350
 6062TIP3    H218193   0.693   3.887   3.139  0.1229  0.2105 -0.9739
 6063TIP3   OH218194   5.761   3.901   4.432  0.0258  0.5396  0.4296
 6063TIP3    H118195   5.672   3.935   4.436 -0.9664 -1.7751 -0.2585
 6063TIP3    H218196   5.804   3.954   4.365 -1.0383  1.2411  0.2777
 6064TIP3   OH218197   5.128   5.654   1.540 -0.3773 -0.0057  0.4578
 6064TIP3    H118198   5.212   5.610   1.548  0.1709  0.9863  0.2806
 6064TIP3    H218199   5.079   5.601   1.477  0.1762 -0.4783  0.4125
 6065TIP3   OH218200   1.533   5.423   1.390  0.0588  0.3688  0.0203
 6065TIP3    H118201   1.459   5.384   1.342  0.1734 -0.6163  0.5981
 6065TIP3    H218202   1.541   5.368   1.468 -0.2312  2.0083  1.2637
 6066TIP3   OH218203   0.468   4.733   0.245 -0.1422  0.6353  0.0843
 6066TIP3    H118204   0.426   4.660   0.201 -0.5565 -0.6572  2.4401
 6066TIP3    H218205   0.427   4.811   0.208 -2.0083 -0.4637 -0.2628
 6067TIP3   OH218206   4.702   3.588   2.152 -0.4875 -0.3490  0.6181
 6067TIP3    H118207   4.779   3.543   2.118 -0.2193  1.1389 -0.8321
 6067TIP3    H218208   4.688   3.549   2.239  0.7763 -1.9309  0.1601
 6068TIP3   OH218209   3.789   0.320   0.041 -0.0174  0.5293  0.2337
 6068TIP3    H118210   3.870   0.280   0.008 -1.1458 -1.3345 -0.3925
 6068TIP3    H218211   3.771   0.392  -0.020 -0.1114 -0.5736 -1.0708
 6069TIP3   OH218212   2.504   2.504   3.618 -0.3895  0.2790  0.5050
 6069TIP3    H118213   2.453   2.583   3.603 -0.8607  0.0661  0.9661
 6069TIP3    H218214   2.440   2.433   3.615 -0.0291 -0.0461  0.4765
 6070TIP3   OH218215   6.324   0.736   1.617 -0.2784 -0.5577  0.2006
 6070TIP3    H118216   6.346   0.653   1.661  0.5823 -0.3496  0.1925
 6070TIP3    H218217   6.276   0.786   1.683  0.7153 -0.3831  0.8118
 6071TIP3   OH218218   1.174   0.844   0.641  0.2725  0.0230 -0.4460
 6071TIP3    H118219   1.236   0.807   0.703 -1.9245  0.1205  2.0041
 6071TIP3    H218220   1.094   0.793   0.654 -0.4691  0.4523 -2.8336
 6072TIP3   OH218221   4.305   2.985   2.883 -0.3996  0.0763  0.1735
 6072TIP3    H118222   4.277   2.901   2.848  0.4289  0.4074 -1.4024
 6072TIP3    H218223   4.224   3.035   2.895 -0.8248 -0.6278  0.2515
 6073TIP3   OH218224   5.301   3.518   3.895  0.1923 -0.1895  0.0079
 6073TIP3    H118225   5.371   3.534   3.958 -1.0757  0.3254  1.3628
 6073TIP3    H218226   5.304   3.424   3.878  0.4703 -0.3559  0.9480
 6074TIP3   OH218227   1.548   3.725   3.330  0.0478  0.1695  0.5524
 6074TIP3    H118228   1.522   3.686   3.413 -1.5228 -0.3077 -0.1311
 6074TIP3    H218229   1.469   3.768   3.298  0.7333  0.6759 -0.5184
 6075TIP3   OH218230   1.494   3.274   2.881  0.1924 -0.4008  0.0225
 6075TIP3    H118231   1.552   3.259   2.955  0.4667 -0.8853 -0.2859
 6075TIP3    H218232   1.443   3.351   2.905  2.3740  1.3175 -0.5480
 6076TIP3   OH218233   3.557   1.105   0.967  0.0250 -0.1178  0.1174
 6076TIP3    H118234   3.645   1.101   0.929  0.1426 -2.0456  0.4733
 6076TIP3    H218235   3.551   1.026   1.021 -2.1882 -0.4369 -0.4872
 6077TIP3   OH218236   3.147   2.961   2.810  0.2799  0.4317 -0.3445
 6077TIP3    H118237   3.157   2.913   2.728  3.3559 -0.7029  0.5450
 6077TIP3    H218238   3.220   3.022   2.812  0.1933  0.5399  1.4423
 6078TIP3   OH218239   0.915   0.393   3.062 -0.2758 -0.3886 -0.0287
 6078TIP3    H118240   1.006   0.371   3.082  0.1226 -0.2365 -1.5561
 6078TIP3    H218241   0.888   0.327   2.997 -0.4999  0.8866 -1.2863
 6079TIP3   OH218242   4.167   1.612   5.130 -0.0327  0.5467  0.1001
 6079TIP3    H118243   4.105   1.684   5.123 -2.5760 -1.5023  0.1281
 6079TIP3    H218244   4.172   1.576   5.042  0.4901  0.1707  0.2786
 6080TIP3   OH218245   0.693   4.807   1.866 -0.2576  0.2574 -0.2183
 6080TIP3    H118246   0.655   4.773   1.785  0.0538 -1.0781  0.1709
 6080TIP3    H218247   0.753   4.738   1.895  0.8665  1.4095  0.3009
 6081TIP3   OH218248   0.706   5.393   2.714 -0.0236  0.6060  0.3092
 6081TIP3    H118249   0.650   5.445   2.657  0.5259  1.0239  0.1462
 6081TIP3    H218250   0.787   5.443   2.722  1.3918 -1.1625 -1.6199
 6082TIP3   OH218251   1.085   2.985   2.174  0.7241  0.6021  0.8504
 6082TIP3    H118252   1.103   2.936   2.094  1.9806  1.6184  0.4733
 6082TIP3    H218253   1.054   2.919   2.236 -1.5323 -0.0151 -0.8189
 6083TIP3   OH218254   5.561   5.798   1.541 -0.0269  0.0917  0.1102
 6083TIP3    H118255   5.552   5.893   1.530  0.9923  0.2562  0.5309
 6083TIP3    H218256   5.556   5.784   1.635 -0.3358 -0.2984  0.0391
 6084TIP3   OH218257   1.247   1.457   2.027  0.4314 -0.1405 -0.0219
 6084TIP3    H118258   1.288   1.544   2.027  2.0579 -0.8697 -0.5148
 6084TIP3    H218259   1.251   1.429   1.936 -0.1648 -0.7095  0.1191
 6085TIP3   OH218260   0.614   3.799   1.188 -0.9498 -0.2158 -0.5099
 6085TIP3    H118261   0.548   3.781   1.121 -1.6737  1.7855 -0.4004
 6085TIP3    H218262   0.690   3.828   1.139 -0.2254 -2.1350 -0.6113
 6086TIP3   OH218263   1.653   0.232   4.564 -0.1339  0.0288 -0.6534
 6086TIP3    H118264   1.575   0.264   4.609 -0.0749 -0.1416 -0.4259
 6086TIP3    H218265   1.629   0.143   4.536 -0.8311  0.7878 -2.5967
 6087TIP3   OH218266   4.191   2.995   1.269  0.0864 -0.0779 -0.1905
 6087TIP3    H118267   4.136   2.918   1.256 -0.8677  0.1524  1.9411
 6087TIP3    H218268   4.243   2.974   1.347 -0.3894  1.4793  0.6070
 6088TIP3   OH218269   4.028   2.513   2.861  0.0687 -0.3770  0.1003
 6088TIP3    H118270   4.002   2.447   2.925  0.0169 -1.4827 -1.0413
 6088TIP3    H218271   3.988   2.594   2.894 -1.7939 -1.3203  0.3329
 6089TIP3   OH218272   0.527   1.214   4.104 -1.0430  0.8514 -0.4582
 6089TIP3    H118273   0.608   1.265   4.117 -1.3482  1.7678 -1.9274
 6089TIP3    H218274   0.535   1.141   4.165  0.9880  0.8229 -0.6793
 6090TIP3   OH218275   6.163   0.127   4.684 -0.1495 -0.6323  0.0502
 6090TIP3    H118276   6.199   0.094   4.602 -1.6711 -1.9730 -0.1310
 6090TIP3    H218277   6.186   0.220   4.685  3.2734 -1.3237 -0.0053
 6091TIP3   OH218278   4.469   2.706   1.920  0.2170 -0.2627 -0.1093
 6091TIP3    H118279   4.455   2.680   2.011  0.2738  0.3146  0.0692
 6091TIP3    H218280   4.510   2.792   1.926 -0.7400  0.2431 -0.6982
 6092TIP3   OH218281   1.335   2.054   3.206 -0.3431 -0.2788 -0.1572
 6092TIP3    H118282   1.414   2.045   3.153 -0.0643  1.1295  0.0016
 6092TIP3    H218283   1.271   2.094   3.147  0.0907  1.6681  0.6379
 6093TIP3   OH218284   6.061   4.644   3.931 -0.2773  0.6058 -0.1955
 6093TIP3    H118285   6.046   4.643   4.026 -0.4807  0.7799 -0.2249
 6093TIP3    H218286   6.094   4.732   3.914  1.0649  0.1435 -0.0927
 6094TIP3   OH218287   4.870   2.165   3.829  0.3070 -0.2174  0.3445
 6094TIP3    H118288   4.944   2.181   3.770  0.9758  2.0295  1.6726
 6094TIP3    H218289   4.805   2.230   3.805 -0.1965 -0.5321  0.8291
 6095TIP3   OH218290   0.985   0.409   0.061  0.0641  0.0603 -0.7151
 6095TIP3    H118291   1.004   0.352   0.136 -0.1281 -0.3821 -1.0028
 6095TIP3    H218292   0.910   0.369   0.019  1.3514 -0.8114 -2.2888
 6096TIP3   OH218293   0.132   2.867   2.602  0.4017  0.1642  0.3251
 6096TIP3    H118294   0.127   2.890   2.694  2.2178 -0.7224  0.7029
 6096TIP3    H218295   0.072   2.793   2.592  0.8828 -0.3335  1.0308
 6097TIP3   OH218296   4.527   2.900   1.233  0.1678  0.2321 -0.2907
 6097TIP3    H118297   4.591   2.968   1.210  0.4078 -0.3151 -1.2971
 6097TIP3    H218298   4.450   2.921   1.180 -0.3154  0.5786  0.5221
 6098TIP3   OH218299   2.886   4.319   1.370 -0.1660 -0.2815  0.2252
 6098TIP3    H118300   2.821   4.255   1.398 -1.2862  1.7259  2.6466
 6098TIP3    H218301   2.835   4.398   1.351  1.3547  0.6703 -0.0826
 6099TIP3   OH218302   0.038   4.021   4.253  0.2098  0.0729 -0.9986
 6099TIP3    H118303   0.009   4.010   4.163 -1.6550 -0.4272 -0.3820
 6099TIP3    H218304  -0.024   3.969   4.305  1.5879 -0.1279  0.5213
 6100TIP3   OH218305   3.494   2.446   5.062  0.3933  0.1325  0.6787
 6100TIP3    H118306   3.465   2.356   5.072 -2.6489  1.0218  1.0489
 6100TIP3    H218307   3.526   2.452   4.972 -1.5359 -0.8632 -0.1418
 6101TIP3   OH218308   3.768   0.827   3.857 -0.1470  0.2451  0.3116
 6101TIP3    H118309   3.822   0.888   3.906 -0.3645  0.7359 -0.0594
 6101TIP3    H218310   3.830   0.769   3.813  0.0607  0.2763  0.5658
 6102TIP3   OH218311   4.624   4.662   4.142  0.5670  0.4907  0.0788
 6102TIP3    H118312   4.690   4.597   4.117 -0.2256 -0.0156 -0.7569
 6102TIP3    H218313   4.547   4.609   4.166 -0.1207  1.1157 -0.7149
 6103TIP3   OH218314   1.792   2.650   1.067  0.7327  0.1010  0.0873
 6103TIP3    H118315   1.854   2.579   1.054  1.0063  0.5658 -1.2311
 6103TIP3    H218316   1.711   2.606   1.092  0.9150 -0.6730 -0.6338
 6104TIP3   OH218317   5.418   0.721   1.495  0.7528 -0.1721 -0.2933
 6104TIP3    H118318   5.365   0.656   1.542 -0.0810  0.5529 -0.1958
 6104TIP3    H218319   5.507   0.685   1.496  0.2273 -1.5671 -0.7033
 6105TIP3   OH218320   1.462   0.673   2.950 -0.1093 -0.0679  0.1836
 6105TIP3    H118321   1.530   0.610   2.926 -1.8721 -1.6179 -0.9790
 6105TIP3    H218322   1.393   0.660   2.886 -1.6986  1.1744  1.5506
 6106TIP3   OH218323   6.055   0.601   1.866  0.0688  0.0265 -0.2239
 6106TIP3    H118324   6.110   0.572   1.793 -0.2331  0.7168 -0.7410
 6106TIP3    H218325   6.099   0.569   1.944  0.9897  0.2216 -0.6549
 6107TIP3   OH218326   3.042   5.951   0.995  0.3575  0.0413 -0.1055
 6107TIP3    H118327   2.987   6.027   1.014  1.1395  0.3992  0.8236
 6107TIP3    H218328   3.004   5.912   0.917 -1.0757  0.4054  0.3904
 6108TIP3   OH218329   0.136   4.664   1.100  0.1972 -0.2464  0.0832
 6108TIP3    H118330   0.217   4.643   1.146 -0.0977  0.8441  1.1624
 6108TIP3    H218331   0.152   4.752   1.064 -0.9109  0.4883  1.3264
 6109TIP3   OH218332   2.453   0.313   0.694  0.1081  0.1440  0.1308
 6109TIP3    H118333   2.543   0.344   0.682  0.5970 -0.5695  1.7633
 6109TIP3    H218334   2.461   0.220   0.712 -0.8713  0.2347  1.2101
 6110TIP3   OH218335   0.798   5.720   0.829 -0.9399  0.0800 -0.2163
 6110TIP3    H118336   0.879   5.770   0.839 -0.8105 -0.4984  2.5570
 6110TIP3    H218337   0.728   5.784   0.843 -0.8948  0.1378 -0.2535
 6111TIP3   OH218338   4.180   0.374   4.201  0.4170 -0.1399 -0.6604
 6111TIP3    H118339   4.108   0.411   4.252  0.2298 -0.8499 -0.3963
 6111TIP3    H218340   4.184   0.428   4.122  0.5517  0.8145 -0.0118
 6112TIP3   OH218341   0.983   1.710   0.215 -0.0422  0.3680  0.4243
 6112TIP3    H118342   0.980   1.643   0.147 -1.1930 -0.0278  0.8276
 6112TIP3    H218343   1.034   1.671   0.286  0.5433  0.5034  0.0833
 6113TIP3   OH218344   4.583   1.564   3.720 -0.5864 -0.5961  0.0421
 6113TIP3    H118345   4.529   1.508   3.777  0.2583 -1.4204  0.0476
 6113TIP3    H218346   4.548   1.549   3.632 -1.0736 -0.2845  0.1781
 6114TIP3   OH218347   5.633   4.216   5.033 -0.0911 -0.0624  0.0502
 6114TIP3    H118348   5.619   4.309   5.013 -0.7611 -0.1839 -0.0504
 6114TIP3    H218349   5.596   4.205   5.121 -3.2607 -0.9823 -1.2535
 6115TIP3   OH218350   5.601   4.990   4.924  0.4039  0.6213 -0.2232
 6115TIP3    H118351   5.546   5.062   4.956 -0.8220 -0.0355 -0.7556
 6115TIP3    H218352   5.663   4.973   4.995 -0.2455  1.2373  0.5113
 6116TIP3   OH218353   2.929   5.639   2.150  0.0574  0.5183  0.6972
 6116TIP3    H118354   2.924   5.653   2.056  1.5963 -1.1042  0.3298
 6116TIP3    H218355   2.927   5.544   2.161  1.3684  0.6154  2.1952
 6117TIP3   OH218356   3.660   1.698   3.746  0.1388 -0.0823  0.1530
 6117TIP3    H118357   3.591   1.721   3.684 -0.6741  3.1663  2.0314
 6117TIP3    H218358   3.741   1.728   3.705 -0.2110  0.7403  0.0554
 6118TIP3   OH218359   5.409   1.314   1.518  0.5033 -0.1300 -0.0555
 6118TIP3    H118360   5.412   1.219   1.531 -0.6570  0.0732  2.1854
 6118TIP3    H218361   5.315   1.334   1.515  0.7153  1.0391  0.5035
 6119TIP3   OH218362   0.486   4.413   2.383 -0.2842 -0.2250  0.2351
 6119TIP3    H118363   0.580   4.422   2.397 -0.0601 -0.7518 -0.8708
 6119TIP3    H218364   0.458   4.347   2.446  0.0641 -0.0144  0.6148
 6120TIP3   OH218365   6.089   2.427   4.972  0.1613  0.1279 -0.0962
 6120TIP3    H118366   6.021   2.361   4.957  0.3425 -0.4214  1.3779
 6120TIP3    H218367   6.095   2.434   5.067  0.7381  1.6768 -0.2202
 6121TIP3   OH218368   6.077   5.096   4.752  0.1143 -0.1336 -0.7062
 6121TIP3    H118369   6.008   5.063   4.809  1.4210 -2.0840 -0.1393
 6121TIP3    H218370   6.139   5.138   4.811 -0.4213  1.3522 -1.1759
 6122TIP3   OH218371   0.968   4.760   0.232  0.1000 -0.3193  0.0906
 6122TIP3    H118372   1.031   4.824   0.200 -1.3730  1.2441  0.2054
 6122TIP3    H218373   0.988   4.751   0.325  0.7560 -0.5796 -0.0699
 6123TIP3   OH218374   6.196   4.749   0.280 -0.2532 -0.6810  0.5809
 6123TIP3    H118375   6.282   4.712   0.263 -0.4793 -1.8332  1.8316
 6123TIP3    H218376   6.213   4.830   0.327  0.1922  0.1719 -0.9805
 6124TIP3   OH218377   2.888   4.064   4.679 -0.0140 -0.1609 -0.1594
 6124TIP3    H118378   2.916   4.006   4.608 -1.9196 -0.8991 -0.3907
 6124TIP3    H218379   2.899   4.012   4.758 -1.8174 -0.9576 -0.3762
 6125TIP3   OH218380   3.419   4.708   4.474 -0.1730 -0.1331  0.2014
 6125TIP3    H118381   3.330   4.744   4.472  0.6517  2.0179  0.3006
 6125TIP3    H218382   3.418   4.639   4.407 -1.6085  0.5897 -0.5625
 6126TIP3   OH218383   6.229   0.763   0.090  0.4864  0.0433  0.2227
 6126TIP3    H118384   6.230   0.858   0.075 -2.3561  0.2147  0.5680
 6126TIP3    H218385   6.279   0.727   0.016 -1.1010  1.6677 -1.7690
 6127TIP3   OH218386   1.241   2.332   0.191  0.0006  0.0004  0.1586
 6127TIP3    H118387   1.176   2.317   0.261  0.9024  2.9917  1.8043
 6127TIP3    H218388   1.211   2.411   0.148  1.9747  0.8588  0.2856
 6128TIP3   OH218389   4.465   2.137   0.243  0.0085  0.0573 -0.1585
 6128TIP3    H118390   4.418   2.115   0.324  0.3964 -1.7311 -0.3794
 6128TIP3    H218391   4.397   2.167   0.183 -1.1315 -3.2774 -0.7653
 6129TIP3   OH218392   5.311   0.857   4.050  0.2123 -0.3200 -0.3195
 6129TIP3    H118393   5.282   0.909   3.975  0.9630  0.0370 -0.3670
 6129TIP3    H218394   5.266   0.895   4.125  1.4886  1.0537 -0.2048
 6130TIP3   OH218395   1.654   4.710   4.326 -0.6256  0.0904  0.1236
 6130TIP3    H118396   1.589   4.687   4.260 -1.1175 -1.4683  1.0988
 6130TIP3    H218397   1.675   4.802   4.308 -1.2473 -0.0870 -1.7412
 6131TIP3   OH218398   5.356   3.718   3.627 -0.6433 -0.0548 -0.5151
 6131TIP3    H118399   5.386   3.699   3.538 -0.0244 -0.4853 -0.2233
 6131TIP3    H218400   5.261   3.722   3.620 -0.5466  2.9797 -1.8065
 6132TIP3   OH218401   5.669   5.495   2.460  0.3916 -0.3694 -0.4590
 6132TIP3    H118402   5.706   5.413   2.490 -0.6014 -0.3054  1.0644
 6132TIP3    H218403   5.657   5.547   2.540  0.0971  0.8698 -1.2717
 6133TIP3   OH218404   4.882   1.023   1.134  0.6803  0.5080 -0.2730
 6133TIP3    H118405   4.912   0.955   1.073  0.5636 -0.6006  0.8850
 6133TIP3    H218406   4.876   0.980   1.218  1.1950  2.1176  0.6342
 6134TIP3   OH218407   0.221   4.391   4.536 -0.5738 -0.4283 -0.0123
 6134TIP3    H118408   0.303   4.439   4.525 -1.1282  0.0524 -2.9322
 6134TIP3    H218409   0.247   4.306   4.571  0.9705  0.2541  0.5726
 6135TIP3   OH218410   2.560   0.474   4.595 -0.1341 -0.1331 -0.9428
 6135TIP3    H118411   2.571   0.516   4.510 -0.1341 -0.4360 -1.0942
 6135TIP3    H218412   2.582   0.542   4.658 -0.8483  0.3174 -1.1632
 6136TIP3   OH218413   5.722   0.117   3.276 -0.2360  0.6403 -0.2043
 6136TIP3    H118414   5.722   0.021   3.278 -0.3693  0.6540  0.5656
 6136TIP3    H218415   5.673   0.143   3.354 -1.9712  1.3209 -1.4500
 6137TIP3   OH218416   5.049   4.748   4.772 -0.2381 -1.0302  0.1395
 6137TIP3    H118417   4.963   4.767   4.734  0.7061 -0.5612 -1.8963
 6137TIP3    H218418   5.054   4.805   4.849 -0.9120  0.5808 -0.9469
 6138TIP3   OH218419   2.774   1.744   3.416  0.0229  0.2616  0.6556
 6138TIP3    H118420   2.803   1.694   3.492  1.3636 -0.5245 -0.3336
 6138TIP3    H218421   2.837   1.815   3.408  2.1184 -1.6892 -1.7419
 6139TIP3   OH218422   1.106   2.033   4.387  0.0752 -0.7711  0.4690
 6139TIP3    H118423   1.098   2.007   4.479 -0.1032 -1.8141  0.1670
 6139TIP3    H218424   1.028   1.997   4.345  0.0874 -0.1803 -0.0666
 6140TIP3   OH218425  -0.005   2.310   4.057 -0.4606 -0.2071  0.0285
 6140TIP3    H118426   0.010   2.231   4.005  2.9841  0.1069  0.3101
 6140TIP3    H218427   0.027   2.381   4.003  1.6500  0.3092  1.8230
 6141TIP3   OH218428   2.800   2.533   3.717 -0.4474 -0.0636 -0.9966
 6141TIP3    H118429   2.788   2.617   3.761  1.3077  0.8014 -2.0574
 6141TIP3    H218430   2.728   2.528   3.654 -2.4570 -0.9037  1.1952
 6142TIP3   OH218431   0.297   4.571   1.540 -0.0372 -0.1873  0.5688
 6142TIP3    H118432   0.269   4.494   1.491  0.8036 -0.9197  1.2159
 6142TIP3    H218433   0.241   4.642   1.507  0.7823 -0.5354 -1.7710
 6143TIP3   OH218434   6.167   2.661   1.811 -0.2234 -0.0536 -0.0280
 6143TIP3    H118435   6.174   2.740   1.865 -1.4868 -1.1328  1.8629
 6143TIP3    H218436   6.256   2.625   1.809  0.6592  2.0179 -2.0305
 6144TIP3   OH218437   2.365   5.806   4.844  0.7078 -0.4725 -0.0353
 6144TIP3    H118438   2.360   5.778   4.752 -0.1931  2.4296 -0.9750
 6144TIP3    H218439   2.275   5.795   4.876  0.9865 -1.3269  0.4661
 6145TIP3   OH218440   5.007   2.753   4.665  0.5565  0.0207  0.5024
 6145TIP3    H118441   4.916   2.780   4.683  0.4917  1.7233 -1.9441
 6145TIP3    H218442   5.054   2.773   4.746 -0.7372  1.8566  0.8761
 6146TIP3   OH218443   1.983   5.833   2.256  0.4288  0.6872 -0.0626
 6146TIP3    H118444   2.010   5.783   2.179  1.4670  2.4135 -0.8860
 6146TIP3    H218445   1.908   5.784   2.291  0.0225 -0.2450 -2.0596
 6147TIP3   OH218446   3.960   0.416   4.361 -0.2485 -0.0035  0.3927
 6147TIP3    H118447   3.926   0.326   4.361  0.6581 -0.3567  0.2496
 6147TIP3    H218448   3.966   0.439   4.454  2.0949 -1.1195  0.5837
 6148TIP3   OH218449   1.854   0.789   3.387  0.1970  0.0854  0.3693
 6148TIP3    H118450   1.943   0.759   3.405  0.5117  0.1147 -1.0021
 6148TIP3    H218451   1.858   0.885   3.394  0.3838  0.1150 -0.1041
 6149TIP3   OH218452   4.123   4.577   4.201  0.3922  0.2350  0.3325
 6149TIP3    H118453   4.117   4.581   4.106 -0.3251  2.5362  0.4190
 6149TIP3    H218454   4.218   4.578   4.219  0.5321 -0.2664 -0.3457
 6150TIP3   OH218455   4.390   0.994   2.861  0.4054 -0.1634 -0.0944
 6150TIP3    H118456   4.460   0.989   2.926  1.3712  2.4764 -0.8063
 6150TIP3    H218457   4.408   0.922   2.801  1.0905 -0.9829  1.0658
 6151TIP3   OH218458   5.476   3.094   2.021 -0.1562  0.5742 -0.1008
 6151TIP3    H118459   5.545   3.159   2.005  0.5487 -0.1824 -0.1466
 6151TIP3    H218460   5.488   3.068   2.112  2.1636 -2.4602 -1.1433
 6152TIP3   OH218461   0.559   2.245   4.101 -0.0876  0.1917  0.0497
 6152TIP3    H118462   0.601   2.167   4.138  0.3154  0.8797  1.1092
 6152TIP3    H218463   0.623   2.315   4.114 -1.5998  1.3310  1.9278
 6153TIP3   OH218464   4.648   2.620   2.979  0.3477 -0.2692 -0.1719
 6153TIP3    H118465   4.614   2.699   3.021 -0.7675 -1.0690  0.4944
 6153TIP3    H218466   4.606   2.548   3.026  0.6963 -1.2429 -1.2973
 6154TIP3   OH218467   1.657   1.206   5.144  0.2503 -0.0581  0.3267
 6154TIP3    H118468   1.592   1.143   5.115  0.6760 -0.5217  0.3676
 6154TIP3    H218469   1.714   1.219   5.069 -0.4975  1.1659 -0.0635
 6155TIP3   OH218470   5.287   0.172   2.660 -0.1509  0.3971 -0.2735
 6155TIP3    H118471   5.341   0.158   2.582 -0.3696 -0.8283 -0.2222
 6155TIP3    H218472   5.202   0.201   2.626 -0.6537 -1.3515 -0.5959
 6156TIP3   OH218473   2.710   4.681   2.397  0.0942 -0.0364 -0.1548
 6156TIP3    H118474   2.688   4.694   2.305  0.3431 -0.7091 -0.3200
 6156TIP3    H218475   2.657   4.606   2.424 -0.6123  0.6692  0.4933
 6157TIP3   OH218476   5.297   1.810   1.527  0.1020  0.5372  0.2417
 6157TIP3    H118477   5.315   1.722   1.497  0.6018  0.2900  1.2059
 6157TIP3    H218478   5.267   1.799   1.618 -0.2016  1.3247  0.2472
 6158TIP3   OH218479   3.142   1.917   1.704  0.6147  0.1757 -0.0829
 6158TIP3    H118480   3.052   1.943   1.684  0.2661 -1.5131 -0.8677
 6158TIP3    H218481   3.169   1.977   1.774 -1.9210 -0.7040  1.8220
 6159TIP3   OH218482   2.580   1.079   3.564  0.3323  0.5478 -0.5120
 6159TIP3    H118483   2.672   1.059   3.582  0.3286  0.7077 -0.3121
 6159TIP3    H218484   2.576   1.174   3.565  0.0165  0.5353  0.2457
 6160TIP3   OH218485   4.693   3.481   1.652 -0.5025  0.1780  0.3986
 6160TIP3    H118486   4.647   3.416   1.598 -0.1171  0.2027  0.0355
 6160TIP3    H218487   4.740   3.428   1.717 -1.8474  0.1951  1.4345
 6161TIP3   OH218488   0.052   4.985   0.049  0.5922  0.4732  0.1206
 6161TIP3    H118489   0.012   4.905   0.082 -0.5090  1.3186  0.9475
 6161TIP3    H218490   0.021   4.992  -0.041 -1.5005  1.2491  0.8158
 6162TIP3   OH218491   1.283   3.978   1.627  0.4638 -0.4538  0.1225
 6162TIP3    H118492   1.260   4.056   1.678  0.0978  0.4484 -1.3546
 6162TIP3    H218493   1.358   3.940   1.673 -1.0289 -0.8042  2.4118
 6163TIP3   OH218494   3.927   5.074   4.189 -0.0167  0.0415  0.2517
 6163TIP3    H118495   3.978   5.096   4.111 -0.1375 -0.9057 -0.0999
 6163TIP3    H218496   3.973   4.999   4.228  0.2887  0.7598  1.3372
 6164TIP3   OH218497   4.203   4.658   1.518 -0.3887  0.1282 -0.1196
 6164TIP3    H118498   4.166   4.742   1.545 -0.0415  0.2144  0.0982
 6164TIP3    H218499   4.280   4.682   1.466 -1.0071 -0.0353 -1.1338
 6165TIP3   OH218500   1.583   1.735   1.726  0.2827  0.0821  0.2317
 6165TIP3    H118501   1.640   1.711   1.653 -0.8180  0.2224 -0.6969
 6165TIP3    H218502   1.599   1.828   1.740 -0.0226  0.2235 -0.3224
 6166TIP3   OH218503   5.109   2.711   2.881  0.3948 -0.5628 -0.0886
 6166TIP3    H118504   5.049   2.688   2.952 -0.8628 -1.3908 -1.3534
 6166TIP3    H218505   5.054   2.762   2.820  0.9377 -1.4125 -1.3185
 6167TIP3   OH218506   5.661   1.956   4.378  0.0568  0.7264 -0.1633
 6167TIP3    H118507   5.613   2.036   4.402  0.2210  0.6704  0.3605
 6167TIP3    H218508   5.593   1.888   4.374 -0.1170  0.9327 -0.8315
 6168TIP3   OH218509   4.537   0.931   1.565 -0.2206 -0.0955 -0.4690
 6168TIP3    H118510   4.565   1.014   1.527 -1.0487 -0.5514 -2.1621
 6168TIP3    H218511   4.485   0.889   1.497 -1.4783 -1.1462  1.0581
 6169TIP3   OH218512   3.722   2.464   2.288  0.4872 -0.0476  0.5059
 6169TIP3    H118513   3.817   2.454   2.277  0.6004 -0.1780  1.4889
 6169TIP3    H218514   3.690   2.376   2.305 -0.0247 -0.2141 -1.1591
 6170TIP3   OH218515   2.687   1.660   2.679  0.8475 -1.0291  0.2288
 6170TIP3    H118516   2.596   1.631   2.678 -1.0884  3.9497  2.1680
 6170TIP3    H218517   2.710   1.671   2.587 -1.1489 -0.7474 -0.2774
 6171TIP3   OH218518   4.121   0.860   1.387  0.2235 -0.0720  0.0962
 6171TIP3    H118519   4.106   0.855   1.293  0.0038 -2.6326  0.1888
 6171TIP3    H218520   4.034   0.870   1.425  0.1452 -0.6931  0.0843
 6172TIP3   OH218521   2.969   3.192   3.948 -0.2964  0.1942  0.3254
 6172TIP3    H118522   3.059   3.193   3.915 -0.2431 -2.2000  0.2240
 6172TIP3    H218523   2.915   3.219   3.874  0.2322  0.3336 -0.0121
 6173TIP3   OH218524   0.866   3.626   0.252  0.1336  0.0336 -0.0487
 6173TIP3    H118525   0.945   3.634   0.199  0.4787 -3.5678 -0.2945
 6173TIP3    H218526   0.795   3.654   0.194  0.9126  0.3912 -0.8454
 6174TIP3   OH218527   3.194   3.164   0.683 -0.0448 -0.6262  0.0490
 6174TIP3    H118528   3.125   3.156   0.750 -0.0518  1.0218  0.2746
 6174TIP3    H218529   3.147   3.174   0.601 -0.0599 -0.7186  0.0465
 6175TIP3   OH218530   5.134   4.701   3.027 -0.2220 -0.7391 -0.3119
 6175TIP3    H118531   5.128   4.682   2.934  1.1343 -0.8834 -0.3998
 6175TIP3    H218532   5.126   4.796   3.033  1.3362 -0.5502 -0.7774
 6176TIP3   OH218533   3.880   2.154   3.386 -0.3931  0.7323  0.0464
 6176TIP3    H118534   3.849   2.240   3.359  1.7353  1.5704  0.1116
 6176TIP3    H218535   3.973   2.166   3.405 -0.2358 -1.3850  0.9419
 6177TIP3   OH218536   2.264   0.143   3.381 -0.2708  0.2557  0.2093
 6177TIP3    H118537   2.314   0.105   3.309 -0.6291  1.8781 -0.9455
 6177TIP3    H218538   2.329   0.188   3.434 -0.1671  0.0877  0.2270
 6178TIP3   OH218539   3.558   1.118   4.773 -0.4427 -0.1438  0.7149
 6178TIP3    H118540   3.629   1.119   4.838 -0.2808  1.2719  0.5490
 6178TIP3    H218541   3.575   1.195   4.719 -2.5569  0.7122  1.1812
 6179TIP3   OH218542   6.054   3.233   2.589  0.0757  0.4587 -0.0825
 6179TIP3    H118543   6.003   3.203   2.514 -0.3915  0.9328  0.0426
 6179TIP3    H218544   6.039   3.167   2.656 -0.4982  0.6732  0.0031
 6180TIP3   OH218545   1.326   3.145   3.421  0.1242  0.4470  0.1191
 6180TIP3    H118546   1.376   3.156   3.503  0.7698 -0.8060 -0.0785
 6180TIP3    H218547   1.278   3.064   3.434 -2.2370  1.8024  0.4475
 6181TIP3   OH218548   2.951   5.693   1.609 -0.3253 -0.6814  0.7703
 6181TIP3    H118549   2.920   5.782   1.623  0.1820 -0.3933  0.1262
 6181TIP3    H218550   3.007   5.675   1.684 -0.0000 -0.2539  0.6372
 6182TIP3   OH218551   5.016   1.583   1.570  0.3382  0.7721  0.5017
 6182TIP3    H118552   4.992   1.605   1.660 -0.8105 -0.2340  0.4654
 6182TIP3    H218553   5.033   1.667   1.529 -0.6472  1.3647  1.2557
 6183TIP3   OH218554   4.792   2.424   4.185  0.0812  0.1058  0.5182
 6183TIP3    H118555   4.850   2.372   4.130 -0.0503 -0.3934  0.8499
 6183TIP3    H218556   4.775   2.503   4.134 -1.4526 -1.0943 -0.9268
 6184TIP3   OH218557   2.421   3.386   4.539 -0.1424  0.3739  0.1384
 6184TIP3    H118558   2.418   3.449   4.611 -1.2406 -1.8267  2.1935
 6184TIP3    H218559   2.346   3.329   4.555  1.2012 -1.8966 -1.1276
 6185TIP3   OH218560   6.186   3.936   0.100  0.1975  0.3884 -0.7039
 6185TIP3    H118561   6.101   3.976   0.081 -0.4583  0.5174  2.0678
 6185TIP3    H218562   6.233   4.002   0.152  1.1054 -0.5431 -0.2961
 6186TIP3   OH218563   1.183   0.544   4.014 -0.4362  0.3851 -0.2716
 6186TIP3    H118564   1.113   0.577   4.072 -1.0504 -0.1817 -0.6693
 6186TIP3    H218565   1.199   0.454   4.045  0.5086  0.6919  0.1609
 6187TIP3   OH218566   0.481   2.776   4.960  0.0276 -0.3118 -0.5360
 6187TIP3    H118567   0.452   2.693   4.923 -0.1898 -0.1282 -0.7736
 6187TIP3    H218568   0.561   2.753   5.009 -0.0676 -0.6704 -0.5429
 6188TIP3   OH218569   5.986   5.047   2.884  0.2747 -0.4175 -0.1818
 6188TIP3    H118570   5.975   4.960   2.845  0.5097  0.4024 -2.1945
 6188TIP3    H218571   6.013   5.030   2.974  0.9380 -2.4310 -0.7201
 6189TIP3   OH218572   3.253   3.997   0.193  0.1444 -0.2937  0.3867
 6189TIP3    H118573   3.325   3.935   0.184 -0.3099 -0.7022 -0.5769
 6189TIP3    H218574   3.294   4.077   0.228  1.4199  0.0980 -1.7977
 6190TIP3   OH218575   0.962   5.741   4.749  0.2433  1.0554 -0.0362
 6190TIP3    H118576   0.911   5.808   4.704 -1.2155 -0.1385 -0.2316
 6190TIP3    H218577   0.947   5.660   4.699  2.3179  0.6244 -0.0755
 6191TIP3   OH218578   1.047   2.972   0.582 -0.0238 -0.2326 -0.3228
 6191TIP3    H118579   1.049   2.992   0.675 -0.7423  0.2022 -0.3905
 6191TIP3    H218580   1.034   3.056   0.539 -1.7020 -0.6414 -0.6937
 6192TIP3   OH218581   4.793   1.390   3.384  0.3101  0.3413 -0.2957
 6192TIP3    H118582   4.808   1.358   3.473  1.2320  1.1561 -0.1473
 6192TIP3    H218583   4.861   1.455   3.369  0.2857  0.0989 -1.6690
 6193TIP3   OH218584   1.629   5.106   4.510  0.4211  0.3621 -0.2666
 6193TIP3    H118585   1.608   5.023   4.466  1.5301  0.2124 -0.5497
 6193TIP3    H218586   1.675   5.079   4.590 -1.1182  0.6518  0.7727
 6194TIP3   OH218587   3.161   0.712   2.594  0.1968 -0.1913  0.0768
 6194TIP3    H118588   3.096   0.722   2.525  0.9494 -0.6037 -0.6956
 6194TIP3    H218589   3.136   0.631   2.639  0.9183 -1.0501 -1.0367
 6195TIP3   OH218590   5.419   0.899   0.926  0.2143 -0.0287 -0.0617
 6195TIP3    H118591   5.429   0.975   0.983  0.1417 -0.7336  0.9199
 6195TIP3    H218592   5.487   0.838   0.956  1.2337  0.1952 -1.7775
 6196TIP3   OH218593   1.681   2.293   3.845 -0.1943  0.1696  0.1591
 6196TIP3    H118594   1.754   2.241   3.878 -0.2484 -0.2878 -0.4292
 6196TIP3    H218595   1.605   2.236   3.854 -0.4416  0.5462  0.5137
 6197TIP3   OH218596   2.051   4.162   5.118  0.7115 -0.0024  0.5333
 6197TIP3    H118597   1.971   4.193   5.075  1.6695  2.9561  0.6494
 6197TIP3    H218598   2.079   4.087   5.064 -0.9850  0.2043 -0.7515
 6198TIP3   OH218599   4.828   1.635   3.839 -0.4268 -0.5517 -0.0819
 6198TIP3    H118600   4.809   1.576   3.912 -0.7747 -1.1830 -0.6663
 6198TIP3    H218601   4.775   1.601   3.767 -0.0666  0.0426 -0.6359
 6199TIP3   OH218602   5.361   2.080   4.724  0.4327  0.1120 -0.4639
 6199TIP3    H118603   5.351   2.055   4.632  0.2533 -0.2704 -0.3431
 6199TIP3    H218604   5.437   2.030   4.754  0.0063 -0.3708 -0.1903
 6200TIP3   OH218605   0.615   2.807   3.509 -0.2640  0.4692 -0.1540
 6200TIP3    H118606   0.577   2.784   3.594  0.6424  0.0221  0.1410
 6200TIP3    H218607   0.540   2.809   3.449 -0.6764 -1.0338  0.2753
 6201TIP3   OH218608   1.839   3.330   0.434  0.4695 -0.0065 -0.6477
 6201TIP3    H118609   1.899   3.401   0.414  1.8496 -1.3904 -1.6595
 6201TIP3    H218610   1.891   3.267   0.484  0.1459 -1.6005 -2.2042
 6202TIP3   OH218611   4.374   1.641   4.438  1.0308 -0.8681 -0.2893
 6202TIP3    H118612   4.354   1.715   4.381 -0.5548 -1.4343 -0.5165
 6202TIP3    H218613   4.344   1.564   4.390 -0.4876 -1.3574  1.3345
 6203TIP3   OH218614   2.627   4.942   4.218  0.0460 -0.2917 -0.1132
 6203TIP3    H118615   2.687   4.934   4.292  2.2131  0.4848 -1.6924
 6203TIP3    H218616   2.608   4.852   4.193 -1.3955 -0.5939  1.8230
 6204TIP3   OH218617   2.827   2.217   3.319  0.1804 -0.2200  0.6522
 6204TIP3    H118618   2.739   2.186   3.342  0.3055 -0.6735  0.5334
 6204TIP3    H218619   2.818   2.247   3.228  0.7123 -2.6756 -0.3032
 6205TIP3   OH218620   4.651   1.543   4.078  0.4124  0.6225 -0.4870
 6205TIP3    H118621   4.579   1.552   4.015 -0.7181  0.2053  0.6881
 6205TIP3    H218622   4.631   1.463   4.125  0.6714  1.4399  1.0702
 6206TIP3   OH218623   3.806   1.646   2.760  0.2289  0.5311 -0.4656
 6206TIP3    H118624   3.713   1.636   2.740 -0.0580 -0.8681  1.2550
 6206TIP3    H218625   3.810   1.636   2.855  2.3297 -1.2830 -0.6649
 6207TIP3   OH218626   4.493   4.326   3.628 -0.1863  0.1935 -0.1704
 6207TIP3    H118627   4.530   4.356   3.711  2.4618  0.2521 -1.2673
 6207TIP3    H218628   4.425   4.391   3.608  0.7246  1.5195  0.8260
 6208TIP3   OH218629   3.164   2.164   4.456  0.4987 -0.7947  0.1434
 6208TIP3    H118630   3.130   2.160   4.546 -1.1854 -0.2168 -0.4424
 6208TIP3    H218631   3.183   2.257   4.442  0.7731 -0.8854 -0.1013
 6209TIP3   OH218632   5.476   5.372   1.802 -0.3005 -0.3159  0.6876
 6209TIP3    H118633   5.567   5.384   1.774  0.1932 -3.5012  0.5257
 6209TIP3    H218634   5.424   5.424   1.740  1.3357  0.9470  0.3185
 6210TIP3   OH218635   5.782   5.366   1.397  0.4236  0.5669 -0.2263
 6210TIP3    H118636   5.867   5.405   1.417  0.8782 -0.1098 -0.8023
 6210TIP3    H218637   5.796   5.272   1.405 -1.2407  0.4648  3.4316
 6211TIP3   OH218638   0.955   2.189   4.033  0.4498  0.1639 -0.3638
 6211TIP3    H118639   0.924   2.118   3.977  1.5815 -1.6498  1.1707
 6211TIP3    H218640   1.051   2.181   4.031  0.6531  2.1144 -0.6727
 6212TIP3   OH218641   0.748   2.016   3.916  0.3476  0.1553 -0.2011
 6212TIP3    H118642   0.722   2.071   3.842 -1.2693  0.6648  0.7027
 6212TIP3    H218643   0.666   1.992   3.958  1.1854 -0.9063  0.8805
 6213TIP3   OH218644   1.277   5.578   2.097  0.1440 -0.0643  0.3646
 6213TIP3    H118645   1.347   5.629   2.055 -0.6060  1.2207  0.6164
 6213TIP3    H218646   1.230   5.538   2.024 -0.4809  1.2675 -0.0055
 6214TIP3   OH218647   1.396   5.958   3.824 -0.2689  0.0301  0.3643
 6214TIP3    H118648   1.483   5.938   3.858  0.0045  0.8997  0.2061
 6214TIP3    H218649   1.404   5.946   3.730 -0.8144 -1.6208  0.5102
 6215TIP3   OH218650   3.829   3.871   3.395  0.1702 -0.0883 -0.5812
 6215TIP3    H118651   3.892   3.928   3.349  0.8290  1.6167  2.1638
 6215TIP3    H218652   3.879   3.837   3.470 -1.0438 -2.1302 -0.6454
 6216TIP3   OH218653   1.082   1.563   0.476  0.6273 -0.4173 -0.5716
 6216TIP3    H118654   1.072   1.494   0.540  0.2440  0.7298  0.6585
 6216TIP3    H218655   1.163   1.608   0.501  0.4055  0.1202 -0.8046
 6217TIP3   OH218656   0.807   0.055   0.247 -0.1363  0.0555  0.3109
 6217TIP3    H118657   0.856  -0.024   0.225  0.8168  0.6806  0.1242
 6217TIP3    H218658   0.744   0.065   0.176 -0.8060 -0.9573  0.7364
 6218TIP3   OH218659   1.808   0.346   0.709  0.1308  0.2603  0.6675
 6218TIP3    H118660   1.741   0.288   0.744  0.6831 -0.7648  0.0536
 6218TIP3    H218661   1.859   0.292   0.649 -0.0511  1.6670 -0.8305
 6219TIP3   OH218662   0.017   3.087   1.633 -0.0024 -0.0815 -0.2031
 6219TIP3    H118663   0.093   3.047   1.592  0.2857  1.5799 -1.3979
 6219TIP3    H218664   0.026   3.066   1.726  2.2475  0.5504 -0.2155
 6220TIP3   OH218665   3.240   4.037   0.626 -0.2440 -0.3970 -0.3379
 6220TIP3    H118666   3.278   4.121   0.601  0.4332 -0.7716 -0.5969
 6220TIP3    H218667   3.269   3.976   0.559  1.0285 -1.2829  0.9534
 6221TIP3   OH218668   1.322   0.541   2.729  0.4766 -0.5775 -0.0102
 6221TIP3    H118669   1.262   0.559   2.657  1.0322  1.6996  0.0306
 6221TIP3    H218670   1.267   0.536   2.807  0.2436  0.9459 -0.0543
 6222TIP3   OH218671   4.451   1.790   0.582 -0.2160  0.1214 -0.4922
 6222TIP3    H118672   4.422   1.699   0.594 -1.1553  0.4791  0.0940
 6222TIP3    H218673   4.544   1.788   0.603  0.2894 -1.1034 -2.5718
 6223TIP3   OH218674   0.230   4.151   0.381  0.4012 -0.4446 -0.2617
 6223TIP3    H118675   0.321   4.164   0.408  0.5570 -0.6376 -0.6882
 6223TIP3    H218676   0.235   4.084   0.313 -0.1998 -1.4470  0.6513
 6224TIP3   OH218677   5.992   4.499   3.714  0.2784  0.0026  0.0330
 6224TIP3    H118678   5.991   4.409   3.745 -0.7827 -0.4214 -1.1379
 6224TIP3    H218679   6.028   4.549   3.787  0.4619 -1.3021  0.8716
 6225TIP3   OH218680   6.176   1.433   1.023  0.2365  0.0582  0.0932
 6225TIP3    H118681   6.223   1.425   0.939 -2.9834 -1.5128 -1.7771
 6225TIP3    H218682   6.157   1.342   1.047 -1.4421  0.6040  0.9190
 6226TIP3   OH218683   1.455   4.206   4.453 -0.0213  0.6492  0.1889
 6226TIP3    H118684   1.493   4.208   4.541 -0.8313 -0.0225  0.5647
 6226TIP3    H218685   1.530   4.198   4.394  0.4121 -0.9307  0.9222
 6227TIP3   OH218686   1.530   2.152   1.993  0.1256  0.2339  0.0985
 6227TIP3    H118687   1.511   2.215   2.063  0.6701  1.7840 -1.0813
 6227TIP3    H218688   1.623   2.167   1.972 -0.0111 -0.2344 -0.9136
 6228TIP3   OH218689   4.879   3.788   1.001  0.2760 -0.0432  0.0258
 6228TIP3    H118690   4.900   3.761   1.091  0.4370 -0.5846 -0.1670
 6228TIP3    H218691   4.956   3.838   0.973  0.2065  0.1652  0.2042
 6229TIP3   OH218692   5.028   2.109   4.772 -0.6254 -0.3600  0.4159
 6229TIP3    H118693   5.016   2.172   4.844 -0.4260  1.4251 -1.0439
 6229TIP3    H218694   5.109   2.136   4.730 -1.9188  0.1811 -1.9124
 6230TIP3   OH218695   0.437   5.516   1.877  0.3304 -0.1479  0.3466
 6230TIP3    H118696   0.458   5.435   1.925 -0.8472 -1.3542 -1.0647
 6230TIP3    H218697   0.521   5.560   1.867  1.0672 -1.3809  0.8589
 6231TIP3   OH218698   5.632   1.115   1.346  0.1950 -0.6569 -0.1194
 6231TIP3    H118699   5.632   1.211   1.345  2.3197 -0.5774 -2.3837
 6231TIP3    H218700   5.664   1.092   1.433 -2.3383  0.5608  1.2424
 6232TIP3   OH218701   0.278   1.984   4.840  0.0030  0.0585  0.2302
 6232TIP3    H118702   0.233   2.068   4.825 -1.4282 -0.7215 -0.0324
 6232TIP3    H218703   0.254   1.960   4.929 -2.8746 -1.9017 -0.9262
 6233TIP3   OH218704   2.728   0.265   2.974  0.0018  0.3802  1.0230
 6233TIP3    H118705   2.758   0.203   2.907  2.2577  0.6781  1.6683
 6233TIP3    H218706   2.740   0.219   3.057 -1.6166  0.4572  1.3204
 6234TIP3   OH218707   6.315   4.938   3.146 -0.1186 -0.3263  0.4447
 6234TIP3    H118708   6.327   4.901   3.059 -0.9280 -2.6195  1.2316
 6234TIP3    H218709   6.223   4.921   3.168 -0.3296  1.5405  1.1875
 6235TIP3   OH218710   6.023   1.718   0.023 -0.5120  0.0731 -0.5046
 6235TIP3    H118711   6.105   1.722  -0.026 -1.0515  0.0105 -1.4204
 6235TIP3    H218712   6.004   1.625   0.030  1.6489 -0.3004  3.4101
 6236TIP3   OH218713   5.472   0.801   0.677 -0.2474 -1.0247 -0.3524
 6236TIP3    H118714   5.438   0.814   0.766 -0.3922  0.7690 -0.6356
 6236TIP3    H218715   5.400   0.826   0.620  0.9959  1.4479 -0.9527
 6237TIP3   OH218716   2.497   3.028   4.086  0.5018  0.1440 -0.1785
 6237TIP3    H118717   2.436   2.966   4.126  0.3624 -0.3765 -1.1806
 6237TIP3    H218718   2.472   3.113   4.122  0.6185 -0.3501  1.1225
 6238TIP3   OH218719   4.918   5.876   1.553 -0.3510  0.8118  0.3334
 6238TIP3    H118720   4.912   5.970   1.572 -0.0223  0.7400  0.8142
 6238TIP3    H218721   4.885   5.834   1.633 -0.4565  0.5176  0.1366
 6239TIP3   OH218722   2.932   3.348   1.298  0.2181 -0.4515 -0.1728
 6239TIP3    H118723   2.955   3.256   1.314  1.0030 -0.2441 -0.0461
 6239TIP3    H218724   3.009   3.384   1.253 -0.4960 -0.1118 -1.1629
 6240TIP3   OH218725   2.322   1.051   0.244  0.5855 -0.0404 -0.7825
 6240TIP3    H118726   2.382   0.996   0.194  2.1091  1.5257 -0.7919
 6240TIP3    H218727   2.330   1.018   0.334  1.1382 -0.1322 -0.8588
 6241TIP3   OH218728   2.516   4.755   0.225  0.0118  0.2908 -0.0843
 6241TIP3    H118729   2.571   4.812   0.171  2.2378  1.1825  2.8377
 6241TIP3    H218730   2.523   4.669   0.184  0.3680  1.1742 -1.9869
 6242TIP3   OH218731   1.251   3.964   4.839  0.3484  0.1859  0.2270
 6242TIP3    H118732   1.233   3.872   4.821 -0.7204  0.0338  1.8855
 6242TIP3    H218733   1.292   3.964   4.926  0.2739  1.2795  0.2766
 6243TIP3   OH218734   5.378   5.580   1.544 -0.6792 -0.5878 -0.1450
 6243TIP3    H118735   5.400   5.533   1.463  0.4923 -1.4000  0.6169
 6243TIP3    H218736   5.438   5.654   1.547 -0.2587 -0.9383  0.2995
 6244TIP3   OH218737   5.023   5.440   3.772  0.0806 -0.5784  0.3207
 6244TIP3    H118738   5.092   5.445   3.706 -1.4383 -0.2060 -1.2837
 6244TIP3    H218739   4.992   5.349   3.767 -0.1506 -0.5037  0.4140
 6245TIP3   OH218740   5.540   1.407   2.622 -0.0957  0.0234 -0.2124
 6245TIP3    H118741   5.555   1.327   2.572 -0.5043 -0.0651 -0.2037
 6245TIP3    H218742   5.525   1.376   2.712 -0.0560  0.1254 -0.1704
 6246TIP3   OH218743   0.815   0.197   1.520 -0.0655 -0.1051 -0.2149
 6246TIP3    H118744   0.897   0.149   1.511 -0.1684 -0.2791 -0.2295
 6246TIP3    H218745   0.817   0.231   1.609 -0.4727 -1.0323  0.1541
 6247TIP3   OH218746  -0.004   4.283   3.029  0.3010  0.1639 -0.0670
 6247TIP3    H118747  -0.028   4.343   2.959 -1.8825 -1.8641 -1.1930
 6247TIP3    H218748   0.089   4.300   3.045  0.5085  1.6723 -2.4630
 6248TIP3   OH218749   4.689   0.770   2.492  0.3144  0.1761  0.4405
 6248TIP3    H118750   4.638   0.701   2.536 -0.4981  1.0068  0.8284
 6248TIP3    H218751   4.623   0.832   2.461  1.0826  1.3307  1.0559
 6249TIP3   OH218752   2.271   4.279   2.540  0.0770  0.0166  0.1229
 6249TIP3    H118753   2.229   4.194   2.529 -0.0598  0.1310 -0.2617
 6249TIP3    H218754   2.342   4.263   2.602 -0.7899 -0.0930  1.1093
 6250TIP3   OH218755   2.816   0.080   4.879  0.4021 -0.3555  0.3481
 6250TIP3    H118756   2.810   0.131   4.798 -2.0580  1.9124  1.7803
 6250TIP3    H218757   2.772  -0.003   4.860  3.0784 -1.4567 -1.5805
 6251TIP3   OH218758   4.140   5.893   4.815 -0.3137 -0.5146  0.2705
 6251TIP3    H118759   4.164   5.920   4.904  0.8637 -1.5556  0.2908
 6251TIP3    H218760   4.099   5.970   4.777 -1.0040 -0.0938  1.7741
 6252TIP3   OH218761   3.361   4.695   0.690  1.2698  0.6734  0.1355
 6252TIP3    H118762   3.311   4.683   0.771  0.9822  0.7902 -0.0247
 6252TIP3    H218763   3.413   4.615   0.682 -2.3835 -1.7278 -2.2074
 6253TIP3   OH218764   1.297   1.429   4.677  0.1720  0.2616  0.2396
 6253TIP3    H118765   1.354   1.393   4.744 -1.8617 -2.1986  0.8121
 6253TIP3    H218766   1.268   1.513   4.711  2.0335  0.7522  0.6952
 6254TIP3   OH218767   4.585   0.634   1.661  0.1979  0.0008  0.1371
 6254TIP3    H118768   4.556   0.642   1.752 -1.2461 -0.8426 -0.2150
 6254TIP3    H218769   4.581   0.724   1.627  0.6897  0.3114  0.8700
 6255TIP3   OH218770   3.169   4.793   1.115  0.0366  0.2594  0.8999
 6255TIP3    H118771   3.088   4.802   1.164 -0.1699 -1.9166  1.0472
 6255TIP3    H218772   3.227   4.860   1.151 -0.6695 -0.1969  2.9891
 6256TIP3   OH218773   5.726   2.411   3.591  0.4982  0.0249 -0.0383
 6256TIP3    H118774   5.777   2.472   3.538 -0.6264  2.2038  1.2418
 6256TIP3    H218775   5.652   2.388   3.536 -0.1111  1.4402  0.1531
 6257TIP3   OH218776   4.488   4.654   2.103  0.1785  0.2956  0.1954
 6257TIP3    H118777   4.569   4.665   2.054  0.6824 -1.1337  0.6648
 6257TIP3    H218778   4.492   4.721   2.171 -0.0261  1.5859 -1.0238
 6258TIP3   OH218779   3.446   0.603   3.463  0.2468  0.0411  0.0055
 6258TIP3    H118780   3.451   0.581   3.556 -2.1423  0.5863  0.3395
 6258TIP3    H218781   3.478   0.693   3.458 -0.5077  0.3504  0.4904
 6259TIP3   OH218782   4.309   0.420   0.438 -0.1499  0.4970  0.0379
 6259TIP3    H118783   4.278   0.329   0.438 -1.2155  0.8349 -0.8306
 6259TIP3    H218784   4.312   0.444   0.530  0.4237 -0.5021  0.2989
 6260TIP3   OH218785   6.318   1.872   4.652  0.3156  0.1138  0.1316
 6260TIP3    H118786   6.345   1.954   4.695 -1.1957  0.0710  1.2728
 6260TIP3    H218787   6.353   1.803   4.708  0.5612  0.0089 -0.1528
 6261TIP3   OH218788   5.588   3.683   5.109  0.6988  0.3539 -0.2070
 6261TIP3    H118789   5.535   3.763   5.102 -0.9440 -0.7036 -0.5320
 6261TIP3    H218790   5.625   3.670   5.022  0.0052  0.1574 -0.4823
 6262TIP3   OH218791   0.008   0.256   2.945 -0.1454  0.1066 -1.0564
 6262TIP3    H118792   0.065   0.183   2.969 -1.5083 -1.3197 -1.9510
 6262TIP3    H218793  -0.012   0.298   3.029 -1.2243 -2.0357 -0.1516
 6263TIP3   OH218794   4.254   4.454   4.499  0.4518 -0.3923  0.2381
 6263TIP3    H118795   4.287   4.364   4.487 -1.4203 -0.8765 -2.1078
 6263TIP3    H218796   4.163   4.443   4.525 -0.5711  0.7120 -2.5207
 6264TIP3   OH218797   4.847   3.513   3.832 -0.2048  0.2088 -0.3461
 6264TIP3    H118798   4.912   3.576   3.863 -0.0871  0.6032 -1.3563
 6264TIP3    H218799   4.883   3.480   3.749 -0.8181 -0.3146 -0.4091
 6265TIP3   OH218800   4.435   5.784   1.197 -0.9121  0.0724  0.2947
 6265TIP3    H118801   4.429   5.871   1.157 -0.2418  0.2238  0.5072
 6265TIP3    H218802   4.514   5.745   1.158  0.1087  0.4556  1.8947
 6266TIP3   OH218803   2.028   3.844   1.139 -0.0850 -0.4893  0.1813
 6266TIP3    H118804   1.943   3.802   1.153 -0.0999  0.0147  1.6871
 6266TIP3    H218805   2.077   3.781   1.085 -1.0384 -1.2416  0.1778
 6267TIP3   OH218806   5.010   5.498   1.057  0.1266 -0.0488  0.0417
 6267TIP3    H118807   4.987   5.591   1.047  1.6896  0.5081  1.1329
 6267TIP3    H218808   5.066   5.479   0.983  0.1538  0.0002  0.0497
 6268TIP3   OH218809   1.572   5.061   1.401  0.4407  0.1218 -0.8478
 6268TIP3    H118810   1.495   5.008   1.382 -0.1641  0.5057  0.4108
 6268TIP3    H218811   1.645   5.014   1.360 -0.1741 -1.3141 -0.3531
 6269TIP3   OH218812   5.827   5.497   2.056 -0.2612  0.1345 -0.1590
 6269TIP3    H118813   5.858   5.555   2.125  0.5365  0.2119 -0.5758
 6269TIP3    H218814   5.750   5.541   2.021  1.2626  1.7994 -1.5713
 6270TIP3   OH218815   3.170   3.954   3.499  0.3916 -0.0033  0.2961
 6270TIP3    H118816   3.236   4.002   3.548  0.8798  0.3147 -0.6529
 6270TIP3    H218817   3.097   4.015   3.491  1.4607  1.0967 -1.9384
 6271TIP3   OH218818   3.545   3.755   0.597  0.3007 -0.0759  0.1557
 6271TIP3    H118819   3.557   3.661   0.614  0.8338 -0.3602 -1.6331
 6271TIP3    H218820   3.634   3.789   0.587  0.0698  0.4213 -0.2414
 6272TIP3   OH218821   0.434   5.618   2.922 -0.0617 -0.3773  0.4788
 6272TIP3    H118822   0.420   5.582   2.834 -0.6592 -1.1435  0.8798
 6272TIP3    H218823   0.346   5.631   2.957  0.1744 -1.1111  1.3721
 6273TIP3   OH218824   4.336   0.553   4.410  0.1571  0.5250 -0.0023
 6273TIP3    H118825   4.269   0.615   4.439 -1.5631 -1.1743 -0.1595
 6273TIP3    H218826   4.289   0.489   4.356  1.8123 -1.0351  0.2805
 6274TIP3   OH218827   3.505   3.397   4.676  0.2814  0.0633  0.0091
 6274TIP3    H118828   3.436   3.351   4.628 -0.4514  0.2320  0.8688
 6274TIP3    H218829   3.508   3.484   4.636  1.5135 -0.6100 -1.4663
 6275TIP3   OH218830   5.807   2.200   4.693 -0.2383 -0.2856 -0.3281
 6275TIP3    H118831   5.839   2.110   4.686  2.5094  0.3682  1.9501
 6275TIP3    H218832   5.867   2.251   4.640 -0.1436  0.5041  0.5260
 6276TIP3   OH218833   4.227   5.735   0.559  0.3500 -0.3085  0.1373
 6276TIP3    H118834   4.320   5.716   0.573  0.5956  1.1002  0.5985
 6276TIP3    H218835   4.224   5.829   0.546 -0.8405 -0.5488 -1.6166
 6277TIP3   OH218836   1.566   4.369   0.964 -0.5612  0.0831 -0.1668
 6277TIP3    H118837   1.625   4.314   0.914 -1.3113  0.6466 -1.7452
 6277TIP3    H218838   1.500   4.309   0.998 -0.1680 -0.2794 -0.0395
 6278TIP3   OH218839   1.884   1.045   3.573  0.3989  0.2688  0.1255
 6278TIP3    H118840   1.852   1.122   3.621  1.0151  0.7625 -0.2469
 6278TIP3    H218841   1.972   1.069   3.545  1.2528 -1.1939  1.4096
 6279TIP3   OH218842   6.304   0.941   2.907  0.1989 -0.3507  0.5468
 6279TIP3    H118843   6.363   1.006   2.946  0.6819 -0.4593  0.0110
 6279TIP3    H218844   6.289   0.877   2.976 -1.4198  1.0447  1.5704
 6280TIP3   OH218845   5.063   0.236   2.478  0.6185  0.0318 -0.0231
 6280TIP3    H118846   4.994   0.170   2.485 -0.5514  1.3534  1.6771
 6280TIP3    H218847   5.044   0.281   2.395 -0.3489  0.1117  0.2243
 6281TIP3   OH218848   3.195   3.373   1.514  0.2485 -0.1977  0.0063
 6281TIP3    H118849   3.111   3.332   1.537  0.1449  0.4104  0.7507
 6281TIP3    H218850   3.226   3.410   1.596  0.0643  1.7339 -0.7506
 6282TIP3   OH218851   0.620   4.574   3.570  0.1704  0.1608  0.0073
 6282TIP3    H118852   0.525   4.565   3.574  0.2003 -0.3843 -0.3664
 6282TIP3    H218853   0.650   4.548   3.657  0.0585 -0.9296 -0.2567
 6283TIP3   OH218854   1.635   0.650   4.884 -0.1931 -0.0846  0.3952
 6283TIP3    H118855   1.651   0.646   4.789 -1.0542 -1.3442  0.2893
 6283TIP3    H218856   1.718   0.624   4.923 -0.1105 -0.4588 -0.0216
 6284TIP3   OH218857   1.584   0.636   0.077  0.2440  0.2113 -0.4342
 6284TIP3    H118858   1.583   0.545   0.107 -0.4525  0.4459  0.3045
 6284TIP3    H218859   1.607   0.687   0.155  0.9933  0.6440 -0.9325
 6285TIP3   OH218860   4.728   0.833   4.237  0.1282 -0.3126 -0.2755
 6285TIP3    H118861   4.758   0.919   4.208  2.0930 -0.8532 -0.0098
 6285TIP3    H218862   4.640   0.849   4.271  1.4368  2.1477  2.3517
 6286TIP3   OH218863   5.827   1.864   1.169 -0.7698 -0.3248 -0.1901
 6286TIP3    H118864   5.859   1.787   1.216  0.5998  0.1262 -0.3239
 6286TIP3    H218865   5.759   1.901   1.225  1.4640  0.7509  1.9900
 6287TIP3   OH218866   4.605   1.883   3.223 -0.1303 -0.2878  0.0386
 6287TIP3    H118867   4.574   1.800   3.257  1.7204 -0.4380  1.4631
 6287TIP3    H218868   4.635   1.932   3.299 -0.8432  1.5858 -0.7934
 6288TIP3   OH218869   0.620   0.250   4.414  0.8885 -0.2423 -0.7642
 6288TIP3    H118870   0.671   0.331   4.412 -0.2695  0.5698  0.2413
 6288TIP3    H218871   0.659   0.199   4.485 -1.4163  1.7008  2.1570
 6289TIP3   OH218872   3.307   0.013   0.055 -0.3462  0.0293  0.3001
 6289TIP3    H118873   3.402   0.004   0.052 -0.4235 -0.8731  0.2263
 6289TIP3    H218874   3.290   0.106   0.039  0.5054  0.1375  0.0309
 6290TIP3   OH218875   0.806   5.532   3.059 -0.0035 -0.5491  0.1321
 6290TIP3    H118876   0.736   5.571   3.006 -0.7662 -1.0255  0.7743
 6290TIP3    H218877   0.785   5.439   3.061 -0.3994 -0.4452  1.8664
 6291TIP3   OH218878   0.880   0.129   5.044  0.1943  0.1763  0.4928
 6291TIP3    H118879   0.898   0.185   4.968  0.1899 -0.2181  0.2006
 6291TIP3    H218880   0.899   0.185   5.120  0.4856  0.4775  0.2007
 6292TIP3   OH218881   0.400   5.504   2.224  0.2417  0.4036 -0.2590
 6292TIP3    H118882   0.433   5.509   2.314  0.3431  2.5087 -0.3772
 6292TIP3    H218883   0.307   5.485   2.234  0.2128  0.8215  0.2987
 6293TIP3   OH218884   5.546   3.801   2.178  0.1381  0.0484  0.4051
 6293TIP3    H118885   5.499   3.719   2.165  1.6884 -1.1830  1.9842
 6293TIP3    H218886   5.511   3.836   2.260 -0.1875  0.7434 -0.0220
 6294TIP3   OH218887   2.988   5.377   4.520  0.7797 -0.1944  0.1874
 6294TIP3    H118888   2.902   5.417   4.529  0.7496 -0.1100 -0.4043
 6294TIP3    H218889   3.033   5.396   4.602  0.8963  1.3872 -0.2095
 6295TIP3   OH218890   1.633   1.364   4.008 -0.0661 -0.1896 -0.1785
 6295TIP3    H118891   1.615   1.406   4.093  0.4320 -1.0690  0.3800
 6295TIP3    H218892   1.569   1.294   4.002 -0.3496  0.1126 -0.7214
 6296TIP3   OH218893   1.608   3.960   2.823  0.2299  0.2259 -0.0923
 6296TIP3    H118894   1.671   3.960   2.751 -0.6517 -0.6084 -0.8887
 6296TIP3    H218895   1.567   4.046   2.820 -1.4711 -0.5876 -2.1200
 6297TIP3   OH218896   4.891   3.843   4.048  0.1115  0.0363  0.5088
 6297TIP3    H118897   4.826   3.788   4.092 -0.3697 -0.5384 -0.8636
 6297TIP3    H218898   4.944   3.782   3.998 -0.6251  0.7963 -1.2993
 6298TIP3   OH218899   2.828   3.568   1.436 -0.2931  0.3929  0.2018
 6298TIP3    H118900   2.860   3.541   1.522 -0.7222 -0.9427 -0.0362
 6298TIP3    H218901   2.837   3.490   1.381  0.9794  1.5316 -1.2762
 6299TIP3   OH218902   1.123   2.369   0.967 -0.0409  0.2135  0.3162
 6299TIP3    H118903   1.127   2.389   0.873 -0.0494  0.1076  0.2933
 6299TIP3    H218904   1.059   2.298   0.974  0.3075 -0.1043  0.3474
 6300TIP3   OH218905   2.050   4.796   1.821 -0.7049  0.1713 -0.1677
 6300TIP3    H118906   1.993   4.785   1.745 -0.6800 -0.5080 -0.0916
 6300TIP3    H218907   2.035   4.886   1.849 -0.6991  0.4447 -0.9895
 6301TIP3   OH218908   5.374   2.592   4.830 -0.5808  0.6587  0.0003
 6301TIP3    H118909   5.305   2.526   4.840 -1.4804  1.5119 -0.3657
 6301TIP3    H218910   5.415   2.597   4.916 -1.8107  1.0147  0.5990
 6302TIP3   OH218911   4.989   5.079  -0.006  0.3485 -0.3497 -0.1094
 6302TIP3    H118912   4.991   5.132   0.074 -1.1434 -0.4920  0.0517
 6302TIP3    H218913   4.966   4.991   0.024 -0.1493 -0.4207 -0.6643
 6303TIP3   OH218914   1.698   3.688   3.633 -0.8330  0.5675 -0.1985
 6303TIP3    H118915   1.663   3.625   3.571 -1.6149  3.6780 -3.2363
 6303TIP3    H218916   1.631   3.695   3.701 -0.1480 -2.6060  0.9816
 6304TIP3   OH218917   4.711   3.614   2.717 -0.1268 -0.0289  0.1234
 6304TIP3    H118918   4.790   3.656   2.753  0.6620 -1.8849  0.7131
 6304TIP3    H218919   4.691   3.544   2.780 -2.0081  0.1137 -0.2579
 6305TIP3   OH218920   0.827   1.518   0.005  1.0789 -0.5927 -0.0951
 6305TIP3    H118921   0.759   1.474   0.055  1.7867 -2.1379 -0.4557
 6305TIP3    H218922   0.784   1.595  -0.031  0.2595 -0.0276  1.9357
 6306TIP3   OH218923   3.311   1.163   1.399  0.3670 -0.3580 -0.4972
 6306TIP3    H118924   3.266   1.106   1.461  0.5813  0.3949  0.3661
 6306TIP3    H218925   3.374   1.211   1.452  1.3604 -0.5367 -1.4984
 6307TIP3   OH218926   3.980   3.837   0.784  0.2024 -0.9876  0.2498
 6307TIP3    H118927   4.026   3.755   0.801  1.0315 -0.2265  1.8522
 6307TIP3    H218928   3.955   3.869   0.870  1.2999  1.2073 -0.1850
 6308TIP3   OH218929   1.756   4.480   0.298  0.1716 -0.0688  0.2155
 6308TIP3    H118930   1.823   4.417   0.328  1.1080  0.3323 -0.9272
 6308TIP3    H218931   1.746   4.460   0.205  1.2407  2.1032 -0.4196
 6309TIP3   OH218932   4.611   1.174   1.456 -0.3117  0.3337  0.8443
 6309TIP3    H118933   4.650   1.184   1.369  1.0860 -2.3882  1.0444
 6309TIP3    H218934   4.664   1.231   1.513  1.1314 -0.6083  0.4886
 6310TIP3   OH218935   0.133   4.663   2.649  0.2541 -0.1446 -0.3496
 6310TIP3    H118936   0.044   4.643   2.619 -0.2114 -0.3715  1.1065
 6310TIP3    H218937   0.157   4.589   2.705  2.1055 -0.9955 -2.1648
 6311TIP3   OH218938   2.007   5.802   3.150 -0.1126  0.8020  0.2046
 6311TIP3    H118939   1.967   5.816   3.064 -0.2155  1.1850  0.3153
 6311TIP3    H218940   2.027   5.890   3.182 -1.5504  0.7824  1.2690
 6312TIP3   OH218941   4.271   0.508   3.824  0.4447 -0.0197  0.6000
 6312TIP3    H118942   4.346   0.565   3.806  0.3018 -0.5743 -2.2206
 6312TIP3    H218943   4.292   0.426   3.779 -1.5635 -0.4059  0.2934
 6313TIP3   OH218944   5.678   4.586   4.670  0.0010  0.2762  0.3673
 6313TIP3    H118945   5.760   4.613   4.711  0.2631  0.6862 -0.4113
 6313TIP3    H218946   5.615   4.584   4.742  0.6657  0.0325  0.9626
 6314TIP3   OH218947   5.824   3.043   3.765  0.0247 -0.4405 -0.0345
 6314TIP3    H118948   5.743   3.085   3.735  1.8055  0.5639 -4.1350
 6314TIP3    H218949   5.875   3.030   3.685  2.8070 -3.6220  1.9842
 6315TIP3   OH218950   1.940   1.079   4.479 -0.6863  0.2167  0.1054
 6315TIP3    H118951   1.949   1.082   4.384 -1.2519 -1.1511 -0.0159
 6315TIP3    H218952   1.913   1.167   4.504  2.8380  1.6579 -0.5659
 6316TIP3   OH218953   0.983   2.424   1.907  0.0280 -0.0759  0.4481
 6316TIP3    H118954   1.000   2.334   1.934 -0.0812 -0.1628  0.2376
 6316TIP3    H218955   0.892   2.440   1.933  0.0841  0.0148  0.5911
 6317TIP3   OH218956   0.409   2.849   2.264  0.0475 -0.2684 -0.9222
 6317TIP3    H118957   0.479   2.914   2.252  0.4615 -0.5285  0.0060
 6317TIP3    H218958   0.403   2.804   2.180  0.8012 -0.0540 -1.0940
 6318TIP3   OH218959   0.425   4.122   3.651  0.0008 -0.2192  0.1718
 6318TIP3    H118960   0.515   4.088   3.654  0.2796  0.5105  0.3927
 6318TIP3    H218961   0.373   4.057   3.697  0.2507 -1.1323 -0.7907
 6319TIP3   OH218962   6.201   4.722   5.056 -0.1018  0.8374 -0.0533
 6319TIP3    H118963   6.271   4.676   5.009 -0.3848 -0.8188  1.0579
 6319TIP3    H218964   6.192   4.805   5.009  1.7828  0.6042 -0.9503
 6320TIP3   OH218965   0.667   3.711   0.425  0.5289 -0.2678  0.2602
 6320TIP3    H118966   0.755   3.680   0.404  0.7143  0.7163 -0.4811
 6320TIP3    H218967   0.616   3.630   0.438  1.3392 -0.8599 -0.1326
 6321TIP3   OH218968   0.470   0.617   1.434  0.2099 -0.5611 -0.3588
 6321TIP3    H118969   0.527   0.542   1.455 -1.3387 -1.7677 -0.2470
 6321TIP3    H218970   0.462   0.615   1.339 -0.1067 -0.7436 -0.3275
 6322TIP3   OH218971   3.561   0.356   0.599 -0.0370 -0.0235 -0.3059
 6322TIP3    H118972   3.637   0.300   0.584 -0.0655 -0.1982  0.1612
 6322TIP3    H218973   3.597   0.436   0.637 -0.2120 -0.7943  1.6173
 6323TIP3   OH218974   5.268   2.490   3.309 -0.2599 -0.5138 -0.4648
 6323TIP3    H118975   5.232   2.492   3.398  0.9690 -0.1972  0.0491
 6323TIP3    H218976   5.238   2.572   3.270 -2.2924 -1.4301 -1.0027
 6324TIP3   OH218977   1.838   1.276   0.651 -0.2108  0.0612  0.3365
 6324TIP3    H118978   1.794   1.281   0.566 -2.8768 -0.3579  1.5884
 6324TIP3    H218979   1.852   1.182   0.665  0.2581  0.1333  0.3589
 6325TIP3   OH218980   5.513   5.224   0.286 -0.3510 -0.0284 -0.7756
 6325TIP3    H118981   5.572   5.300   0.281 -0.7159  0.5838  2.2770
 6325TIP3    H218982   5.568   5.150   0.260  0.9600  0.8863 -0.7344
 6326TIP3   OH218983   1.917   2.417   3.908  0.2349  0.1313  0.1999
 6326TIP3    H118984   1.824   2.428   3.890 -0.2252  0.3340  2.4051
 6326TIP3    H218985   1.941   2.337   3.861 -0.7920  0.6238 -1.2100
 6327TIP3   OH218986   4.246   3.864   0.673  0.4054 -0.1014 -0.0458
 6327TIP3    H118987   4.158   3.878   0.707  0.2469 -0.9665 -0.0913
 6327TIP3    H218988   4.303   3.909   0.736 -0.0420  0.2386  0.1245
 6328TIP3   OH218989   4.134   4.983   2.874 -0.1741 -0.3731  0.1578
 6328TIP3    H118990   4.191   4.974   2.798  0.6231  0.4087  0.6477
 6328TIP3    H218991   4.104   4.894   2.891 -0.9861 -0.4529 -1.5223
 6329TIP3   OH218992   0.073   0.804   4.712  0.3219  0.4409 -0.6600
 6329TIP3    H118993   0.131   0.829   4.784  0.6490 -1.1375 -0.3460
 6329TIP3    H218994   0.101   0.860   4.639  3.0448 -0.9652 -0.8428
 6330TIP3   OH218995   6.128   5.811   0.714 -0.4574  0.0784  0.4261
 6330TIP3    H118996   6.045   5.821   0.668  0.4053 -0.4935 -1.4022
 6330TIP3    H218997   6.191   5.860   0.659  0.6324 -0.6306  1.0103
 6331TIP3   OH218998   1.885   5.568   0.726 -0.0301 -0.0104 -0.5248
 6331TIP3    H118999   1.861   5.615   0.806  1.7873 -0.3699  0.2922
 6331TIP3    H219000   1.900   5.636   0.661  2.2082  0.6145  0.5404
 6332TIP3   OH219001   1.233   1.951   1.170  0.1642  0.2765 -0.1720
 6332TIP3    H119002   1.148   1.949   1.213  0.4684 -1.1780  0.4290
 6332TIP3    H219003   1.268   1.862   1.181  1.7542  0.8295 -0.4017
 6333TIP3   OH219004   6.339   3.582   3.041 -0.1142  0.3512  0.2320
 6333TIP3    H119005   6.259   3.635   3.040  0.1333  0.7255 -0.6882
 6333TIP3    H219006   6.409   3.645   3.026  0.0951 -0.3214 -2.0627
 6334TIP3   OH219007   0.971   2.693   0.974  0.0031  0.2659 -0.8149
 6334TIP3    H119008   1.049   2.640   0.991 -0.0919  0.2072 -0.5625
 6334TIP3    H219009   0.962   2.691   0.878 -0.7487 -1.2590 -0.7497
 6335TIP3   OH219010   6.351   2.933   2.838 -0.4111 -0.4260  0.1897
 6335TIP3    H119011   6.261   2.952   2.812  0.3252  0.2291 -2.0695
 6335TIP3    H219012   6.381   3.013   2.881 -0.6917 -0.4345  0.4090
 6336TIP3   OH219013   3.538   4.076   0.062  0.3307  0.3459 -0.3755
 6336TIP3    H119014   3.539   4.165   0.097 -1.0087  0.2376 -0.0130
 6336TIP3    H219015   3.479   4.081  -0.014  1.4864  0.0988 -1.3258
 6337TIP3   OH219016   1.218   0.449   0.883  0.3262  0.3953  0.0375
 6337TIP3    H119017   1.294   0.411   0.927  1.6821 -0.4050 -2.7849
 6337TIP3    H219018   1.148   0.446   0.949  1.8617 -1.8400  1.6980
 6338TIP3   OH219019   5.622   3.588   4.846  0.1025  0.2232  0.1267
 6338TIP3    H119020   5.630   3.493   4.843  0.1989  0.2426 -0.2643
 6338TIP3    H219021   5.662   3.618   4.764 -0.1686  0.5812  0.1243
 6339TIP3   OH219022   5.129   5.432   0.260 -0.1041  0.7209 -0.2029
 6339TIP3    H119023   5.148   5.338   0.266 -0.7069  0.6956  2.1676
 6339TIP3    H219024   5.044   5.436   0.215 -0.2453  0.1003 -0.0097
 6340TIP3   OH219025   5.412   5.115   3.728  0.0822 -1.0141  0.1581
 6340TIP3    H119026   5.324   5.130   3.763 -0.0306  0.9275 -0.8058
 6340TIP3    H219027   5.411   5.024   3.699 -1.8798 -0.8175 -0.5605
 6341TIP3   OH219028   5.667   5.639   1.353  0.2423 -0.4001 -0.4730
 6341TIP3    H119029   5.632   5.678   1.433 -0.1555  0.2458 -0.9574
 6341TIP3    H219030   5.717   5.563   1.383 -0.1621 -0.3407  0.3624
 6342TIP3   OH219031   0.688   1.255   3.846  0.5879  0.0211 -0.0114
 6342TIP3    H119032   0.669   1.215   3.931 -0.0745  2.0564  0.8470
 6342TIP3    H219033   0.772   1.298   3.858 -0.2641  1.7148  0.1864
 6343TIP3   OH219034   0.120   5.233   2.411 -0.5496 -0.8754  0.4635
 6343TIP3    H119035   0.215   5.228   2.401 -0.6748 -0.5257 -1.1958
 6343TIP3    H219036   0.086   5.165   2.354 -1.3248 -0.4388  0.3870
 6344TIP3   OH219037   4.650   1.616   3.324  0.9992  0.0722  0.1192
 6344TIP3    H119038   4.607   1.583   3.245 -0.8513  0.4110  0.9236
 6344TIP3    H219039   4.698   1.541   3.358  1.4933 -0.1868 -1.0887
 6345TIP3   OH219040   2.669   0.312   0.981 -0.9116 -0.3003 -0.3102
 6345TIP3    H119041   2.719   0.326   0.900 -1.4654  1.8575 -0.3305
 6345TIP3    H219042   2.588   0.363   0.968  0.0736  2.2822  2.5513
 6346TIP3   OH219043   3.454   1.482   2.888 -0.2052 -0.3002  0.0216
 6346TIP3    H119044   3.444   1.409   2.948  0.2887 -0.6854 -0.3598
 6346TIP3    H219045   3.477   1.442   2.804  0.3111  0.3070 -0.1331
 6347TIP3   OH219046   1.990   1.916   0.756  0.6921  0.1449 -0.4324
 6347TIP3    H119047   2.062   1.893   0.697  0.0073  2.6322 -2.4040
 6347TIP3    H219048   1.957   1.999   0.722 -2.0165 -0.0556  1.4410
 6348TIP3   OH219049   6.286   5.212   0.993  0.1676  0.0939 -0.0910
 6348TIP3    H119050   6.330   5.275   0.936  1.4591  0.3523  1.1242
 6348TIP3    H219051   6.354   5.149   1.015 -1.1873 -2.0110 -1.5875
 6349TIP3   OH219052   2.184   1.602   1.137  0.3314  0.2677 -0.1636
 6349TIP3    H119053   2.272   1.584   1.106  0.3319  1.0396 -0.6516
 6349TIP3    H219054   2.127   1.546   1.084  0.4929  0.1396 -0.1992
 6350TIP3   OH219055   6.198   0.919   4.815  0.1264 -0.2133  0.0994
 6350TIP3    H119056   6.265   0.877   4.762  0.5774  0.0821  0.4245
 6350TIP3    H219057   6.116   0.899   4.771  0.3953 -0.8776 -0.1103
 6351TIP3   OH219058   1.214   4.736   1.622  0.0015 -0.1514  0.5165
 6351TIP3    H119059   1.163   4.658   1.604  1.1450 -0.4859 -1.6181
 6351TIP3    H219060   1.303   4.715   1.592  0.2152  2.1352 -0.7252
 6352TIP3   OH219061   0.238   2.548   4.002  0.0883  0.2899 -0.0511
 6352TIP3    H119062   0.269   2.463   3.971 -0.0107  0.6779 -1.2742
 6352TIP3    H219063   0.316   2.590   4.037  0.4037  0.1807 -0.5961
 6353TIP3   OH219064   5.878   1.361   1.678  0.5855 -0.0925 -0.2710
 6353TIP3    H119065   5.936   1.377   1.753 -0.6214  1.9366  0.3187
 6353TIP3    H219066   5.805   1.311   1.715  1.5361 -1.9864 -0.8514
 6354TIP3   OH219067   0.537   0.835   0.288  0.3009  0.0616  0.1340
 6354TIP3    H119068   0.616   0.848   0.340  1.0888 -0.9488 -0.7670
 6354TIP3    H219069   0.565   0.779   0.216 -1.7009 -2.1913  0.9693
 6355TIP3   OH219070   3.618   0.908   0.077 -0.4329  0.3437 -0.5419
 6355TIP3    H119071   3.645   0.894  -0.013  2.5223  3.1449 -0.2988
 6355TIP3    H219072   3.659   0.836   0.126  0.4856  0.4522 -1.1252
 6356TIP3   OH219073   4.808   5.753   1.786 -0.2146 -0.3597  0.2329
 6356TIP3    H119074   4.810   5.810   1.863 -0.4815 -1.6414  1.2200
 6356TIP3    H219075   4.718   5.759   1.754 -0.6739 -1.3862  1.2626
 6357TIP3   OH219076   5.251   0.585   1.273  0.1434  0.4148  0.1757
 6357TIP3    H119077   5.324   0.594   1.335  0.1475  1.4759  0.0441
 6357TIP3    H219078   5.216   0.674   1.265  1.3226  0.7147 -2.7820
 6358TIP3   OH219079   2.729   1.753   1.630  0.1259 -0.3647 -0.7363
 6358TIP3    H119080   2.735   1.668   1.674  0.9650 -0.8235 -1.7186
 6358TIP3    H219081   2.668   1.738   1.557  0.5658 -0.2265 -1.1355
 6359TIP3   OH219082   1.415   2.362   0.751  0.0348 -0.1897 -0.7988
 6359TIP3    H119083   1.428   2.412   0.831  0.0654  0.9161 -1.4691
 6359TIP3    H219084   1.327   2.325   0.759  0.8383 -1.9106  0.6839
 6360TIP3   OH219085   5.210   4.257   0.060 -0.8892  0.0804  0.2233
 6360TIP3    H119086   5.183   4.337   0.015 -0.9870  0.0376  0.2059
 6360TIP3    H219087   5.138   4.238   0.120 -1.7974 -1.0971 -1.1878
 6361TIP3   OH219088   0.981   1.065   4.795  0.3245 -0.3663  0.1041
 6361TIP3    H119089   1.021   0.982   4.821  1.4552 -0.1183 -0.7695
 6361TIP3    H219090   0.927   1.044   4.719  0.7995 -0.2583 -0.2622
 6362TIP3   OH219091   2.333   2.362   0.671  0.2095 -0.2879 -0.7043
 6362TIP3    H119092   2.275   2.366   0.747 -0.2342  0.6214 -1.0781
 6362TIP3    H219093   2.343   2.268   0.654  1.8760 -0.6246  1.6319
 6363TIP3   OH219094   4.500   5.642   0.489  0.1265 -0.4649  0.2087
 6363TIP3    H119095   4.533   5.732   0.481 -2.3772  0.3691 -3.6249
 6363TIP3    H219096   4.549   5.593   0.423 -0.0407 -1.3877  0.7654
 6364TIP3   OH219097   4.273   4.491   3.504 -0.1201  0.1473  0.5727
 6364TIP3    H119098   4.205   4.558   3.510 -0.2193  0.0144  0.9930
 6364TIP3    H219099   4.285   4.477   3.410  0.1152  0.9630  0.4800
 6365TIP3   OH219100   5.838   4.243   1.344  0.2288 -0.3622  1.0643
 6365TIP3    H119101   5.929   4.269   1.357  0.7140 -0.6577 -1.3204
 6365TIP3    H219102   5.841   4.177   1.274 -1.7590 -0.8173  1.3367
 6366TIP3   OH219103   1.546   3.019   4.173  0.0094 -0.7993 -0.3592
 6366TIP3    H119104   1.483   3.038   4.103 -0.6990 -1.1507  0.1693
 6366TIP3    H219105   1.608   3.092   4.170 -1.0072  0.0970 -0.2298
 6367TIP3   OH219106   0.787   1.590   3.735 -0.9271  0.0117 -0.0138
 6367TIP3    H119107   0.773   1.521   3.670  1.6333  0.3696 -1.0601
 6367TIP3    H219108   0.819   1.543   3.812  0.5093 -0.0465 -0.6185
 6368TIP3   OH219109   3.456   0.855   4.447  0.2519  0.3746 -0.0096
 6368TIP3    H119110   3.454   0.777   4.503 -0.9715  0.4015 -0.0022
 6368TIP3    H219111   3.479   0.823   4.360  0.4958  0.1165  0.1488
 6369TIP3   OH219112   2.225   2.533   4.340 -0.1730  0.0228 -0.2798
 6369TIP3    H119113   2.314   2.564   4.358 -0.1975 -0.2207  0.2923
 6369TIP3    H219114   2.189   2.515   4.427 -0.8154  0.2115 -0.5056
 6370TIP3   OH219115   2.529   4.480   0.502 -0.1831 -0.4487  0.0200
 6370TIP3    H119116   2.536   4.486   0.407 -1.1055  2.1441  0.0572
 6370TIP3    H219117   2.448   4.526   0.524  1.2183  1.2036  2.2223
 6371TIP3   OH219118   5.275   3.777   0.403  0.0861  0.6366 -0.0191
 6371TIP3    H119119   5.239   3.793   0.316  2.3666 -0.1529 -1.1813
 6371TIP3    H219120   5.253   3.856   0.453 -1.5358  0.9686 -1.1837
 6372TIP3   OH219121   0.631   1.312   2.118 -0.2927 -0.5577  0.4694
 6372TIP3    H119122   0.559   1.297   2.180 -0.3843 -0.2659  0.4369
 6372TIP3    H219123   0.681   1.383   2.157 -0.7409  0.0905 -0.1255
 6373TIP3   OH219124   3.138   0.721   5.042  0.1707 -0.1746  0.4157
 6373TIP3    H119125   3.148   0.652   4.976 -0.2219 -0.4408  0.6353
 6373TIP3    H219126   3.102   0.677   5.118 -2.4149  0.6849 -0.2153
 6374TIP3   OH219127   5.272   1.317   0.266  0.0945  0.3081 -0.3139
 6374TIP3    H119128   5.292   1.371   0.342  0.5121  0.3267 -0.4341
 6374TIP3    H219129   5.337   1.247   0.269 -0.9210 -0.6451  0.2797
 6375TIP3   OH219130   4.948   0.395   0.853  0.1040 -0.0712  0.1321
 6375TIP3    H119131   4.914   0.309   0.827 -1.6843  0.5094  0.4046
 6375TIP3    H219132   5.030   0.376   0.898  0.5457 -1.5050 -1.2019
 6376TIP3   OH219133   1.385   2.805   1.640 -0.0947 -0.1032  0.0455
 6376TIP3    H119134   1.327   2.731   1.655 -0.7347  0.6206  1.2971
 6376TIP3    H219135   1.456   2.794   1.704 -0.5339  0.6852  0.6848
 6377TIP3   OH219136   0.853   3.119   2.546  0.0336  0.4300  0.0899
 6377TIP3    H119137   0.926   3.058   2.537  0.1479  0.6860 -0.7438
 6377TIP3    H219138   0.815   3.097   2.631  0.3325 -0.5190 -0.0076
 6378TIP3   OH219139   1.899   3.983   0.644  0.3558  0.6265  0.3827
 6378TIP3    H119140   1.888   3.939   0.728  1.4055 -0.2643  0.0719
 6378TIP3    H219141   1.959   4.055   0.662  1.8180 -0.4714  0.1431
 6379TIP3   OH219142   1.507   0.148   2.612 -0.1660  0.7505 -0.8727
 6379TIP3    H119143   1.479   0.061   2.584 -1.9587  0.6795  0.9205
 6379TIP3    H219144   1.490   0.204   2.537  1.7855 -0.5106 -2.3549
 6380TIP3   OH219145   5.061   4.957   3.483  0.2192  0.0489 -0.5531
 6380TIP3    H119146   5.009   4.960   3.402  0.8112  0.0885 -0.9343
 6380TIP3    H219147   5.088   5.048   3.498 -0.2904  0.1242 -0.0391
 6381TIP3   OH219148   0.410   2.013   3.003  0.2664  0.4358  0.3404
 6381TIP3    H119149   0.378   2.089   2.954  0.1108 -0.2855 -0.7244
 6381TIP3    H219150   0.400   1.939   2.942 -0.9054 -0.6989  1.8313
 6382TIP3   OH219151   1.729   3.221   3.479 -0.0842  0.3984  0.1776
 6382TIP3    H119152   1.800   3.164   3.509  0.5279  0.7703 -0.5334
 6382TIP3    H219153   1.761   3.257   3.397 -0.7047  1.3276  0.3347
 6383TIP3   OH219154   1.180   4.975   0.193 -0.6285 -0.2642  0.4600
 6383TIP3    H119155   1.224   4.928   0.263 -2.1584 -0.6908  1.1832
 6383TIP3    H219156   1.157   5.060   0.231 -1.3468 -0.4460  0.4566
 6384TIP3   OH219157   1.477   1.342   4.447  0.0093 -0.2313  0.0211
 6384TIP3    H119158   1.411   1.366   4.512 -1.2625 -2.2615 -0.4371
 6384TIP3    H219159   1.483   1.246   4.453  1.8309 -0.2276 -0.9994
 6385TIP3   OH219160   3.420   4.048   1.290  0.0438  0.1856 -0.3828
 6385TIP3    H119161   3.421   4.020   1.382  0.7280  1.6969  0.0972
 6385TIP3    H219162   3.512   4.059   1.267 -0.1810  1.2373 -0.7955
 6386TIP3   OH219163   2.548   4.004   0.363 -0.1323  0.0416 -0.0214
 6386TIP3    H119164   2.605   3.989   0.438  0.6341 -0.7991 -0.7491
 6386TIP3    H219165   2.489   4.075   0.391  0.7166  0.3511  1.0390
 6387TIP3   OH219166   2.848   5.591   1.105  0.5519  0.0555 -0.0294
 6387TIP3    H119167   2.796   5.513   1.121 -0.2396  0.0188 -2.4888
 6387TIP3    H219168   2.930   5.575   1.153  0.0314 -1.8348  0.2986
 6388TIP3   OH219169   0.541   0.349   2.326 -0.1369  0.8410  0.1735
 6388TIP3    H119170   0.549   0.255   2.345  1.2785  0.6991 -0.9850
 6388TIP3    H219171   0.598   0.391   2.390 -0.4612  0.8909  0.4336
 6389TIP3   OH219172   0.490   3.161   2.563 -0.0413  1.0346 -0.1835
 6389TIP3    H119173   0.468   3.100   2.493  0.7481  1.4073 -0.7696
 6389TIP3    H219174   0.414   3.160   2.621 -1.8851  2.6788 -2.3822
 6390TIP3   OH219175   1.152   4.540   3.309  0.7337 -0.2562 -0.3754
 6390TIP3    H119176   1.073   4.549   3.362  1.2049 -0.9558  0.4799
 6390TIP3    H219177   1.161   4.624   3.265  0.2067  0.2887  0.5179
 6391TIP3   OH219178   2.339   1.251   0.761  0.3446 -0.0782  0.5491
 6391TIP3    H119179   2.377   1.240   0.674 -0.9177  1.3915 -0.2345
 6391TIP3    H219180   2.383   1.185   0.814  2.8761  0.5557 -0.6179
 6392TIP3   OH219181   4.106   4.914   1.618  0.5048 -0.2895  0.1839
 6392TIP3    H119182   4.092   4.997   1.572  0.7660 -0.2770  0.1299
 6392TIP3    H219183   4.018   4.876   1.626  0.3002  0.2949  0.7785
 6393TIP3   OH219184   0.989   0.579   1.316  0.5719  0.1020  0.0122
 6393TIP3    H119185   1.029   0.632   1.385  0.6847  1.4738 -1.0681
 6393TIP3    H219186   0.895   0.596   1.323  0.5727  0.1523 -0.0949
 6394TIP3   OH219187   5.916   2.203   2.661 -0.0864  0.8065 -0.2959
 6394TIP3    H119188   5.835   2.171   2.621 -0.6449  0.2466  1.2209
 6394TIP3    H219189   5.891   2.228   2.750  1.2063  1.6125 -0.1267
 6395TIP3   OH219190   1.572   2.046   3.026 -0.9870 -0.0095  0.3886
 6395TIP3    H119191   1.614   2.132   3.030  1.3357 -1.1415  1.8375
 6395TIP3    H219192   1.558   2.031   2.932  0.8067  0.9438 -0.0754
 6396TIP3   OH219193   4.066   3.830   4.079  0.2820  0.5738  0.6249
 6396TIP3    H119194   3.992   3.776   4.107  0.3421 -0.1384 -0.5143
 6396TIP3    H219195   4.025   3.911   4.047  0.0592  0.4839  0.6778
 6397TIP3   OH219196   1.255   6.000   3.044 -0.4940 -0.0991  0.8102
 6397TIP3    H119197   1.233   5.908   3.027 -2.3059  0.4621 -0.0607
 6397TIP3    H219198   1.209   6.021   3.126 -0.7507  0.2399  0.5837
 6398TIP3   OH219199   5.391   1.973   0.820 -0.1299  0.2875  0.0894
 6398TIP3    H119200   5.310   1.943   0.779 -0.7795 -0.5005  1.8282
 6398TIP3    H219201   5.444   2.008   0.748 -1.3486 -0.6630 -1.3152
 6399TIP3   OH219202   0.091   5.838   2.781 -0.3271 -0.6011 -0.0703
 6399TIP3    H119203   0.121   5.748   2.774 -1.4285 -0.8789 -1.4856
 6399TIP3    H219204  -0.004   5.833   2.776 -0.4067  0.6418 -0.2892
 6400TIP3   OH219205   4.413   1.713   0.984  0.1722 -0.1814 -0.4373
 6400TIP3    H119206   4.334   1.668   0.955  0.2714 -0.3668 -0.4179
 6400TIP3    H219207   4.409   1.712   1.079 -0.6764  1.3397 -0.4354
 6401TIP3   OH219208   4.048   0.076   1.528  0.5381 -0.3998  0.4798
 6401TIP3    H119209   4.048  -0.017   1.506 -3.0259 -1.3949  3.5545
 6401TIP3    H219210   4.107   0.082   1.604  0.4839 -0.2162  0.5066
 6402TIP3   OH219211   5.371   4.648   0.589 -0.4942  0.1513  0.2378
 6402TIP3    H119212   5.425   4.641   0.668 -0.0734 -1.4537 -0.1711
 6402TIP3    H219213   5.297   4.590   0.606 -0.9263  0.5816 -0.1538
 6403TIP3   OH219214   4.056   2.607   1.130 -0.6470  0.0558 -0.4875
 6403TIP3    H119215   4.128   2.548   1.152 -0.9249 -0.3597 -0.6852
 6403TIP3    H219216   4.028   2.580   1.043 -0.5327  0.7238 -0.7346
 6404TIP3   OH219217   6.146   0.125   3.559  0.1587  0.0573 -0.0883
 6404TIP3    H119218   6.172   0.135   3.467  1.5363  0.6859  0.3385
 6404TIP3    H219219   6.051   0.117   3.557  0.2345 -0.8391 -1.6414
 6405TIP3   OH219220   2.179   1.823   0.569  0.3232 -0.0825 -0.6738
 6405TIP3    H119221   2.169   1.801   0.476 -0.7883  1.4184 -0.9546
 6405TIP3    H219222   2.268   1.795   0.590  0.2221 -1.4353 -1.8926
 6406TIP3   OH219223   4.210   0.603   2.141  0.1672 -0.0590  0.1180
 6406TIP3    H119224   4.121   0.587   2.171  0.2163  2.4514  1.8229
 6406TIP3    H219225   4.258   0.630   2.219  1.6385  1.5667 -1.2569
 6407TIP3   OH219226   1.887   1.925   1.689  0.0532 -0.5265 -0.1659
 6407TIP3    H119227   1.800   1.926   1.649 -0.2580 -4.3897  0.1046
 6407TIP3    H219228   1.947   1.916   1.614  0.2193  0.8987 -0.2499
 6408TIP3   OH219229   4.129   0.531   4.973 -0.2313 -0.4411 -0.0112
 6408TIP3    H119230   4.223   0.508   4.972 -0.5510 -1.9486  0.8971
 6408TIP3    H219231   4.128   0.624   4.993  1.1225  0.1008 -2.1075
 6409TIP3   OH219232   4.316   3.193   3.564  0.1145  0.0018 -0.2904
 6409TIP3    H119233   4.332   3.261   3.498 -1.1827  1.0431  0.4316
 6409TIP3    H219234   4.243   3.143   3.529 -0.2771  0.2685  0.1467
 6410TIP3   OH219235   6.331   4.233   3.901 -0.0704  0.1383  0.2175
 6410TIP3    H119236   6.387   4.235   3.823 -0.4241 -0.4063 -0.0561
 6410TIP3    H219237   6.244   4.212   3.868 -0.3500  0.5048  0.6962
 6411TIP3   OH219238   0.714   2.080   5.023  0.4466  0.2415  0.0396
 6411TIP3    H119239   0.684   2.091   4.933  1.0266 -0.2352 -0.2212
 6411TIP3    H219240   0.807   2.106   5.019  1.2243 -2.3222 -0.0910
 6412TIP3   OH219241   4.970   3.941   4.290 -0.2353 -0.0631  0.1787
 6412TIP3    H119242   4.883   3.913   4.318 -0.8572  1.9270  0.3644
 6412TIP3    H219243   4.963   3.947   4.195 -0.6949  1.2155  0.2720
 6413TIP3   OH219244   1.771   2.673   1.537 -0.3869  0.3987 -0.0307
 6413TIP3    H119245   1.763   2.699   1.445 -0.3986 -0.3664 -0.2521
 6413TIP3    H219246   1.863   2.687   1.558 -0.3089  0.2521 -0.2640
 6414TIP3   OH219247   5.747   2.933   0.164  0.5526 -1.3198  0.4490
 6414TIP3    H119248   5.682   2.892   0.220 -1.1921  0.3085 -0.2609
 6414TIP3    H219249   5.778   3.009   0.214 -0.4528 -0.2962 -0.4317
 6415TIP3   OH219250   2.026   0.645   4.501  0.2361 -0.2552  0.0729
 6415TIP3    H119251   2.017   0.658   4.406 -0.6468  1.5946  0.3599
 6415TIP3    H219252   2.105   0.592   4.510  0.4665 -0.2901 -1.6881
 6416TIP3   OH219253   4.068   4.755   1.962  0.4730  0.2704 -0.1326
 6416TIP3    H119254   4.000   4.755   1.895  2.3276  1.6386 -2.1862
 6416TIP3    H219255   4.034   4.813   2.030 -1.0184 -0.2822 -0.3660
 6417TIP3   OH219256   0.210   4.364   4.930  0.4147 -0.0587 -0.2648
 6417TIP3    H119257   0.272   4.364   4.858 -0.5344  0.5170 -1.1111
 6417TIP3    H219258   0.186   4.272   4.942  0.3997 -0.1365 -0.8519
 6418TIP3   OH219259   4.316   0.438   2.375 -0.0235 -0.5261 -0.2561
 6418TIP3    H119260   4.336   0.530   2.361 -3.1590 -0.0008 -2.2457
 6418TIP3    H219261   4.381   0.391   2.323  0.6947  0.5925 -0.4052
 6419TIP3   OH219262   4.154   0.263   1.293 -0.0256  0.2965 -0.6200
 6419TIP3    H119263   4.102   0.217   1.359 -1.4227  1.2751 -0.9785
 6419TIP3    H219264   4.205   0.327   1.343 -2.6739  2.5382 -0.5400
 6420TIP3   OH219265   4.065   0.253   4.992 -0.1809 -0.2878  0.0899
 6420TIP3    H119266   4.129   0.194   5.032 -0.3652  0.0319  0.8888
 6420TIP3    H219267   4.100   0.341   5.008  0.8820 -0.1885 -2.4566
 6421TIP3   OH219268   4.752   2.908   4.015 -0.2033 -0.6659  0.1102
 6421TIP3    H119269   4.746   2.976   3.948 -0.2369 -0.9618 -0.1942
 6421TIP3    H219270   4.694   2.936   4.084  0.9174  0.3753  0.6677
 6422TIP3   OH219271   4.493   0.472   0.751 -0.8309  0.4136  0.2956
 6422TIP3    H119272   4.467   0.535   0.818 -2.1855 -0.3438  0.5232
 6422TIP3    H219273   4.453   0.389   0.778 -0.6074 -0.1337 -0.9459
 6423TIP3   OH219274   5.729  -0.014   2.654 -0.1587 -0.3607 -0.1182
 6423TIP3    H119275   5.773   0.070   2.640 -0.5274 -0.0836  0.3749
 6423TIP3    H219276   5.649   0.008   2.701 -0.6914 -0.8946 -0.7535
 6424TIP3   OH219277   6.354   0.794   0.578  0.0889  0.4804 -0.8637
 6424TIP3    H119278   6.260   0.814   0.572 -0.8076 -2.2251  1.5809
 6424TIP3    H219279   6.387   0.806   0.489 -2.5508  1.5396 -1.8003
 6425TIP3   OH219280   3.204   4.407   0.504 -0.0129  0.5019  0.8472
 6425TIP3    H119281   3.210   4.495   0.468  0.3287  0.3731  0.5919
 6425TIP3    H219282   3.116   4.403   0.542 -0.9019  0.2084 -1.1271
 6426TIP3   OH219283   5.571   1.256   4.705  0.6052 -0.5473 -0.4210
 6426TIP3    H119284   5.489   1.298   4.681 -0.1430 -1.2871  0.7688
 6426TIP3    H219285   5.625   1.327   4.740  0.5953 -0.0059 -1.4757
 6427TIP3   OH219286   2.484   1.350   4.040 -0.3596  0.5117  0.3885
 6427TIP3    H119287   2.568   1.367   4.081  0.3699 -2.0625  0.1121
 6427TIP3    H219288   2.450   1.272   4.084 -1.3328 -0.0854 -1.3186
 6428TIP3   OH219289   4.677   5.966   3.545  0.3443 -0.0080 -0.1081
 6428TIP3    H119290   4.694   5.998   3.456  2.1084 -1.6424 -0.4357
 6428TIP3    H219291   4.584   5.983   3.559  0.2525  1.2581 -1.8398
 6429TIP3   OH219292   0.255   0.172   2.141 -0.2472 -0.7664 -0.2604
 6429TIP3    H119293   0.213   0.132   2.217 -0.2549 -1.2224 -0.4973
 6429TIP3    H219294   0.348   0.148   2.149 -0.2997 -1.0875 -0.5537
 6430TIP3   OH219295   0.847   2.036   4.309  0.1690  0.2615 -0.1573
 6430TIP3    H119296   0.752   2.047   4.307  0.1091 -0.1330  0.3268
 6430TIP3    H219297   0.876   2.101   4.373  0.0819 -0.5284  0.7065
 6431TIP3   OH219298   3.060   3.747   3.355 -0.1248 -0.1473 -0.4327
 6431TIP3    H119299   3.108   3.805   3.414  1.3330 -1.6848 -0.0285
 6431TIP3    H219300   2.994   3.705   3.410 -0.1237 -0.0574 -0.3625
 6432TIP3   OH219301   0.455   4.341   4.784  0.2174 -0.2447 -0.1319
 6432TIP3    H119302   0.462   4.266   4.725  0.2174  0.4122 -0.9853
 6432TIP3    H219303   0.537   4.388   4.772  0.7480 -0.7403  1.3171
 6433TIP3   OH219304   2.735   4.078   3.618  0.1382  0.0016 -0.7500
 6433TIP3    H119305   2.656   4.128   3.597  0.1094 -0.4977 -1.9133
 6433TIP3    H219306   2.713   3.988   3.594  1.5711  0.0947 -2.5753
 6434TIP3   OH219307   2.763   2.184   0.435  0.2378 -0.0680  0.4706
 6434TIP3    H119308   2.840   2.227   0.398  1.5374 -2.3778  0.3720
 6434TIP3    H219309   2.692   2.206   0.374  1.1119  0.8495 -0.2475
 6435TIP3   OH219310   0.200   4.140   2.506 -0.3783  0.8481  0.1405
 6435TIP3    H119311   0.254   4.064   2.482 -1.6985 -0.8926  2.3214
 6435TIP3    H219312   0.145   4.155   2.429  0.8704  0.5306 -0.8504
 6436TIP3   OH219313   6.022   0.617   0.496 -0.0049  0.0206  0.5249
 6436TIP3    H119314   6.009   0.623   0.401 -3.1969  0.9882  0.9091
 6436TIP3    H219315   6.040   0.525   0.512  3.0667  0.1870 -1.1644
 6437TIP3   OH219316   0.819   3.237   4.142 -0.1880  0.5154 -0.0678
 6437TIP3    H119317   0.887   3.170   4.140  1.3323  1.9399  0.6541
 6437TIP3    H219318   0.850   3.300   4.208 -2.2467  1.2093  0.3271
 6438TIP3   OH219319   2.602   4.828   1.383 -0.2178  0.2310 -0.2578
 6438TIP3    H119320   2.519   4.869   1.409  0.3187  0.6792  0.7991
 6438TIP3    H219321   2.592   4.736   1.409 -0.8258  0.0091 -1.2195
 6439TIP3   OH219322   1.502   0.668   1.439  0.3060 -0.3437 -0.3980
 6439TIP3    H119323   1.589   0.669   1.479  0.5625  0.0059 -0.9500
 6439TIP3    H219324   1.441   0.686   1.511  0.7468  0.1720 -0.1485
 6440TIP3   OH219325   1.299   3.204   4.437  0.1512  0.2492 -0.5429
 6440TIP3    H119326   1.381   3.164   4.465  0.0924  1.0483  0.8733
 6440TIP3    H219327   1.297   3.192   4.342  1.5829 -0.3642 -0.5150
 6441TIP3   OH219328   0.038   5.855   0.956  0.0732  0.2089 -0.2046
 6441TIP3    H119329  -0.024   5.923   0.932  0.0685  0.5636  0.7755
 6441TIP3    H219330   0.118   5.877   0.909 -0.5869 -0.3747 -1.6515
 6442TIP3   OH219331   4.741   1.745   1.177  0.2467 -0.4712  0.0258
 6442TIP3    H119332   4.648   1.752   1.200 -0.5262 -1.9265 -2.3180
 6442TIP3    H219333   4.769   1.836   1.166 -1.1411 -0.0334 -0.1458
 6443TIP3   OH219334   2.871   5.394   0.524  0.4462 -0.1395  0.3642
 6443TIP3    H119335   2.837   5.330   0.461 -0.2306 -0.5492  1.1275
 6443TIP3    H219336   2.964   5.374   0.531  0.7516  0.5766 -1.2752
 6444TIP3   OH219337   3.954   4.061   3.974  0.6546  0.0187  0.6035
 6444TIP3    H119338   3.968   4.081   3.882 -0.8538  1.4469  0.6304
 6444TIP3    H219339   3.938   4.147   4.015  2.2371 -0.4575  2.3942
 6445TIP3   OH219340   3.262   1.210   2.438 -0.5409 -0.2871  0.6667
 6445TIP3    H119341   3.209   1.285   2.411  0.1015 -0.2067 -0.4162
 6445TIP3    H219342   3.257   1.210   2.533 -0.3184  1.2982  0.6930
 6446TIP3   OH219343   1.971   3.259   1.024 -0.0622 -0.5452 -0.0563
 6446TIP3    H119344   2.050   3.246   0.971  0.9615 -0.5860  1.4293
 6446TIP3    H219345   1.964   3.354   1.033 -0.2881 -0.5343 -0.3164
 6447TIP3   OH219346   2.503   4.325   0.815 -0.4780 -0.4791 -0.3631
 6447TIP3    H119347   2.585   4.366   0.788  0.1852 -1.2667  0.3859
 6447TIP3    H219348   2.527   4.233   0.831 -1.4881 -0.6936 -0.0386
 6448TIP3   OH219349   6.296   4.261   4.811  0.5323 -0.1076 -0.7417
 6448TIP3    H119350   6.285   4.228   4.722 -0.2925 -1.6083 -0.1201
 6448TIP3    H219351   6.366   4.208   4.848 -0.1018 -0.4885 -0.0568
 6449TIP3   OH219352   6.020   1.608   3.254 -0.6059  0.0404  0.0333
 6449TIP3    H119353   5.962   1.658   3.196 -1.6832 -1.5552 -0.3443
 6449TIP3    H219354   6.108   1.624   3.219 -1.1415 -0.1532 -1.5030
 6450TIP3   OH219355   0.266   0.435   1.922  0.3045  0.2323 -0.3619
 6450TIP3    H119356   0.280   0.343   1.943 -2.3629 -0.0758  0.4835
 6450TIP3    H219357   0.235   0.434   1.831 -1.9422 -0.0541  0.3312
 6451TIP3   OH219358   3.897   1.521   0.146  0.6294  0.0201  0.5871
 6451TIP3    H119359   3.991   1.527   0.162  1.5835 -0.8928 -3.4241
 6451TIP3    H219360   3.873   1.432   0.172  0.7581  0.3564  1.9073
 6452TIP3   OH219361   2.633   5.419   2.085 -0.1158 -0.0191  0.2956
 6452TIP3    H119362   2.542   5.442   2.103 -0.3628 -0.9643  0.2847
 6452TIP3    H219363   2.643   5.429   1.991 -0.4716 -0.8293  0.1706
 6453TIP3   OH219364   2.846   5.890   1.223  0.2603 -0.2399  0.3680
 6453TIP3    H119365   2.816   5.810   1.181 -0.3760 -0.6129  1.5029
 6453TIP3    H219366   2.940   5.893   1.205  0.1287 -0.7687 -0.4370
 6454TIP3   OH219367   5.621   1.268   1.691 -0.4470  0.0557 -0.2849
 6454TIP3    H119368   5.553   1.309   1.639  0.8625  2.2914 -0.3616
 6454TIP3    H219369   5.581   1.188   1.725 -1.4964 -1.3999 -4.4046
 6455TIP3   OH219370   4.178   2.325   4.639  0.0082 -0.0314 -0.4491
 6455TIP3    H119371   4.186   2.236   4.605 -0.3907 -0.4819  0.5974
 6455TIP3    H219372   4.101   2.360   4.596 -0.6963 -0.7171  0.2154
 6456TIP3   OH219373   5.759   0.624   3.262 -0.4532  0.2140  0.7783
 6456TIP3    H119374   5.729   0.633   3.171  2.7005  0.6779 -0.3660
 6456TIP3    H219375   5.778   0.531   3.272 -0.5346  0.2069  0.8659
 6457TIP3   OH219376   2.448   2.839   2.930 -0.2280  0.3751 -0.4539
 6457TIP3    H119377   2.530   2.888   2.939 -1.5621  2.6691  0.2315
 6457TIP3    H219378   2.454   2.797   2.844  1.9713 -0.2010 -0.0742
 6458TIP3   OH219379   4.689   3.862   2.125  0.3362 -0.1202 -0.1681
 6458TIP3    H119380   4.658   3.881   2.036 -1.1912 -1.2338  0.0918
 6458TIP3    H219381   4.687   3.767   2.132 -4.8929 -0.1753  2.6894
 6459TIP3   OH219382   0.002   1.354   1.242 -0.3045  0.5875 -0.2683
 6459TIP3    H119383   0.089   1.391   1.251 -0.1228  0.0808  0.0765
 6459TIP3    H219384  -0.016   1.357   1.148  0.9340 -1.2350 -0.6044
 6460TIP3   OH219385   0.323   2.676   0.219  0.0507  0.1260  0.9231
 6460TIP3    H119386   0.241   2.707   0.180  0.2331  0.2166  0.6116
 6460TIP3    H219387   0.355   2.750   0.269  0.2539  0.2918  0.5486
 6461TIP3   OH219388   5.517   0.721   2.267  0.6449 -0.0649 -0.1579
 6461TIP3    H119389   5.461   0.744   2.193 -1.2128 -1.4668  0.7435
 6461TIP3    H219390   5.606   0.720   2.231 -0.1241  0.0974 -2.1365
 6462TIP3   OH219391   1.472   2.078   4.869  0.1303 -0.1171 -0.1557
 6462TIP3    H119392   1.521   2.010   4.915  0.8742  1.6214  1.7604
 6462TIP3    H219393   1.516   2.085   4.784  1.9842  0.0257  0.7685
 6463TIP3   OH219394   3.778   0.524   2.931 -0.2040 -0.2791  0.1595
 6463TIP3    H119395   3.811   0.453   2.986 -1.0177  0.8113  2.1674
 6463TIP3    H219396   3.684   0.525   2.948 -0.5114  0.0650 -1.3691
 6464TIP3   OH219397   3.793   0.859   1.039 -0.1298  0.3326 -0.6782
 6464TIP3    H119398   3.716   0.820   1.081  0.6599  0.1401  0.6548
 6464TIP3    H219399   3.772   0.860   0.946 -1.1187 -1.1043 -0.4960
 6465TIP3   OH219400   5.537   4.463   3.089 -0.5746 -0.6084 -0.4763
 6465TIP3    H119401   5.507   4.479   3.179  0.9357 -3.2930  0.6210
 6465TIP3    H219402   5.591   4.539   3.067 -3.1147  1.4016 -0.2375
 6466TIP3   OH219403   4.340   0.096   4.416 -0.1648  0.3830  0.1715
 6466TIP3    H119404   4.409   0.158   4.394 -0.3683  0.6893  0.3790
 6466TIP3    H219405   4.348   0.085   4.511 -0.6698  0.7491  0.2591
 6467TIP3   OH219406   3.782   4.739   3.423  0.1407  0.9905  0.0232
 6467TIP3    H119407   3.795   4.691   3.505 -0.4546 -0.7839 -0.8758
 6467TIP3    H219408   3.694   4.714   3.395  0.2959  1.6665 -1.1078
 6468TIP3   OH219409   0.365   3.788   1.962  0.4245 -0.3280  0.5695
 6468TIP3    H119410   0.408   3.762   2.044  0.4452 -0.6173  0.4660
 6468TIP3    H219411   0.436   3.822   1.908 -0.0177  3.1421  1.9346
 6469TIP3   OH219412   4.765   2.289   3.133 -0.8953 -0.4314 -0.1930
 6469TIP3    H119413   4.839   2.340   3.102  0.3206 -1.6753  0.5057
 6469TIP3    H219414   4.697   2.301   3.067  0.3112 -0.1092 -1.4126
 6470TIP3   OH219415   3.779   2.041   4.170 -0.2116  0.1221 -0.4564
 6470TIP3    H119416   3.866   2.078   4.183 -0.5244  0.9125 -0.5020
 6470TIP3    H219417   3.720   2.110   4.200 -0.8404  0.0044 -1.3922
 6471TIP3   OH219418   0.009   1.961   2.435  0.0697 -0.5913  0.3321
 6471TIP3    H119419   0.102   1.954   2.411  0.3477 -0.9704  1.4468
 6471TIP3    H219420  -0.027   1.875   2.416  0.1256 -0.6785  0.6248
 6472TIP3   OH219421   3.230   3.048   3.291  0.3952 -0.0269  0.6563
 6472TIP3    H119422   3.315   3.021   3.257  1.1780  2.3369  0.5704
 6472TIP3    H219423   3.166   3.002   3.235  1.5948 -0.9192 -0.0370
 6473TIP3   OH219424   2.121   1.968   1.851  0.3673 -0.0472  0.1760
 6473TIP3    H119425   2.044   1.946   1.799  0.2064  2.3516 -0.7663
 6473TIP3    H219426   2.095   1.954   1.942 -0.6543 -0.6868 -0.2087
 6474TIP3   OH219427   1.744   4.092   1.746 -0.5376 -0.3258  0.2838
 6474TIP3    H119428   1.836   4.079   1.723 -0.7053  0.8198 -1.2044
 6474TIP3    H219429   1.722   4.016   1.800  1.3593 -0.4541  0.9693
 6475TIP3   OH219430   3.866   4.295   4.102 -0.3183 -0.0139 -0.4738
 6475TIP3    H119431   3.787   4.343   4.128 -1.2844 -1.6434 -0.2837
 6475TIP3    H219432   3.904   4.265   4.184  0.6390  0.9397 -0.5536
 6476TIP3   OH219433   3.255   5.726   4.740  0.0283 -0.1315 -0.2002
 6476TIP3    H119434   3.231   5.633   4.743 -2.2461  0.3993  0.6516
 6476TIP3    H219435   3.299   5.742   4.823 -1.5060 -0.0437  0.6400
 6477TIP3   OH219436   1.528   4.110   0.032 -0.2073 -0.6154 -0.7075
 6477TIP3    H119437   1.531   4.021   0.068 -0.1145 -0.7333 -1.0077
 6477TIP3    H219438   1.526   4.098  -0.063  1.2284 -0.2776 -0.8043
 6478TIP3   OH219439   3.256   2.160   1.251 -0.2085  0.5532  0.2260
 6478TIP3    H119440   3.236   2.228   1.316 -3.9031  0.9018 -1.0515
 6478TIP3    H219441   3.308   2.096   1.300  1.6130  3.1908  2.0491
 6479TIP3   OH219442   1.472   5.543   0.755  0.1928  0.5497  0.7545
 6479TIP3    H119443   1.476   5.611   0.688 -2.7444  0.5145  0.4457
 6479TIP3    H219444   1.451   5.590   0.836 -1.1384  0.1132  0.6769
 6480TIP3   OH219445   2.203   0.919   4.522  0.2886 -0.2194 -0.1131
 6480TIP3    H119446   2.119   0.885   4.555  0.1827 -0.9602 -1.1065
 6480TIP3    H219447   2.209   1.007   4.559  0.4168 -1.1547  2.2799
 6481TIP3   OH219448   0.887   1.096   2.878 -0.1725 -0.9945 -0.3141
 6481TIP3    H119449   0.977   1.068   2.896  0.5077  1.2389  0.0984
 6481TIP3    H219450   0.895   1.157   2.804 -1.1883 -0.0664  0.3087
 6482TIP3   OH219451   1.012   3.427   1.958  1.1781  0.4957  0.8612
 6482TIP3    H119452   0.947   3.461   2.020  0.6234  0.8791  0.0893
 6482TIP3    H219453   1.056   3.357   2.006  0.7663  0.7909  1.6908
 6483TIP3   OH219454   0.405   4.379   1.203  0.6539 -0.1683 -0.3835
 6483TIP3    H119455   0.364   4.343   1.125  0.8044 -0.0119 -0.5381
 6483TIP3    H219456   0.354   4.344   1.276 -0.1644  0.5278 -0.5925
 6484TIP3   OH219457   1.483   2.242   2.241  0.2443  0.0743 -0.3664
 6484TIP3    H119458   1.504   2.160   2.285  0.1368 -0.0843 -0.6048
 6484TIP3    H219459   1.513   2.311   2.301  1.1661 -0.1402 -0.5660
 6485TIP3   OH219460   3.368   5.365   4.531 -0.0377  0.3497 -0.1184
 6485TIP3    H119461   3.399   5.346   4.442  0.2288  0.8293 -0.1322
 6485TIP3    H219462   3.425   5.312   4.587  1.5508  1.9712 -0.0753
 6486TIP3   OH219463   6.226   0.543   2.617  0.0429  0.1080  0.2005
 6486TIP3    H119464   6.208   0.461   2.662 -1.5901  0.5830  0.4682
 6486TIP3    H219465   6.188   0.531   2.530  3.6057 -1.0005 -1.4199
 6487TIP3   OH219466   2.431   1.498   4.822  0.3465 -0.7523  0.3190
 6487TIP3    H119467   2.409   1.505   4.729 -2.1240  1.5460  0.9307
 6487TIP3    H219468   2.356   1.455   4.861 -0.3503  1.5159  1.6636
 6488TIP3   OH219469   0.927   5.436   4.934  0.3587 -0.1270 -0.2440
 6488TIP3    H119470   0.938   5.439   5.030 -0.5372  1.0488 -0.1605
 6488TIP3    H219471   0.846   5.387   4.921 -0.3170  0.9881 -0.3181
 6489TIP3   OH219472   3.987   2.096   2.307  0.1631 -0.0803  0.6321
 6489TIP3    H119473   3.968   2.103   2.401  2.6874  0.8702  1.1541
 6489TIP3    H219474   4.003   2.002   2.293 -2.8212 -0.6657  0.4957
 6490TIP3   OH219475   6.094   0.629   0.934  0.0909 -0.3780 -0.1168
 6490TIP3    H119476   6.042   0.604   1.010 -1.1890 -0.2196 -0.9223
 6490TIP3    H219477   6.053   0.710   0.902  1.5849  0.4428 -0.0472
 6491TIP3   OH219478   5.744   3.201   1.727 -0.5240 -0.6567  0.5078
 6491TIP3    H119479   5.651   3.178   1.729 -0.3627 -1.3303  0.2567
 6491TIP3    H219480   5.781   3.159   1.804 -0.7992  1.2835  1.7619
 6492TIP3   OH219481   4.807   3.046   2.348  0.6467 -0.0076 -0.1073
 6492TIP3    H119482   4.858   2.966   2.352  2.5944  1.2209  1.1537
 6492TIP3    H219483   4.765   3.043   2.262  0.6604 -2.3407 -0.0880
 6493TIP3   OH219484   0.681   3.280   4.967  0.4645 -0.6954 -0.2216
 6493TIP3    H119485   0.631   3.314   5.041  0.2912 -1.2712 -0.0729
 6493TIP3    H219486   0.772   3.284   4.997  0.2878 -2.4598  0.6754
 6494TIP3   OH219487   6.209   2.208   2.757 -0.1826 -0.1550 -0.4448
 6494TIP3    H119488   6.221   2.276   2.824  0.0683  0.1879 -0.8281
 6494TIP3    H219489   6.118   2.219   2.728  0.6005  1.9306 -2.5024
 6495TIP3   OH219490   6.179   1.505   4.986 -0.2116 -0.3483  0.1680
 6495TIP3    H119491   6.216   1.592   4.968  0.2604 -0.5428  0.1712
 6495TIP3    H219492   6.231   1.445   4.933 -0.3732 -0.6561  0.3510
 6496TIP3   OH219493   5.877   3.780   3.449 -0.1214 -0.4745 -0.1690
 6496TIP3    H119494   5.818   3.755   3.520 -0.8384  0.6266 -0.3432
 6496TIP3    H219495   5.893   3.700   3.401 -1.6047 -0.7715 -0.1989
 6497TIP3   OH219496   2.966   1.660   4.571 -0.1866  0.6775  0.0341
 6497TIP3    H119497   2.940   1.744   4.610 -1.0555  0.3972  0.0963
 6497TIP3    H219498   2.890   1.603   4.586  0.8951 -0.5100  1.1533
 6498TIP3   OH219499   4.251   0.178   1.720 -0.3373 -0.2220  0.0188
 6498TIP3    H119500   4.345   0.173   1.702 -0.1462  0.2060  0.8235
 6498TIP3    H219501   4.227   0.267   1.695 -0.5292 -0.3231 -0.1622
 6499TIP3   OH219502   2.035   1.390   0.026 -0.7112  0.6490  0.0692
 6499TIP3    H119503   2.114   1.343   0.051 -1.5300 -0.4353  0.7272
 6499TIP3    H219504   1.981   1.324  -0.018 -1.3081  1.3260 -0.2305
 6500TIP3   OH219505   3.187   5.711   3.023  0.4313 -0.2296  0.5182
 6500TIP3    H119506   3.208   5.617   3.019 -2.0389 -0.8897  1.5091
 6500TIP3    H219507   3.221   5.746   2.940 -2.4982 -2.9149 -2.1129
 6501TIP3   OH219508   4.708   3.141   4.471 -0.4750 -0.7833 -0.0806
 6501TIP3    H119509   4.779   3.112   4.528 -0.8849 -1.0431  0.3068
 6501TIP3    H219510   4.628   3.112   4.516 -0.8029 -1.0804 -0.8302
 6502TIP3   OH219511   5.756   5.011   1.752 -0.4413 -0.5266 -0.1529
 6502TIP3    H119512   5.754   5.101   1.785  0.7273 -0.1124 -1.1295
 6502TIP3    H219513   5.845   4.981   1.769 -0.6751 -1.3300 -0.2983
 6503TIP3   OH219514   3.269   1.442   3.281  0.0728  0.3170  0.6783
 6503TIP3    H119515   3.253   1.370   3.342  2.9295  0.1700  1.3795
 6503TIP3    H219516   3.239   1.520   3.328 -0.4238 -0.0986  1.0664
 6504TIP3   OH219517   2.711   2.883   4.060 -0.1145 -0.0808 -0.5085
 6504TIP3    H119518   2.717   2.850   3.970 -0.0656  0.2152 -0.6171
 6504TIP3    H219519   2.657   2.962   4.053  1.8724  1.3508 -0.6918
 6505TIP3   OH219520   3.324   3.860   0.458  0.0177  0.5608  0.4521
 6505TIP3    H119521   3.354   3.841   0.368  0.4751  0.0869  0.6953
 6505TIP3    H219522   3.398   3.833   0.513 -0.2793  0.8109  0.9753
 6506TIP3   OH219523   2.219   1.800   2.376  0.2944 -0.3274 -0.1037
 6506TIP3    H119524   2.230   1.843   2.461  1.3901 -3.1150  1.3154
 6506TIP3    H219525   2.128   1.770   2.377 -0.7679  2.4965 -1.4973
 6507TIP3   OH219526   2.648   5.132   1.996 -0.3493 -0.0057  0.7294
 6507TIP3    H119527   2.730   5.093   2.027  0.3257  0.7787 -0.0041
 6507TIP3    H219528   2.619   5.187   2.069 -0.1728 -0.2117  0.9585
 6508TIP3   OH219529   0.044   2.722   2.135 -0.2773  0.1749  0.4550
 6508TIP3    H119530   0.029   2.631   2.109  1.0546  0.3370 -1.0144
 6508TIP3    H219531   0.023   2.773   2.057  0.7695  0.9738  0.6736
 6509TIP3   OH219532   5.791   1.026   1.571 -0.1196  0.1526 -0.1171
 6509TIP3    H119533   5.719   1.016   1.633  1.4366  0.5667  1.8399
 6509TIP3    H219534   5.818   1.118   1.579 -0.8146  0.6572 -2.5557
 6510TIP3   OH219535   4.740   4.699   1.943 -0.1930  0.2193  0.4295
 6510TIP3    H119536   4.759   4.781   1.989  2.8670  0.0029 -0.2399
 6510TIP3    H219537   4.744   4.722   1.850 -0.9220 -0.3951  0.2337
 6511TIP3   OH219538   2.917   1.173   0.712  0.4424  0.8439 -0.5394
 6511TIP3    H119539   2.948   1.189   0.623 -0.4227 -0.4241 -1.0943
 6511TIP3    H219540   2.895   1.080   0.714 -1.0166  1.1666  0.5289
 6512TIP3   OH219541   6.016   3.430   3.990  0.0791  0.1450 -0.1988
 6512TIP3    H119542   6.039   3.351   3.942 -2.2946 -0.1548 -0.9225
 6512TIP3    H219543   5.967   3.398   4.067 -1.9086  0.8981 -1.0968
 6513TIP3   OH219544   0.837   5.914   3.733 -0.4628  0.0853  0.6316
 6513TIP3    H119545   0.904   5.847   3.744 -2.6171 -2.5909 -1.0948
 6513TIP3    H219546   0.867   5.988   3.786  3.0521 -1.4667  1.0503
 6514TIP3   OH219547   1.834   4.863   2.602  0.1261 -0.6952  0.7148
 6514TIP3    H119548   1.839   4.787   2.544  0.7776 -1.7108  2.0629
 6514TIP3    H219549   1.870   4.833   2.685 -0.2292  0.9031  1.4885
 6515TIP3   OH219550   1.172   5.596   3.615  0.2015  0.2220 -0.2055
 6515TIP3    H119551   1.230   5.605   3.691  1.4655 -0.4140 -1.0528
 6515TIP3    H219552   1.163   5.685   3.581 -3.3665  1.2408  2.6912
 6516TIP3   OH219553   0.356   3.159   0.314 -0.2254 -0.1794  0.0248
 6516TIP3    H119554   0.352   3.237   0.258  0.0160 -0.3969 -0.3025
 6516TIP3    H219555   0.377   3.193   0.401  1.4277 -0.0006 -0.4125
 6517TIP3   OH219556   5.770   3.412   4.612 -0.2568  0.5339 -0.4785
 6517TIP3    H119557   5.864   3.395   4.615 -0.2012  0.9172  0.1494
 6517TIP3    H219558   5.761   3.487   4.553 -0.3018 -0.2946 -1.5597
 6518TIP3   OH219559   2.027   4.242   0.725  0.3378 -0.1281  0.4038
 6518TIP3    H119560   2.017   4.225   0.819  0.6013 -0.6583  0.3378
 6518TIP3    H219561   2.121   4.257   0.713  0.4177 -0.8219  0.1052
 6519TIP3   OH219562   6.202   2.874   2.354  0.4614 -0.2434 -0.2338
 6519TIP3    H119563   6.269   2.827   2.304  0.1730 -0.2994 -0.5777
 6519TIP3    H219564   6.191   2.822   2.434  1.8634  0.5548  0.5230
 6520TIP3   OH219565   3.534   1.423   4.960 -0.0430  0.1875  0.0098
 6520TIP3    H119566   3.484   1.450   5.037  2.6461  0.4534  1.8269
 6520TIP3    H219567   3.525   1.328   4.957 -0.8488  0.2545  0.1254
 6521TIP3   OH219568   6.302   0.877   1.989  0.4435  0.5899  0.2743
 6521TIP3    H119569   6.230   0.882   1.927 -0.2305  1.7056  1.1045
 6521TIP3    H219570   6.273   0.814   2.055  1.0974 -0.4856 -0.4445
 6522TIP3   OH219571   3.461   2.827   4.736 -0.2710 -0.0663  0.4527
 6522TIP3    H119572   3.525   2.843   4.806 -0.2695 -0.1785  0.4773
 6522TIP3    H219573   3.403   2.903   4.739 -1.4339 -0.9626  1.8497
 6523TIP3   OH219574   4.746   3.827   4.796  0.3000 -0.0737 -0.4091
 6523TIP3    H119575   4.659   3.868   4.791  0.7125  0.9204  0.4088
 6523TIP3    H219576   4.728   3.737   4.824 -0.3555  0.6964  1.8235
 6524TIP3   OH219577   5.360   5.215   1.301  0.5687  0.2181  0.3367
 6524TIP3    H119578   5.384   5.225   1.209 -0.1878  0.7754  0.1847
 6524TIP3    H219579   5.384   5.125   1.323  1.5691  0.3559 -0.1535
 6525TIP3   OH219580   3.040   3.306   0.507 -0.0076 -0.0649  0.3018
 6525TIP3    H119581   3.005   3.291   0.419 -0.1804  1.0658  0.1682
 6525TIP3    H219582   2.986   3.376   0.543 -0.0630 -0.6506  1.3932
 6526TIP3   OH219583   3.121   5.664   1.122  0.2644  0.1292  0.0305
 6526TIP3    H119584   3.211   5.653   1.092  0.0867  2.2624 -1.5794
 6526TIP3    H219585   3.090   5.743   1.076 -1.7181  0.7386  2.2144
 6527TIP3   OH219586   5.429   1.501   0.920  0.1782  0.0447  0.2315
 6527TIP3    H119587   5.510   1.546   0.896  1.4657 -0.2909  3.4526
 6527TIP3    H219588   5.375   1.569   0.961  0.0866 -0.3374  0.7564
 6528TIP3   OH219589   0.161   0.979   3.723 -0.4310  0.2853  0.4134
 6528TIP3    H119590   0.097   1.026   3.776 -1.3793 -1.4438  0.8950
 6528TIP3    H219591   0.171   0.895   3.768 -0.6504 -0.9400 -1.6957
 6529TIP3   OH219592   2.253   0.491   4.498 -0.0582 -0.6041 -0.8999
 6529TIP3    H119593   2.256   0.422   4.431  1.6940 -0.4327 -1.0682
 6529TIP3    H219594   2.328   0.472   4.554 -1.0223 -0.2551  0.5473
 6530TIP3   OH219595   0.571   1.988   2.527 -0.5061  0.0775  0.2889
 6530TIP3    H119596   0.530   1.955   2.606 -0.5031 -0.5193  0.0437
 6530TIP3    H219597   0.586   2.081   2.545  1.1056 -0.3911  1.6906
 6531TIP3   OH219598   1.879   3.619   0.165 -0.3344  0.2786  0.1425
 6531TIP3    H119599   1.832   3.541   0.136  0.0484  1.0610 -2.9688
 6531TIP3    H219600   1.811   3.678   0.197 -0.6273 -1.2176  2.5290
 6532TIP3   OH219601   2.450   5.187   2.245  0.1167 -1.1255 -0.0435
 6532TIP3    H119602   2.423   5.278   2.253 -0.0185 -1.1969  0.3340
 6532TIP3    H219603   2.542   5.187   2.273  0.0028 -1.1694  0.3342
 6533TIP3   OH219604   6.071   0.443   1.644  0.3742 -0.3763 -0.3637
 6533TIP3    H119605   6.138   0.385   1.608  1.0663  0.3411 -0.2791
 6533TIP3    H219606   5.990   0.393   1.640  0.8815 -1.1857 -0.6717
 6534TIP3   OH219607   0.831   0.302   0.728 -0.0246  0.0101 -0.1810
 6534TIP3    H119608   0.831   0.254   0.645  1.7312  1.3205 -1.0243
 6534TIP3    H219609   0.883   0.249   0.787  0.4660  0.0353 -0.5807
 6535TIP3   OH219610   5.487   0.063   1.905  0.3485  0.2380 -0.0372
 6535TIP3    H119611   5.565   0.070   1.961 -1.4269 -1.5556  2.9304
 6535TIP3    H219612   5.462  -0.029   1.909 -2.6508  0.9599  0.2653
 6536TIP3   OH219613   3.181   4.710   0.498 -0.2049  0.3674  0.0607
 6536TIP3    H119614   3.237   4.739   0.426 -0.9031  0.6340 -0.3907
 6536TIP3    H219615   3.235   4.721   0.576  1.0206 -1.1239 -0.5253
 6537TIP3   OH219616   5.233   0.507   2.131 -0.1329 -0.0621  0.4795
 6537TIP3    H119617   5.290   0.556   2.072 -0.0506  1.4178  1.7245
 6537TIP3    H219618   5.240   0.416   2.102  1.0142  0.4216 -0.8545
 6538TIP3   OH219619   3.453   2.996   3.143  0.1010 -0.1704 -0.3688
 6538TIP3    H119620   3.527   3.032   3.095 -0.3001 -0.3264 -1.1257
 6538TIP3    H219621   3.426   2.919   3.092  2.1602 -2.8413  2.1876
 6539TIP3   OH219622   5.846   4.672   0.081  0.2197  0.3765  0.6497
 6539TIP3    H119623   5.753   4.677   0.060  0.7349  0.4857 -2.0086
 6539TIP3    H219624   5.852   4.699   0.172 -2.1799  2.0574  0.4040
 6540TIP3   OH219625   4.175   0.750   0.252 -0.4195 -0.3665  0.4228
 6540TIP3    H119626   4.268   0.739   0.273  0.1131  1.3253 -0.7924
 6540TIP3    H219627   4.172   0.833   0.204 -2.6214 -0.2070  0.7569
 6541TIP3   OH219628   4.463   3.950   4.728 -0.3820 -0.2500 -0.2331
 6541TIP3    H119629   4.410   3.948   4.648 -0.4193  0.0430 -0.2148
 6541TIP3    H219630   4.399   3.949   4.799 -0.4121  1.2605 -0.2086
 6542TIP3   OH219631   1.299   2.024   2.324 -0.2168  0.0015 -0.2760
 6542TIP3    H119632   1.328   2.107   2.363 -2.3845  0.9486 -0.4940
 6542TIP3    H219633   1.338   1.957   2.379  1.1618  1.1592  0.2449
 6543TIP3   OH219634   0.342   3.562   3.717 -0.2478 -0.1022 -0.4982
 6543TIP3    H119635   0.258   3.517   3.727  0.5882 -1.3010  1.5798
 6543TIP3    H219636   0.403   3.493   3.691  0.5833  0.2553  0.4472
 6544TIP3   OH219637   2.808   4.724   3.964 -0.3669  0.0731  0.4227
 6544TIP3    H119638   2.768   4.679   4.038  2.3779 -1.8173  0.9293
 6544TIP3    H219639   2.806   4.659   3.893  2.0605 -0.3228  0.6264
 6545TIP3   OH219640   2.917   0.529   1.410 -0.3077  0.1733  0.4718
 6545TIP3    H119641   2.937   0.452   1.356  0.6222  0.8261 -0.1512
 6545TIP3    H219642   2.827   0.515   1.439 -0.6441 -0.4780 -0.7991
 6546TIP3   OH219643   5.555   2.514   2.081  0.2583  0.5194 -0.1843
 6546TIP3    H119644   5.465   2.539   2.061  0.6192  0.8798 -1.5229
 6546TIP3    H219645   5.602   2.530   1.999  1.0997 -1.8609 -0.2258
 6547TIP3   OH219646   3.883   5.476   2.620  0.1182  0.5242 -0.5477
 6547TIP3    H119647   3.794   5.455   2.591  0.8837 -2.7364 -0.8362
 6547TIP3    H219648   3.938   5.456   2.545  1.3113  0.5026  0.3111
 6548TIP3   OH219649   1.906   1.583   2.156 -0.1513  0.1204  0.2117
 6548TIP3    H119650   1.864   1.651   2.103  1.4931  1.0408  0.0242
 6548TIP3    H219651   1.851   1.506   2.144  0.1000  0.2951 -2.7923
 6549TIP3   OH219652   4.069   1.167   4.873 -0.5081 -0.4446 -0.2105
 6549TIP3    H119653   4.131   1.196   4.940 -0.1029  1.5617 -1.3490
 6549TIP3    H219654   4.024   1.248   4.846 -1.6933 -1.4303 -1.3226
 6550TIP3   OH219655   0.959   4.421   1.800  0.3135  0.0282 -0.3038
 6550TIP3    H119656   0.927   4.332   1.785 -0.3151  0.0620  0.7430
 6550TIP3    H219657   1.022   4.412   1.871  0.5058  0.3754 -0.4288
 6551TIP3   OH219658   0.092   3.400   3.675  0.1109 -0.3075 -0.2223
 6551TIP3    H119659   0.021   3.464   3.676  0.7013  0.3780 -0.3524
 6551TIP3    H219660   0.049   3.315   3.666 -0.7372 -0.0007  0.7754
 6552TIP3   OH219661   4.347   1.042   1.171 -0.1505  0.3496 -0.2692
 6552TIP3    H119662   4.356   1.137   1.168  1.3749  0.3805  2.3484
 6552TIP3    H219663   4.353   1.014   1.080  0.3158  2.6872 -1.0034
 6553TIP3   OH219664   0.183   3.646   4.220 -0.4227 -0.0740 -0.2536
 6553TIP3    H119665   0.177   3.644   4.315  1.9254 -0.9208 -0.0505
 6553TIP3    H219666   0.253   3.708   4.201 -0.0382 -0.7968 -1.3388
 6554TIP3   OH219667   5.497   2.652   2.620 -0.2978 -0.3451  0.0365
 6554TIP3    H119668   5.495   2.732   2.568  2.1470 -0.2891 -0.1191
 6554TIP3    H219669   5.466   2.584   2.561 -0.2003  0.1508 -0.6042
 6555TIP3   OH219670   3.984   2.830   0.451 -0.4553  0.1144  0.1504
 6555TIP3    H119671   4.025   2.744   0.441  0.3146  0.6810 -2.5493
 6555TIP3    H219672   4.033   2.872   0.522  0.2603 -1.0759  0.3854
 6556TIP3   OH219673   1.499   1.086   4.945  0.6293  0.1834  0.1988
 6556TIP3    H119674   1.488   1.059   4.853  0.1765 -0.5374  0.4592
 6556TIP3    H219675   1.489   1.005   4.995  2.4358  0.2784  0.8036
 6557TIP3   OH219676   4.226   1.553   4.826 -0.4153  0.1812 -0.4581
 6557TIP3    H119677   4.252   1.641   4.797 -1.5560  0.5644 -0.3951
 6557TIP3    H219678   4.199   1.508   4.746 -3.8761  1.3474 -0.1423
 6558TIP3   OH219679   0.883   2.500   0.358 -0.7342 -0.0759 -0.0412
 6558TIP3    H119680   0.889   2.438   0.286 -1.9086 -2.0078  1.4169
 6558TIP3    H219681   0.802   2.550   0.340 -0.5477  0.0707 -0.4911
 6559TIP3   OH219682   5.295   1.922   5.124  0.0172  0.7145 -0.1718
 6559TIP3    H119683   5.317   1.992   5.063 -1.2971  1.1797 -0.1328
 6559TIP3    H219684   5.336   1.949   5.207  0.3968  0.9058 -0.4201
 6560TIP3   OH219685   1.937   2.745   4.478 -0.5183  0.3758 -0.5073
 6560TIP3    H119686   1.947   2.782   4.566  1.4406 -0.6893 -0.2235
 6560TIP3    H219687   1.984   2.806   4.421 -1.9938  1.1953 -0.8915
 6561TIP3   OH219688   1.450   1.030   4.679  0.1324 -0.2946 -0.0118
 6561TIP3    H119689   1.502   1.032   4.599  1.2451  0.3572  0.6869
 6561TIP3    H219690   1.371   1.078   4.658 -0.5411 -1.8658 -1.3066
 6562TIP3   OH219691   3.319   2.104   2.796  0.3171  0.2422 -0.3479
 6562TIP3    H119692   3.359   2.191   2.794 -1.3996  1.0567 -1.3558
 6562TIP3    H219693   3.229   2.118   2.768 -0.0363 -1.8596 -0.4404
 6563TIP3   OH219694   0.242   3.636   1.768 -0.0618 -0.2716  0.4344
 6563TIP3    H119695   0.303   3.675   1.831  0.4758 -0.8765  0.3011
 6563TIP3    H219696   0.171   3.601   1.822 -0.3150  0.4532  0.5900
 6564TIP3   OH219697   4.463   2.153   4.064 -0.3603  0.3359  0.4946
 6564TIP3    H119698   4.462   2.203   4.146 -1.8819  0.4090  0.4679
 6564TIP3    H219699   4.467   2.062   4.091 -0.8558  0.3599  0.6549
 6565TIP3   OH219700   2.844   2.297   3.844  0.1689 -0.4697  0.3540
 6565TIP3    H119701   2.809   2.383   3.823 -4.3598 -1.7881  1.2546
 6565TIP3    H219702   2.821   2.243   3.769  1.3054 -1.3155  0.5820
 6566TIP3   OH219703   6.340   2.305   0.551 -0.0121  0.3380  0.4424
 6566TIP3    H119704   6.314   2.258   0.630  1.4226 -0.9161  0.2185
 6566TIP3    H219705   6.352   2.237   0.485 -1.8805  1.4161 -1.1183
 6567TIP3   OH219706   1.183   1.468   0.914 -0.4347  0.3584 -0.3829
 6567TIP3    H119707   1.217   1.557   0.914  0.3100  0.0990  0.8139
 6567TIP3    H219708   1.258   1.413   0.935 -1.1921 -0.4014  0.4646
 6568TIP3   OH219709   5.202   1.322   4.356  0.3795  0.2419 -0.2873
 6568TIP3    H119710   5.166   1.244   4.314 -0.2280  0.1826  0.3266
 6568TIP3    H219711   5.223   1.381   4.283  0.0343 -0.1474 -0.7094
 6569TIP3   OH219712   1.007   5.915   5.002 -0.2231  0.5033 -0.1233
 6569TIP3    H119713   1.027   5.973   4.929  0.3341 -0.4470 -0.7595
 6569TIP3    H219714   0.958   5.843   4.963 -0.5339  0.3295  0.5681
 6570TIP3   OH219715   0.825   1.576   1.241 -0.0692 -0.1120  0.0602
 6570TIP3    H119716   0.790   1.647   1.187  2.7829  1.1752 -0.2651
 6570TIP3    H219717   0.895   1.538   1.189  2.3439  0.7195  2.4601
 6571TIP3   OH219718   1.428   5.685   0.088  0.2016 -0.1439  0.3159
 6571TIP3    H119719   1.488   5.619   0.054  1.6322  0.1901  2.0332
 6571TIP3    H219720   1.469   5.769   0.068  1.1769  0.0670  2.8039
 6572TIP3   OH219721   4.861   1.481   1.202  0.7100  0.2580  0.6997
 6572TIP3    H119722   4.835   1.563   1.161  0.0416 -0.8668 -1.2531
 6572TIP3    H219723   4.956   1.485   1.209  0.5945  1.6610  1.7234
 6573TIP3   OH219724   3.765   0.041   0.844  0.5021  0.0037  0.4643
 6573TIP3    H119725   3.747   0.091   0.765  1.4513  0.2579  0.3963
 6573TIP3    H219726   3.778   0.107   0.912 -0.2266 -0.2102  0.8141
 6574TIP3   OH219727   3.806   0.578   4.065 -0.3186  0.3495 -0.0992
 6574TIP3    H119728   3.882   0.569   4.008  0.0500  1.5295  0.1870
 6574TIP3    H219729   3.839   0.552   4.152 -0.1315  1.1640  0.0875
 6575TIP3   OH219730   0.202   5.924   2.432 -0.3993 -0.2171 -0.0835
 6575TIP3    H119731   0.161   5.843   2.462  0.1752 -1.0270 -1.3994
 6575TIP3    H219732   0.168   5.992   2.490  0.2688 -1.6145  2.0376
 6576TIP3   OH219733   5.400   4.898   1.962 -0.0870 -0.8422 -0.3888
 6576TIP3    H119734   5.408   4.970   1.900  0.2256 -2.3766 -2.2464
 6576TIP3    H219735   5.482   4.897   2.010 -0.9959  1.4430  1.3837
 6577TIP3   OH219736   3.519   1.223   2.640 -0.3783 -0.3012  0.2780
 6577TIP3    H119737   3.436   1.202   2.682 -0.8105 -3.5757 -1.8093
 6577TIP3    H219738   3.585   1.177   2.692  0.5486  3.2894  2.6866
 6578TIP3   OH219739   5.521   2.745   1.000 -0.3602  0.0089  0.6421
 6578TIP3    H119740   5.466   2.785   1.067 -0.5512 -1.9483  1.7306
 6578TIP3    H219741   5.610   2.769   1.025 -0.5347  0.9383  0.4236
 6579TIP3   OH219742   2.506   3.547   2.515 -0.0718 -0.3792 -0.1944
 6579TIP3    H119743   2.584   3.561   2.569  1.2312 -1.3188 -1.7559
 6579TIP3    H219744   2.465   3.469   2.551  0.0350 -0.2318  0.2558
 6580TIP3   OH219745   5.649   4.068   1.452  0.4208 -0.4447 -0.1178
 6580TIP3    H119746   5.688   4.051   1.538 -0.6301 -0.9313  0.2897
 6580TIP3    H219747   5.704   4.136   1.413  1.0154 -0.3379  0.8729
 6581TIP3   OH219748   1.898   1.891   1.023 -0.3336 -0.3418  0.1298
 6581TIP3    H119749   1.804   1.879   1.008 -0.7111  2.5349 -0.4058
 6581TIP3    H219750   1.938   1.869   0.938 -0.6878 -0.2521 -0.0648
 6582TIP3   OH219751   2.240   4.148   4.393  0.3819 -0.5617  0.8833
 6582TIP3    H119752   2.253   4.092   4.317 -0.6681 -1.3111  1.2295
 6582TIP3    H219753   2.217   4.234   4.357 -0.6544 -1.0530  0.3514
 6583TIP3   OH219754   2.035   4.624   3.894  0.1558 -0.3328  0.5787
 6583TIP3    H119755   2.042   4.650   3.802  1.2939 -0.2728  0.6753
 6583TIP3    H219756   1.943   4.598   3.904 -0.1021  0.1314 -0.4449
 6584TIP3   OH219757   3.941   5.152   2.741  0.4446  0.1504  0.0579
 6584TIP3    H119758   3.900   5.069   2.716 -0.8519  1.1727 -1.4870
 6584TIP3    H219759   4.010   5.128   2.802 -0.3045 -1.9947  0.1481
 6585TIP3   OH219760   6.248   0.608   2.911  0.2371  0.0679 -0.0405
 6585TIP3    H119761   6.205   0.546   2.970  1.6986 -1.5668 -0.5968
 6585TIP3    H219762   6.235   0.570   2.824 -0.2672  1.4510 -0.6001
 6586TIP3   OH219763   0.115   5.079   3.540 -0.2870 -0.2164 -0.1273
 6586TIP3    H119764   0.024   5.082   3.510 -0.3649 -1.2619 -0.0119
 6586TIP3    H219765   0.111   5.108   3.631  0.2098  5.1774 -1.4402
 6587TIP3   OH219766   2.714   4.025   1.109  0.2917 -0.1128 -0.3255
 6587TIP3    H119767   2.725   3.936   1.142 -0.1782  0.1277  0.5171
 6587TIP3    H219768   2.630   4.023   1.062 -0.3539  0.1719  0.7720
 6588TIP3   OH219769   5.276   2.852   0.258 -0.8358  0.8141 -0.4845
 6588TIP3    H119770   5.181   2.867   0.255 -1.0558 -0.5414 -1.3229
 6588TIP3    H219771   5.308   2.887   0.175 -0.3363  2.6742  0.4413
 6589TIP3   OH219772   2.328   4.820   0.956 -0.0010 -0.0037 -0.0406
 6589TIP3    H119773   2.350   4.727   0.949 -0.7820 -0.2189  0.3136
 6589TIP3    H219774   2.287   4.829   1.042  2.2802  1.1363  1.0338
 6590TIP3   OH219775   1.391   4.177   0.916  0.1483 -0.4965  0.0103
 6590TIP3    H119776   1.447   4.117   0.866  0.8738  1.1560 -1.2558
 6590TIP3    H219777   1.366   4.127   0.994  0.4701 -2.5227 -1.1205
 6591TIP3   OH219778   5.502   3.590   4.453 -0.0877  0.0641 -0.0318
 6591TIP3    H119779   5.568   3.598   4.384 -1.3262 -1.7379 -1.5167
 6591TIP3    H219780   5.472   3.680   4.467 -0.2419  0.4460 -2.3479
 6592TIP3   OH219781   3.372   2.946   0.676  0.1259 -0.0148 -0.2142
 6592TIP3    H119782   3.319   2.887   0.622 -1.0272  0.0494  0.8161
 6592TIP3    H219783   3.309   3.008   0.713  1.1043  0.8523  0.0387
 6593TIP3   OH219784   5.549   4.335   2.780  0.0563  0.3918  0.2674
 6593TIP3    H119785   5.581   4.329   2.870 -0.5499 -2.7488  0.3805
 6593TIP3    H219786   5.457   4.307   2.786  0.4252 -1.3555 -1.4842
 6594TIP3   OH219787   3.889   5.211   4.432  0.3233  0.7107 -0.3993
 6594TIP3    H119788   3.976   5.246   4.451  0.6219 -0.3059  0.1602
 6594TIP3    H219789   3.899   5.171   4.345  0.9749 -1.1109  0.4629
 6595TIP3   OH219790   0.969   1.595   2.784  0.3512 -0.3048  0.3419
 6595TIP3    H119791   1.035   1.646   2.736 -0.5110  1.4575  0.9274
 6595TIP3    H219792   0.916   1.555   2.716  2.0354 -1.8602 -0.1446
 6596TIP3   OH219793   5.834   4.121   0.666  0.2685 -0.6090 -0.0615
 6596TIP3    H119794   5.788   4.085   0.742  0.3608  0.4023  0.4942
 6596TIP3    H219795   5.898   4.054   0.643 -0.9793 -1.7405 -0.4155
 6597TIP3   OH219796   4.072   4.892   3.840 -0.2523  0.1491 -0.0663
 6597TIP3    H119797   4.024   4.830   3.895 -0.5032  0.5210  0.1363
 6597TIP3    H219798   4.120   4.836   3.778 -0.9868 -0.2273 -0.3082
 6598TIP3   OH219799   5.269   2.519   4.356 -0.1905  0.1915  0.4935
 6598TIP3    H119800   5.236   2.476   4.278  0.8725  1.6641 -0.8130
 6598TIP3    H219801   5.360   2.541   4.336  0.0577  0.7646  2.0728
 6599TIP3   OH219802   1.524   2.944   2.351 -0.2552 -0.2386 -0.6409
 6599TIP3    H119803   1.609   2.929   2.391 -0.5326 -1.2966 -0.4073
 6599TIP3    H219804   1.525   2.893   2.270 -0.7660 -0.4991 -0.4919
 6600TIP3   OH219805   0.646   0.725   2.606 -0.2885 -0.0404 -0.0306
 6600TIP3    H119806   0.728   0.768   2.581 -0.2195 -0.1053  0.0812
 6600TIP3    H219807   0.578   0.781   2.571 -0.2305  0.9224  1.3205
 6601TIP3   OH219808   2.742   2.058   1.336 -0.7847 -0.4923  0.0796
 6601TIP3    H119809   2.737   2.035   1.243  0.1029 -1.0393  0.1514
 6601TIP3    H219810   2.835   2.074   1.352 -1.0891  0.9839  0.5662
 6602TIP3   OH219811   4.030   2.382   3.583  0.0760  0.1735 -0.3213
 6602TIP3    H119812   4.087   2.314   3.547  0.9874  0.4435  0.5342
 6602TIP3    H219813   3.986   2.340   3.656 -1.6841 -0.3436 -1.6286
 6603TIP3   OH219814   3.621   3.411   3.943  0.2003  0.2812  0.2542
 6603TIP3    H119815   3.588   3.363   4.019  0.3467 -1.2913 -0.6478
 6603TIP3    H219816   3.545   3.422   3.886  0.4156  0.0592 -0.0795
 6604TIP3   OH219817   5.432   1.180   4.057 -0.2864  0.1642 -0.2714
 6604TIP3    H119818   5.476   1.176   4.143 -0.4484  0.0369 -0.1952
 6604TIP3    H219819   5.340   1.162   4.076 -0.1584 -0.8667 -0.6077
 6605TIP3   OH219820   6.194   5.003   0.408 -0.4692  0.0395 -0.3692
 6605TIP3    H119821   6.231   5.028   0.493  0.7774 -2.0020 -0.2301
 6605TIP3    H219822   6.100   5.010   0.419 -0.3542 -0.7180  1.3970
 6606TIP3   OH219823   3.499   0.990   3.247  0.3164 -0.4111 -0.3057
 6606TIP3    H119824   3.485   0.937   3.326 -0.3983 -3.0025 -2.0089
 6606TIP3    H219825   3.412   0.998   3.208  0.9177 -0.9575 -1.8335
 6607TIP3   OH219826   3.150   3.577   4.045 -0.2955  0.5478  0.3045
 6607TIP3    H119827   3.225   3.607   3.994 -0.0774 -0.7976 -0.2247
 6607TIP3    H219828   3.076   3.630   4.013 -0.0457  0.1498 -1.0001
 6608TIP3   OH219829   0.845   3.046   1.126  0.9557 -0.9269  0.1681
 6608TIP3    H119830   0.858   3.008   1.213 -0.9726 -1.7572  0.1334
 6608TIP3    H219831   0.853   3.140   1.140  0.3991 -1.0283  1.3144
 6609TIP3   OH219832   5.870   0.459   1.304 -0.1203  0.5516  0.3523
 6609TIP3    H119833   5.838   0.371   1.324 -1.0569  0.9818  0.8262
 6609TIP3    H219834   5.964   0.448   1.289 -0.5614 -0.8724 -1.8074
 6610TIP3   OH219835   5.015   3.144   0.372 -0.4254 -0.5222 -0.1918
 6610TIP3    H119836   4.978   3.061   0.341  0.6857 -1.6565  1.3550
 6610TIP3    H219837   5.101   3.148   0.331  0.2917 -1.1106  1.2005
 6611TIP3   OH219838   4.284   3.327   5.084  0.3903  0.0910  0.0468
 6611TIP3    H119839   4.196   3.360   5.065 -0.8635 -1.5529  2.5057
 6611TIP3    H219840   4.337   3.406   5.098 -0.9818  1.0967 -0.2688
 6612TIP3   OH219841   4.571   3.158   3.337  0.2250 -0.4038 -0.3296
 6612TIP3    H119842   4.501   3.222   3.352  2.1245  1.7428 -0.0212
 6612TIP3    H219843   4.576   3.150   3.242  0.5906  0.6803 -0.4111
 6613TIP3   OH219844   4.485   1.880   3.628 -0.1944 -0.0940 -0.1305
 6613TIP3    H119845   4.577   1.859   3.641 -0.1950 -0.8892 -1.2311
 6613TIP3    H219846   4.484   1.940   3.553 -0.6411 -1.1495 -0.9975
 6614TIP3   OH219847   0.645   1.193   1.441 -0.1401 -0.3180 -0.0958
 6614TIP3    H119848   0.560   1.181   1.483  0.2363 -1.1174  0.4535
 6614TIP3    H219849   0.703   1.220   1.512  0.5718 -1.9835 -0.0089
 6615TIP3   OH219850   2.441   5.676   0.091 -0.6163  0.3482  0.1375
 6615TIP3    H119851   2.494   5.737   0.039 -1.6655  2.0725  1.0108
 6615TIP3    H219852   2.464   5.696   0.182 -0.1464 -1.3731  0.4217
 6616TIP3   OH219853   0.073   1.693   4.065 -0.3512  0.4191  0.2704
 6616TIP3    H119854   0.153   1.683   4.116  0.1618 -1.5159 -0.8131
 6616TIP3    H219855   0.007   1.647   4.117  0.4703 -2.8130 -1.3247
 6617TIP3   OH219856   2.018   1.089   0.981  0.0391 -0.1773  0.1259
 6617TIP3    H119857   2.089   1.149   0.961  1.0509 -1.7907 -1.3317
 6617TIP3    H219858   1.939   1.135   0.951  1.0351 -0.5542 -3.5460
 6618TIP3   OH219859   3.842   1.947   3.927  0.3340  0.1492  0.6424
 6618TIP3    H119860   3.835   2.001   4.005  1.3063  1.4181 -0.1210
 6618TIP3    H219861   3.763   1.967   3.876 -0.3277 -0.7201  1.2852
 6619TIP3   OH219862   4.240   5.368   0.865 -0.6810  0.2278 -0.4565
 6619TIP3    H119863   4.314   5.369   0.803 -1.7635 -1.3407 -1.8778
 6619TIP3    H219864   4.281   5.376   0.951  1.0186  0.8669 -1.2767
 6620TIP3   OH219865   1.073   3.667   2.970  0.0645  0.2856  0.4335
 6620TIP3    H119866   0.979   3.659   2.958 -0.0344 -0.0015  1.3222
 6620TIP3    H219867   1.111   3.618   2.897 -0.4373  1.5107 -0.7018
 6621TIP3   OH219868   0.113   3.795   2.034  0.1056 -0.8614 -0.2336
 6621TIP3    H119869   0.114   3.839   2.119  1.2121  1.3914 -1.3088
 6621TIP3    H219870   0.206   3.781   2.015 -0.0613 -0.2804 -1.5442
 6622TIP3   OH219871   3.482   2.151   4.743  0.0736  0.7597  0.3585
 6622TIP3    H119872   3.425   2.228   4.733 -0.7217  0.5254  2.4515
 6622TIP3    H219873   3.504   2.150   4.836  1.0462 -0.8787  0.1457
 6623TIP3   OH219874   6.168   5.186   0.191  0.0661  0.1071 -0.2734
 6623TIP3    H119875   6.249   5.237   0.191  0.9926 -1.3054  0.0726
 6623TIP3    H219876   6.187   5.111   0.247 -1.4819 -0.2921 -0.2265
 6624TIP3   OH219877   2.846   2.236   4.652  0.5392 -0.4515 -0.2417
 6624TIP3    H119878   2.880   2.323   4.633 -0.8740  0.2040  0.0751
 6624TIP3    H219879   2.879   2.215   4.740  0.4462 -0.0027 -0.0994
 6625TIP3   OH219880   0.931   0.024   4.226  0.2133  0.0015 -0.0743
 6625TIP3    H119881   1.000   0.054   4.284  1.4843 -1.1876 -0.9252
 6625TIP3    H219882   0.867  -0.017   4.284  0.5029  0.5557  0.6523
 6626TIP3   OH219883   5.674   4.343   0.609  0.1085 -0.2886 -0.1221
 6626TIP3    H119884   5.722   4.426   0.602 -0.6653  0.1416 -0.4983
 6626TIP3    H219885   5.741   4.277   0.626  0.8353  0.2895 -0.6927
 6627TIP3   OH219886   0.220   4.606   2.005  0.2317 -0.1931  0.5621
 6627TIP3    H119887   0.227   4.562   2.090  0.9960  0.4001  0.8187
 6627TIP3    H219888   0.295   4.573   1.955 -1.1398 -1.8193 -0.5084
 6628TIP3   OH219889   4.049   3.975   1.516 -0.9648 -0.1121  0.4541
 6628TIP3    H119890   4.081   4.064   1.533 -0.8208 -0.3302  1.3820
 6628TIP3    H219891   4.039   3.937   1.603 -0.6694 -1.1352  0.0503
 6629TIP3   OH219892   2.865   3.777   3.146 -0.0590  0.1159  0.3307
 6629TIP3    H119893   2.937   3.763   3.207  1.3022  1.7867 -0.8032
 6629TIP3    H219894   2.867   3.699   3.089  1.3183  0.4343 -0.1000
 6630TIP3   OH219895   2.944   0.111   0.251 -0.6891  0.2298 -0.3901
 6630TIP3    H119896   3.020   0.149   0.295  0.1342 -1.4372 -0.2668
 6630TIP3    H219897   2.917   0.177   0.187 -0.2585  1.5920  0.7879
 6631TIP3   OH219898   0.176   2.882   4.060  0.0739 -0.5558 -0.4826
 6631TIP3    H119899   0.227   2.896   3.981 -0.1450  2.2101 -0.2111
 6631TIP3    H219900   0.235   2.835   4.119  1.0267 -0.6184 -1.4566
 6632TIP3   OH219901   0.557   0.585   4.856  0.2801  0.0490  0.0571
 6632TIP3    H119902   0.466   0.581   4.827  0.5656  0.1771 -0.9008
 6632TIP3    H219903   0.607   0.604   4.776  1.1430  0.0161  0.5724
 6633TIP3   OH219904   0.554   5.055   3.201  0.2266 -0.0814 -0.2130
 6633TIP3    H119905   0.542   5.099   3.286 -0.6944 -0.1475 -0.2996
 6633TIP3    H219906   0.625   4.993   3.217 -1.0198 -1.2902  1.0159
 6634TIP3   OH219907   4.366   1.001   3.611  0.1698 -0.3395 -0.2216
 6634TIP3    H119908   4.350   0.917   3.654  1.3660 -1.0304 -1.0384
 6634TIP3    H219909   4.423   1.048   3.671  0.0093 -0.3744 -0.0425
 6635TIP3   OH219910   1.421   5.890   3.316 -0.6494  0.2614 -0.0838
 6635TIP3    H119911   1.391   5.898   3.226  1.1676 -0.5718 -0.8074
 6635TIP3    H219912   1.473   5.810   3.318  0.2381  0.8205  1.4438
 6636TIP3   OH219913   2.865   1.364   4.973  0.1294 -0.2268  0.7900
 6636TIP3    H119914   2.915   1.282   4.976  0.6095  0.0619  0.7030
 6636TIP3    H219915   2.801   1.351   4.903  1.6634  0.2991 -0.7468
 6637TIP3   OH219916   5.319   5.344   2.979  0.0505  0.4275  0.4312
 6637TIP3    H119917   5.326   5.418   3.040  0.4766  0.4740  0.3302
 6637TIP3    H219918   5.316   5.385   2.893  0.7826  0.3078  0.3465
 6638TIP3   OH219919   0.609   2.485   3.509 -0.0265 -0.0015  0.0718
 6638TIP3    H119920   0.705   2.493   3.506 -0.0348  0.2762  0.4585
 6638TIP3    H219921   0.585   2.453   3.422  0.3601  0.5185 -0.2290
 6639TIP3   OH219922   2.662   0.768   1.565 -0.2764 -0.1116  0.1182
 6639TIP3    H119923   2.632   0.757   1.655 -0.4868  0.9135  0.1928
 6639TIP3    H219924   2.690   0.681   1.537 -0.3941 -0.4744  1.1081
 6640TIP3   OH219925   1.801   0.874   1.294  0.1648  0.6776 -0.2354
 6640TIP3    H119926   1.801   0.781   1.271  2.1424  0.9650 -1.6605
 6640TIP3    H219927   1.749   0.879   1.374 -1.2837 -1.4068 -0.9635
 6641TIP3   OH219928   1.601   1.490   0.816  0.0891  0.5147  0.4636
 6641TIP3    H119929   1.558   1.410   0.848  1.4687 -0.7581 -0.7203
 6641TIP3    H219930   1.639   1.465   0.732  1.0218  2.2906  0.3108
 6642TIP3   OH219931   3.066   1.785   1.209 -0.4282  0.0768 -0.9064
 6642TIP3    H119932   3.105   1.792   1.296  0.2343 -2.2963 -0.9600
 6642TIP3    H219933   2.986   1.735   1.222  0.1287 -1.0763 -1.7488
 6643TIP3   OH219934   2.259   5.313   3.523  0.3434 -0.0510  0.2358
 6643TIP3    H119935   2.336   5.259   3.509  1.2126  0.9852  0.8645
 6643TIP3    H219936   2.198   5.256   3.570  1.3074 -0.4500  1.0430
 6644TIP3   OH219937   0.915   3.886   0.569 -0.0519  0.1108 -0.0754
 6644TIP3    H119938   0.885   3.796   0.553 -0.0457  0.3654 -1.6492
 6644TIP3    H219939   0.958   3.912   0.488  0.6899  1.2597  0.6548
 6645TIP3   OH219940   4.053   1.081   0.273  0.5496  0.6049 -0.8194
 6645TIP3    H119941   4.122   1.073   0.207  0.7360  0.9531 -0.6686
 6645TIP3    H219942   3.973   1.097   0.223  0.9111  2.2605 -0.9104
   6.34520   5.98231   5.18084   0.00000   0.00000  -2.11507   0.00000  -2.11507  -2.99116
