Generated by CHARMM-GUI FF-Converter
68223
    1GLY      N    1   2.204   4.516   5.648
    1GLY    HT1    2   2.140   4.513   5.730
    1GLY    HT2    3   2.243   4.419   5.637
    1GLY    HT3    4   2.149   4.537   5.562
    1GLY     CA    5   2.311   4.612   5.674
    1GLY    HA1    6   2.368   4.575   5.756
    1GLY    HA2    7   2.261   4.705   5.695
    1GLY      C    8   2.405   4.629   5.556
    1GLY      O    9   2.403   4.549   5.462
    2PRO      N   10   2.491   4.736   5.544
    2PRO     CD   11   2.462   4.849   5.616
    2PRO    HD1   12   2.485   4.832   5.724
    2PRO    HD2   13   2.355   4.878   5.603
    2PRO     CA   14   2.589   4.755   5.437
    2PRO     HA   15   2.537   4.746   5.342
    2PRO     CB   16   2.645   4.894   5.464
    2PRO    HB1   17   2.657   4.952   5.369
    2PRO    HB2   18   2.745   4.889   5.513
    2PRO     CG   19   2.549   4.957   5.559
    2PRO    HG1   20   2.600   5.014   5.640
    2PRO    HG2   21   2.483   5.027   5.503
    2PRO      C   22   2.700   4.650   5.439
    2PRO      O   23   2.723   4.587   5.543
    3GLY      N   24   2.752   4.618   5.313
    3GLY     HN   25   2.733   4.675   5.233
    3GLY     CA   26   2.864   4.526   5.302
    3GLY    HA1   27   2.890   4.519   5.197
    3GLY    HA2   28   2.834   4.431   5.345
    3GLY      C   29   2.988   4.574   5.376
    3GLY      O   30   2.996   4.690   5.416
    4ASN      N   31   3.077   4.482   5.395
    4ASN     HN   32   3.066   4.390   5.360
    4ASN     CA   33   3.206   4.518   5.452
    4ASN     HA   34   3.187   4.571   5.543
    4ASN     CB   35   3.287   4.392   5.483
    4ASN    HB1   36   3.391   4.421   5.511
    4ASN    HB2   37   3.293   4.327   5.393
    4ASN     CG   38   3.231   4.314   5.601
    4ASN    OD1   39   3.156   4.368   5.682
    4ASN    ND2   40   3.267   4.187   5.610
    4ASN   HD21   41   3.233   4.136   5.689
    4ASN   HD22   42   3.329   4.147   5.543
    4ASN      C   43   3.285   4.609   5.358
    4ASN      O   44   3.274   4.598   5.236
    5PRO      N   45   3.373   4.709   5.412
    5PRO     CD   46   3.371   4.751   5.550
    5PRO    HD1   47   3.416   4.671   5.612
    5PRO    HD2   48   3.267   4.772   5.584
    5PRO     CA   49   3.461   4.789   5.326
    5PRO     HA   50   3.398   4.845   5.259
    5PRO     CB   51   3.539   4.875   5.426
    5PRO    HB1   52   3.559   4.976   5.388
    5PRO    HB2   53   3.637   4.826   5.451
    5PRO     CG   54   3.455   4.875   5.550
    5PRO    HG1   55   3.517   4.883   5.642
    5PRO    HG2   56   3.387   4.963   5.547
    5PRO      C   57   3.556   4.703   5.242
    5PRO      O   58   3.588   4.590   5.281
    6GLY      N   59   3.582   4.754   5.129
    6GLY     HN   60   3.545   4.842   5.102
    6GLY     CA   61   3.680   4.687   5.045
    6GLY    HA1   62   3.693   4.746   4.956
    6GLY    HA2   63   3.645   4.587   5.025
    6GLY      C   64   3.816   4.675   5.112
    6GLY      O   65   3.841   4.737   5.216
    7SER      N   66   3.889   4.606   5.042
    7SER     HN   67   3.860   4.557   4.961
    7SER     CA   68   4.028   4.594   5.086
    7SER     HA   69   4.031   4.572   5.192
    7SER     CB   70   4.098   4.481   5.012
    7SER    HB1   71   4.203   4.472   5.048
    7SER    HB2   72   4.101   4.500   4.902
    7SER     OG   73   4.032   4.357   5.035
    7SER    HG1   74   3.996   4.358   5.124
    7SER      C   75   4.104   4.725   5.064
    7SER      O   76   4.066   4.805   4.978
    8GLY      N   77   4.206   4.746   5.157
    8GLY     HN   78   4.230   4.680   5.228
    8GLY     CA   79   4.290   4.863   5.137
    8GLY    HA1   80   4.355   4.865   5.223
    8GLY    HA2   81   4.226   4.949   5.127
    8GLY      C   82   4.379   4.852   5.015
    8GLY      O   83   4.383   4.748   4.948
    9PRO      N   84   4.443   4.945   4.989
    9PRO     CD   85   4.452   5.070   5.076
    9PRO    HD1   86   4.480   5.046   5.181
    9PRO    HD2   87   4.356   5.127   5.072
    9PRO     CA   88   4.539   4.947   4.879
    9PRO     HA   89   4.492   4.912   4.788
    9PRO     CB   90   4.580   5.094   4.871
    9PRO    HB1   91   4.509   5.147   4.802
    9PRO    HB2   92   4.683   5.109   4.832
    9PRO     CG   93   4.563   5.146   5.010
    9PRO    HG1   94   4.657   5.124   5.067
    9PRO    HG2   95   4.547   5.256   5.012
    9PRO      C   96   4.660   4.858   4.905
    9PRO      O   97   4.689   4.824   5.020
   10GLY      N   98   4.720   4.823   4.796
   10GLY     HN   99   4.692   4.858   4.706
   10GLY     CA  100   4.840   4.742   4.807
   10GLY    HA1  101   4.868   4.711   4.708
   10GLY    HA2  102   4.821   4.658   4.873
   10GLY      C  103   4.959   4.818   4.864
   10GLY      O  104   4.954   4.940   4.877
   11ASP      N  105   5.060   4.747   4.903
   11ASP     HN  106   5.058   4.647   4.900
   11ASP     CA  107   5.186   4.803   4.949
   11ASP     HA  108   5.161   4.870   5.030
   11ASP     CB  109   5.279   4.693   5.000
   11ASP    HB1  110   5.380   4.733   5.023
   11ASP    HB2  111   5.290   4.614   4.922
   11ASP     CG  112   5.229   4.627   5.127
   11ASP    OD1  113   5.156   4.693   5.205
   11ASP    OD2  114   5.262   4.509   5.150
   11ASP      C  115   5.254   4.882   4.837
   11ASP      O  116   5.243   4.847   4.720
   12PRO      N  117   5.341   4.990   4.877
   12PRO     CD  118   5.350   5.038   5.000
   12PRO    HD1  119   5.403   4.963   5.064
   12PRO    HD2  120   5.249   5.058   5.043
   12PRO     CA  121   5.419   5.058   4.774
   12PRO     HA  122   5.351   5.093   4.698
   12PRO     CB  123   5.490   5.169   4.851
   12PRO    HB1  124   5.480   5.268   4.804
   12PRO    HB2  125   5.600   5.149   4.861
   12PRO     CG  126   5.431   5.163   4.989
   12PRO    HG1  127   5.511   5.164   5.067
   12PRO    HG2  128   5.367   5.252   5.007
   12PRO      C  129   5.521   4.966   4.706
   12PRO      O  130   5.563   4.866   4.765
   13GLY      N  131   5.545   4.998   4.578
   13GLY     HN  132   5.503   5.075   4.531
   13GLY     CA  133   5.646   4.921   4.506
   13GLY    HA1  134   5.655   4.963   4.407
   13GLY    HA2  135   5.614   4.819   4.506
   13GLY      C  136   5.783   4.928   4.570
   13GLY      O  137   5.807   5.012   4.658
   14SER      N  138   5.866   4.851   4.518
   14SER     HN  139   5.840   4.780   4.454
   14SER     CA  140   6.005   4.857   4.561
   14SER     HA  141   6.009   4.860   4.669
   14SER     CB  142   6.081   4.734   4.513
   14SER    HB1  143   6.188   4.739   4.545
   14SER    HB2  144   6.078   4.729   4.402
   14SER     OG  145   6.023   4.615   4.565
   14SER    HG1  146   6.038   4.614   4.661
   14SER      C  147   6.073   4.983   4.510
   14SER      O  148   6.033   5.039   4.407
   15GLY      N  149   6.166   5.051   4.596
   15GLY     HN  150   6.186   5.012   4.686
   15GLY     CA  151   6.243   5.166   4.550
   15GLY    HA1  152   6.309   5.194   4.631
   15GLY    HA2  153   6.171   5.242   4.524
   15GLY      C  154   6.329   5.136   4.429
   15GLY      O  155   6.343   5.020   4.389
   16PRO      N  156   6.381   5.217   4.362
   16PRO     CD  157   6.377   5.366   4.410
   16PRO    HD1  158   6.406   5.377   4.517
   16PRO    HD2  159   6.276   5.409   4.392
   16PRO     CA  160   6.475   5.199   4.251
   16PRO     HA  161   6.431   5.133   4.177
   16PRO     CB  162   6.496   5.342   4.200
   16PRO    HB1  163   6.415   5.365   4.127
   16PRO    HB2  164   6.593   5.356   4.148
   16PRO     CG  165   6.479   5.429   4.320
   16PRO    HG1  166   6.576   5.432   4.375
   16PRO    HG2  167   6.451   5.533   4.293
   16PRO      C  168   6.607   5.137   4.295
   16PRO      O  169   6.642   5.143   4.413
   17GLY      N  170   6.678   5.057   4.208
   17GLY     HN  171   6.639   5.043   4.117
   17GLY     CA  172   6.809   5.000   4.232
   17GLY    HA1  173   6.839   4.944   4.144
   17GLY    HA2  174   6.800   4.939   4.320
   17GLY      C  175   6.916   5.104   4.259
   17GLY      O  176   6.897   5.222   4.228
   18ASN      N  177   7.010   5.078   4.326
   18ASN     HN  178   7.018   4.987   4.365
   18ASN     CA  179   7.127   5.162   4.350
   18ASN     HA  180   7.090   5.253   4.394
   18ASN     CB  181   7.222   5.095   4.449
   18ASN    HB1  182   7.321   5.146   4.449
   18ASN    HB2  183   7.238   4.989   4.419
   18ASN     CG  184   7.171   5.100   4.592
   18ASN    OD1  185   7.078   5.175   4.623
   18ASN    ND2  186   7.232   5.021   4.680
   18ASN   HD21  187   7.187   5.009   4.768
   18ASN   HD22  188   7.311   4.968   4.652
   18ASN      C  189   7.201   5.194   4.220
   18ASN      O  190   7.208   5.110   4.130
   19PRO      N  191   7.227   5.346   4.192
   19PRO     CD  192   7.213   5.440   4.289
   19PRO    HD1  193   7.265   5.407   4.382
   19PRO    HD2  194   7.105   5.455   4.308
   19PRO     CA  195   7.301   5.388   4.073
   19PRO     HA  196   7.247   5.359   3.985
   19PRO     CB  197   7.313   5.540   4.091
   19PRO    HB1  198   7.239   5.588   4.024
   19PRO    HB2  199   7.413   5.580   4.065
   19PRO     CG  200   7.276   5.565   4.234
   19PRO    HG1  201   7.370   5.584   4.291
   19PRO    HG2  202   7.209   5.652   4.246
   19PRO      C  203   7.439   5.323   4.063
   19PRO    OT1  204   7.473   5.244   4.154
   19PRO    OT2  205   7.511   5.353   3.964
   20LIT    LIT  206   1.712   2.148   3.045
   21LIT    LIT  207   0.075   2.918   4.381
   22LIT    LIT  208   0.882   3.170   5.235
   23LIT    LIT  209   8.283   6.685   5.862
   24LIT    LIT  210   3.527   7.158   9.364
   25LIT    LIT  211   5.282   7.597   4.576
   26LIT    LIT  212   3.832   9.360   2.775
   27LIT    LIT  213   1.040   5.094   5.988
   28LIT    LIT  214   1.326   7.228   6.592
   29LIT    LIT  215   4.202   4.373   8.744
   30LIT    LIT  216   3.511   2.016   4.387
   31LIT    LIT  217   7.074   9.249   3.980
   32LIT    LIT  218   7.303   4.335   5.411
   33LIT    LIT  219   9.833   5.429   4.110
   34LIT    LIT  220   3.019   5.570   6.702
   35LIT    LIT  221   2.351   1.638   7.367
   36LIT    LIT  222   0.688   3.748   2.923
   37LIT    LIT  223   7.643   4.357   9.171
   38LIT    LIT  224   8.379   4.621   6.253
   39LIT    LIT  225   6.954   8.234   5.419
   40LIT    LIT  226   4.959   2.306   4.036
   41LIT    LIT  227   2.677   0.716   3.082
   42LIT    LIT  228   0.325   2.219   4.715
   43LIT    LIT  229   7.146   9.088   5.460
   44LIT    LIT  230   8.447   7.826   4.721
   45LIT    LIT  231   7.487   6.595   3.807
   46LIT    LIT  232   9.288   6.586   6.766
   47LIT    LIT  233   4.862   5.607   0.350
   48LIT    LIT  234   4.727   5.475   5.324
   49LIT    LIT  235   4.464   0.226   6.151
   50LIT    LIT  236   6.596   6.753   2.175
   51LIT    LIT  237   0.188   6.133   5.718
   52LIT    LIT  238   6.673  -0.047   3.356
   53LIT    LIT  239   0.263   3.634   5.563
   54LIT    LIT  240   5.429   5.797  10.021
   55LIT    LIT  241   4.643   7.135   0.983
   56LIT    LIT  242   3.369   1.499   3.012
   57LIT    LIT  243   1.745   5.359   0.367
   58LIT    LIT  244   7.320   8.263   6.539
   59LIT    LIT  245   4.865   0.740   6.678
   60LIT    LIT  246   6.485   3.845   6.650
   61LIT    LIT  247   6.213   7.158   3.380
   62LIT    LIT  248   1.809   5.792   3.217
   63LIT    LIT  249   5.202   2.039   7.252
   64LIT    LIT  250   4.535   2.381   6.915
   65LIT    LIT  251   2.967   8.072   2.959
   66LIT    LIT  252   6.296   8.950   6.241
   67LIT    LIT  253   0.990   4.656   7.382
   68LIT    LIT  254   6.457   2.354   4.795
   69LIT    LIT  255   4.063   6.295   2.099
   70LIT    LIT  256   6.552   6.290   0.592
   71LIT    LIT  257   2.821   0.714   5.963
   72LIT    LIT  258   4.069   0.752   3.575
   73LIT    LIT  259   5.500   0.010   2.122
   74LIT    LIT  260   5.526   9.241   6.535
   75LIT    LIT  261   7.009   8.031   3.192
   76LIT    LIT  262   4.343   7.533   6.934
   77LIT    LIT  263   5.309   9.508   1.992
   78LIT    LIT  264   6.608   4.761   2.727
   79LIT    LIT  265   6.624   8.161   2.164
   80LIT    LIT  266   4.148   4.559   7.906
   81LIT    LIT  267   6.790   9.319   5.650
   82LIT    LIT  268   8.568   4.022   3.605
   83LIT    LIT  269   7.726   7.039   6.868
   84LIT    LIT  270   7.990   7.081   3.583
   85LIT    LIT  271   5.046   8.315   3.019
   86CLA    CLA  272   5.064   0.560   1.987
   87CLA    CLA  273   5.936   9.418   6.266
   88CLA    CLA  274   6.162   6.313   5.844
   89CLA    CLA  275   6.586   3.558   6.347
   90CLA    CLA  276   9.049   2.905   3.101
   91CLA    CLA  277   6.191   8.449   4.680
   92CLA    CLA  278   0.951   3.088   2.680
   93CLA    CLA  279   2.882   6.987   5.360
   94CLA    CLA  280   6.507   7.649   6.446
   95CLA    CLA  281   0.523   2.704   3.857
   96CLA    CLA  282   4.174   1.098   3.426
   97CLA    CLA  283   5.457   5.805   9.696
   98CLA    CLA  284   7.542   4.407   6.717
   99CLA    CLA  285   7.861   7.066   6.699
  100CLA    CLA  286   4.276   7.158   9.660
  101CLA    CLA  287   7.299   8.517   7.327
  102CLA    CLA  288   4.958   8.407   3.320
  103CLA    CLA  289   3.826   2.585   4.265
  104CLA    CLA  290   1.346   6.411   1.567
  105CLA    CLA  291   9.653   5.191   5.188
  106CLA    CLA  292   9.436   2.730   7.176
  107CLA    CLA  293   7.318   7.435   5.834
  108CLA    CLA  294   5.472   5.142   7.050
  109CLA    CLA  295   4.378   7.739   9.113
  110CLA    CLA  296   7.473   4.284   1.207
  111CLA    CLA  297   1.622   3.073   2.983
  112CLA    CLA  298   7.845   3.623   4.934
  113CLA    CLA  299   8.305   7.230   5.549
  114CLA    CLA  300   1.227   7.195   7.730
  115CLA    CLA  301   4.185   6.897   6.550
  116CLA    CLA  302   6.166   0.913   1.864
  117CLA    CLA  303   5.610   2.102   0.431
  118CLA    CLA  304   4.655   2.067   7.276
  119CLA    CLA  305   4.188   8.095   5.157
  120CLA    CLA  306   9.243   5.479   4.157
  121CLA    CLA  307   5.600   0.284   6.089
  122CLA    CLA  308   2.845   0.726   5.742
  123CLA    CLA  309   8.924   3.652   4.427
  124CLA    CLA  310   4.661   9.237   8.506
  125CLA    CLA  311   4.867   7.627   8.165
  126CLA    CLA  312   4.211   4.174   8.876
  127CLA    CLA  313   6.891   0.143   3.696
  128CLA    CLA  314   6.876   9.139   5.556
  129CLA    CLA  315   7.662   0.665   5.098
  130CLA    CLA  316   6.440   7.754   2.727
  131CLA    CLA  317   5.347   6.841   4.818
  132CLA    CLA  318   8.098   7.488   4.232
  133CLA    CLA  319   6.217   1.855   6.761
  134CLA    CLA  320   4.169   0.816   1.507
  135CLA    CLA  321   3.516   2.885   2.175
  136CLA    CLA  322   0.585   3.963   6.696
  137CLA    CLA  323   7.674   6.818   3.898
  138CLA    CLA  324   3.033   2.232   4.953
  139CLA    CLA  325   2.893   6.476   6.795
  140CLA    CLA  326   7.382   9.020   4.028
  141CLA    CLA  327   1.747   6.230   4.523
  142CLA    CLA  328   4.186   7.366   7.720
  143CLA    CLA  329   0.228   2.306   4.898
  144CLA    CLA  330   1.210   5.572   5.907
  145CLA    CLA  331   8.935   1.261   4.751
  146CLA    CLA  332   4.182   5.162   8.024
  147CLA    CLA  333   9.780   7.572   3.116
  148CLA    CLA  334   6.846   2.988   4.008
  149CLA    CLA  335   8.788   4.333   6.336
  150CLA    CLA  336   6.090   8.767   6.896
  151TIP3   OH2  337   4.582   0.073   1.706
  151TIP3    H1  338   4.490   0.048   1.725
  151TIP3    H2  339   4.566   0.149   1.647
  152TIP3   OH2  340   4.766   0.008   2.032
  152TIP3    H1  341   4.745  -0.061   1.966
  152TIP3    H2  342   4.760   0.090   1.979
  153TIP3   OH2  343   4.954  -0.313   1.903
  153TIP3    H1  344   4.874  -0.259   1.921
  153TIP3    H2  345   4.937  -0.335   1.809
  154TIP3   OH2  346   4.664  -0.512   2.172
  154TIP3    H1  347   4.653  -0.433   2.230
  154TIP3    H2  348   4.572  -0.540   2.160
  155TIP3   OH2  349   4.132   0.103   2.195
  155TIP3    H1  350   4.127   0.199   2.207
  155TIP3    H2  351   4.051   0.074   2.237
  156TIP3   OH2  352   4.908  -0.551   2.330
  156TIP3    H1  353   4.828  -0.522   2.284
  156TIP3    H2  354   4.925  -0.636   2.287
  157TIP3   OH2  355   4.405  -0.553   2.549
  157TIP3    H1  356   4.386  -0.644   2.578
  157TIP3    H2  357   4.503  -0.552   2.552
  158TIP3   OH2  358   4.686   0.691   2.144
  158TIP3    H1  359   4.690   0.703   2.047
  158TIP3    H2  360   4.774   0.723   2.171
  159TIP3   OH2  361   4.706  -0.201   1.875
  159TIP3    H1  362   4.737  -0.217   1.784
  159TIP3    H2  363   4.624  -0.254   1.877
  160TIP3   OH2  364   4.281  -0.142   2.210
  160TIP3    H1  365   4.227  -0.178   2.281
  160TIP3    H2  366   4.234  -0.059   2.190
  161TIP3   OH2  367   4.396   0.115   2.090
  161TIP3    H1  368   4.300   0.105   2.102
  161TIP3    H2  369   4.420   0.161   2.172
  162TIP3   OH2  370   5.028   0.002   2.113
  162TIP3    H1  371   4.936   0.037   2.102
  162TIP3    H2  372   5.057  -0.001   2.020
  163TIP3   OH2  373   4.520   0.371   1.982
  163TIP3    H1  374   4.449   0.306   1.966
  163TIP3    H2  375   4.508   0.432   1.906
  164TIP3   OH2  376   4.549   0.324   1.584
  164TIP3    H1  377   4.507   0.379   1.513
  164TIP3    H2  378   4.643   0.346   1.567
  165TIP3   OH2  379   3.364   0.375   2.511
  165TIP3    H1  380   3.440   0.383   2.573
  165TIP3    H2  381   3.309   0.310   2.560
  166TIP3   OH2  382   3.800   0.328   2.604
  166TIP3    H1  383   3.894   0.314   2.624
  166TIP3    H2  384   3.796   0.289   2.515
  167TIP3   OH2  385   4.432   0.241   2.339
  167TIP3    H1  386   4.429   0.167   2.404
  167TIP3    H2  387   4.513   0.288   2.365
  168TIP3   OH2  388   4.057  -0.140   2.545
  168TIP3    H1  389   4.031  -0.153   2.451
  168TIP3    H2  390   4.135  -0.198   2.551
  169TIP3   OH2  391   4.556  -0.152   2.135
  169TIP3    H1  392   4.610  -0.076   2.104
  169TIP3    H2  393   4.466  -0.112   2.139
  170TIP3   OH2  394   4.404  -0.215   2.539
  170TIP3    H1  395   4.485  -0.224   2.487
  170TIP3    H2  396   4.419  -0.277   2.612
  171TIP3   OH2  397   4.669  -0.536   2.594
  171TIP3    H1  398   4.727  -0.611   2.612
  171TIP3    H2  399   4.731  -0.468   2.563
  172TIP3   OH2  400   4.684  -0.284   2.326
  172TIP3    H1  401   4.626  -0.230   2.267
  172TIP3    H2  402   4.771  -0.261   2.287
  173TIP3   OH2  403   4.805   0.408   1.543
  173TIP3    H1  404   4.820   0.453   1.629
  173TIP3    H2  405   4.840   0.473   1.481
  174TIP3   OH2  406   4.830   0.472   1.808
  174TIP3    H1  407   4.810   0.379   1.832
  174TIP3    H2  408   4.908   0.490   1.865
  175TIP3   OH2  409   4.879   0.120   2.400
  175TIP3    H1  410   4.801   0.134   2.457
  175TIP3    H2  411   4.912   0.211   2.387
  176TIP3   OH2  412   4.913  -0.053   1.682
  176TIP3    H1  413   4.911  -0.113   1.606
  176TIP3    H2  414   4.903   0.034   1.637
  177TIP3   OH2  415   4.731   0.225   1.872
  177TIP3    H1  416   4.657   0.270   1.918
  177TIP3    H2  417   4.682   0.167   1.809
  178TIP3   OH2  418   4.926  -0.228   2.218
  178TIP3    H1  419   5.007  -0.280   2.199
  178TIP3    H2  420   4.947  -0.145   2.169
  179TIP3   OH2  421   5.135  -0.417   2.241
  179TIP3    H1  422   5.054  -0.459   2.276
  179TIP3    H2  423   5.198  -0.490   2.251
  180TIP3   OH2  424   4.878  -0.564   2.002
  180TIP3    H1  425   4.809  -0.516   2.051
  180TIP3    H2  426   4.919  -0.492   1.951
  181TIP3   OH2  427   4.106   0.378   2.262
  181TIP3    H1  428   4.152   0.378   2.348
  181TIP3    H2  429   4.172   0.425   2.207
  182TIP3   OH2  430   4.292   0.519   2.119
  182TIP3    H1  431   4.369   0.474   2.080
  182TIP3    H2  432   4.338   0.583   2.178
  183TIP3   OH2  433   4.274   0.343   1.818
  183TIP3    H1  434   4.180   0.326   1.837
  183TIP3    H2  435   4.282   0.438   1.830
  184TIP3   OH2  436   4.488   0.540   1.770
  184TIP3    H1  437   4.465   0.623   1.722
  184TIP3    H2  438   4.508   0.480   1.696
  185TIP3   OH2  439   4.730   0.397   2.172
  185TIP3    H1  440   4.658   0.385   2.106
  185TIP3    H2  441   4.777   0.474   2.136
  186TIP3   OH2  442   5.501   0.128   1.676
  186TIP3    H1  443   5.467   0.210   1.633
  186TIP3    H2  444   5.429   0.111   1.740
  187TIP3   OH2  445   5.708   0.233   1.822
  187TIP3    H1  446   5.649   0.302   1.859
  187TIP3    H2  447   5.646   0.188   1.761
  188TIP3   OH2  448   5.499   0.402   1.895
  188TIP3    H1  449   5.472   0.411   1.801
  188TIP3    H2  450   5.412   0.397   1.939
  189TIP3   OH2  451   5.112  -0.053   1.859
  189TIP3    H1  452   5.035  -0.061   1.798
  189TIP3    H2  453   5.126  -0.146   1.886
  190TIP3   OH2  454   4.940   0.168   1.514
  190TIP3    H1  455   5.020   0.213   1.550
  190TIP3    H2  456   4.876   0.243   1.521
  191TIP3   OH2  457   5.887   0.390   1.652
  191TIP3    H1  458   5.892   0.476   1.700
  191TIP3    H2  459   5.844   0.333   1.718
  192TIP3   OH2  460   5.313   0.121   1.876
  192TIP3    H1  461   5.276   0.185   1.940
  192TIP3    H2  462   5.238   0.058   1.865
  193TIP3   OH2  463   6.532   0.919   1.620
  193TIP3    H1  464   6.487   0.951   1.539
  193TIP3    H2  465   6.556   1.001   1.665
  194TIP3   OH2  466   5.204  -0.279   2.007
  194TIP3    H1  467   5.205  -0.322   2.095
  194TIP3    H2  468   5.117  -0.308   1.973
  195TIP3   OH2  469   6.175   0.385   1.634
  195TIP3    H1  470   6.088   0.426   1.618
  195TIP3    H2  471   6.207   0.444   1.705
  196TIP3   OH2  472   5.668   0.492   1.516
  196TIP3    H1  473   5.703   0.553   1.447
  196TIP3    H2  474   5.752   0.459   1.554
  197TIP3   OH2  475   6.329   0.673   1.513
  197TIP3    H1  476   6.290   0.598   1.464
  197TIP3    H2  477   6.316   0.742   1.445
  198TIP3   OH2  478   5.137   0.313   1.631
  198TIP3    H1  479   5.196   0.260   1.687
  198TIP3    H2  480   5.140   0.399   1.675
  199TIP3   OH2  481   5.602   0.572   2.101
  199TIP3    H1  482   5.699   0.572   2.095
  199TIP3    H2  483   5.579   0.528   2.017
  200TIP3   OH2  484   6.228   0.513   1.863
  200TIP3    H1  485   6.232   0.441   1.928
  200TIP3    H2  486   6.314   0.559   1.879
  201TIP3   OH2  487   5.842   0.090   2.011
  201TIP3    H1  488   5.809   0.139   1.933
  201TIP3    H2  489   5.930   0.062   1.981
  202TIP3   OH2  490   6.201   0.041   2.012
  202TIP3    H1  491   6.260   0.079   1.944
  202TIP3    H2  492   6.250   0.047   2.095
  203TIP3   OH2  493   5.651  -0.437   2.229
  203TIP3    H1  494   5.575  -0.494   2.252
  203TIP3    H2  495   5.639  -0.430   2.133
  204TIP3   OH2  496   4.860   0.300   1.255
  204TIP3    H1  497   4.896   0.216   1.285
  204TIP3    H2  498   4.922   0.364   1.295
  205TIP3   OH2  499   6.682   0.375   1.974
  205TIP3    H1  500   6.589   0.387   1.999
  205TIP3    H2  501   6.713   0.467   1.966
  206TIP3   OH2  502   5.259   0.316   2.068
  206TIP3    H1  503   5.181   0.368   2.038
  206TIP3    H2  504   5.287   0.373   2.140
  207TIP3   OH2  505   5.442   0.394   1.624
  207TIP3    H1  506   5.390   0.463   1.577
  207TIP3    H2  507   5.531   0.421   1.590
  208TIP3   OH2  508   5.909   0.641   1.755
  208TIP3    H1  509   5.949   0.654   1.844
  208TIP3    H2  510   5.973   0.692   1.700
  209TIP3   OH2  511   6.081   0.783   1.601
  209TIP3    H1  512   6.168   0.750   1.572
  209TIP3    H2  513   6.110   0.832   1.682
  210TIP3   OH2  514   5.132   0.635   1.639
  210TIP3    H1  515   5.046   0.676   1.616
  210TIP3    H2  516   5.135   0.654   1.734
  211TIP3   OH2  517   5.365   0.623   1.488
  211TIP3    H1  518   5.281   0.639   1.536
  211TIP3    H2  519   5.345   0.661   1.400
  212TIP3   OH2  520   5.767   0.656   1.320
  212TIP3    H1  521   5.702   0.679   1.250
  212TIP3    H2  522   5.790   0.744   1.355
  213TIP3   OH2  523   6.018   0.631   1.208
  213TIP3    H1  524   5.939   0.636   1.266
  213TIP3    H2  525   6.086   0.677   1.261
  214TIP3   OH2  526   6.238   0.796   1.282
  214TIP3    H1  527   6.218   0.888   1.254
  214TIP3    H2  528   6.311   0.775   1.219
  215TIP3   OH2  529   5.053   0.454   1.386
  215TIP3    H1  530   5.082   0.436   1.477
  215TIP3    H2  531   5.122   0.404   1.336
  216TIP3   OH2  532   5.240   0.316   1.252
  216TIP3    H1  533   5.251   0.247   1.186
  216TIP3    H2  534   5.322   0.369   1.244
  217TIP3   OH2  535   5.482   0.446   1.272
  217TIP3    H1  536   5.520   0.360   1.298
  217TIP3    H2  537   5.505   0.499   1.349
  218TIP3   OH2  538   6.575   0.656   1.648
  218TIP3    H1  539   6.494   0.640   1.595
  218TIP3    H2  540   6.573   0.754   1.644
  219TIP3   OH2  541   6.899   0.887   1.563
  219TIP3    H1  542   6.987   0.894   1.605
  219TIP3    H2  543   6.880   0.793   1.580
  220TIP3   OH2  544   2.621   1.576   2.167
  220TIP3    H1  545   2.572   1.501   2.130
  220TIP3    H2  546   2.605   1.645   2.099
  221TIP3   OH2  547   2.849   1.888   2.201
  221TIP3    H1  548   2.842   1.791   2.209
  221TIP3    H2  549   2.763   1.915   2.241
  222TIP3   OH2  550   2.535   2.232   2.293
  222TIP3    H1  551   2.531   2.258   2.199
  222TIP3    H2  552   2.612   2.283   2.324
  223TIP3   OH2  553   2.870   1.597   2.262
  223TIP3    H1  554   2.772   1.598   2.244
  223TIP3    H2  555   2.902   1.570   2.172
  224TIP3   OH2  556   2.360   1.922   2.157
  224TIP3    H1  557   2.269   1.889   2.146
  224TIP3    H2  558   2.364   1.994   2.090
  225TIP3   OH2  559   1.653   1.842   2.742
  225TIP3    H1  560   1.749   1.829   2.759
  225TIP3    H2  561   1.654   1.856   2.647
  226TIP3   OH2  562   2.277   1.804   2.489
  226TIP3    H1  563   2.281   1.735   2.558
  226TIP3    H2  564   2.357   1.856   2.507
  227TIP3   OH2  565   2.303   1.385   2.790
  227TIP3    H1  566   2.364   1.362   2.719
  227TIP3    H2  567   2.223   1.336   2.770
  228TIP3   OH2  568   2.574   1.040   2.786
  228TIP3    H1  569   2.521   0.990   2.722
  228TIP3    H2  570   2.581   1.128   2.747
  229TIP3   OH2  571   2.538   1.303   2.464
  229TIP3    H1  572   2.475   1.356   2.411
  229TIP3    H2  573   2.624   1.333   2.426
  230TIP3   OH2  574   2.689   1.939   1.695
  230TIP3    H1  575   2.641   2.000   1.753
  230TIP3    H2  576   2.708   1.996   1.619
  231TIP3   OH2  577   2.663   2.016   1.985
  231TIP3    H1  578   2.626   1.927   1.969
  231TIP3    H2  579   2.754   1.993   2.009
  232TIP3   OH2  580   2.719   1.682   2.544
  232TIP3    H1  581   2.645   1.694   2.607
  232TIP3    H2  582   2.758   1.771   2.541
  233TIP3   OH2  583   2.532   1.768   1.996
  233TIP3    H1  584   2.468   1.814   2.054
  233TIP3    H2  585   2.476   1.736   1.924
  234TIP3   OH2  586   2.784   1.359   2.369
  234TIP3    H1  587   2.858   1.295   2.381
  234TIP3    H2  588   2.827   1.437   2.327
  235TIP3   OH2  589   2.926   1.140   2.439
  235TIP3    H1  590   2.881   1.072   2.388
  235TIP3    H2  591   3.016   1.100   2.442
  236TIP3   OH2  592   3.184   0.576   2.660
  236TIP3    H1  593   3.235   0.493   2.655
  236TIP3    H2  594   3.222   0.625   2.585
  237TIP3   OH2  595   1.959   1.958   2.419
  237TIP3    H1  596   2.015   1.959   2.499
  237TIP3    H2  597   2.020   1.996   2.352
  238TIP3   OH2  598   2.141   2.091   2.261
  238TIP3    H1  599   2.217   2.032   2.249
  238TIP3    H2  600   2.179   2.156   2.323
  239TIP3   OH2  601   2.356   2.086   1.940
  239TIP3    H1  602   2.279   2.145   1.925
  239TIP3    H2  603   2.404   2.097   1.854
  240TIP3   OH2  604   2.600   1.964   2.305
  240TIP3    H1  605   2.521   1.933   2.256
  240TIP3    H2  606   2.585   2.061   2.300
  241TIP3   OH2  607   3.888   1.361   1.127
  241TIP3    H1  608   3.885   1.457   1.113
  241TIP3    H2  609   3.827   1.330   1.060
  242TIP3   OH2  610   3.866   1.356   1.439
  242TIP3    H1  611   3.860   1.316   1.528
  242TIP3    H2  612   3.859   1.277   1.385
  243TIP3   OH2  613   3.171   1.218   1.774
  243TIP3    H1  614   3.186   1.164   1.854
  243TIP3    H2  615   3.243   1.282   1.780
  244TIP3   OH2  616   4.100   1.632   1.131
  244TIP3    H1  617   4.101   1.566   1.203
  244TIP3    H2  618   4.132   1.711   1.177
  245TIP3   OH2  619   3.161   1.645   1.571
  245TIP3    H1  620   3.109   1.583   1.518
  245TIP3    H2  621   3.252   1.635   1.537
  246TIP3   OH2  622   3.754   2.102   1.143
  246TIP3    H1  623   3.800   2.032   1.092
  246TIP3    H2  624   3.750   2.063   1.231
  247TIP3   OH2  625   3.665   1.558   1.488
  247TIP3    H1  626   3.718   1.483   1.454
  247TIP3    H2  627   3.742   1.614   1.515
  248TIP3   OH2  628   4.677   0.882   1.492
  248TIP3    H1  629   4.706   0.966   1.532
  248TIP3    H2  630   4.691   0.899   1.397
  249TIP3   OH2  631   4.057   1.092   1.527
  249TIP3    H1  632   4.102   1.020   1.576
  249TIP3    H2  633   4.033   1.037   1.452
  250TIP3   OH2  634   4.750   1.093   1.658
  250TIP3    H1  635   4.664   1.137   1.640
  250TIP3    H2  636   4.761   1.114   1.752
  251TIP3   OH2  637   3.760   1.606   0.989
  251TIP3    H1  638   3.790   1.588   0.898
  251TIP3    H2  639   3.713   1.691   0.977
  252TIP3   OH2  640   3.513   1.481   1.717
  252TIP3    H1  641   3.453   1.548   1.757
  252TIP3    H2  642   3.556   1.532   1.647
  253TIP3   OH2  643   4.361   0.818   1.269
  253TIP3    H1  644   4.291   0.799   1.334
  253TIP3    H2  645   4.396   0.899   1.308
  254TIP3   OH2  646   3.354   1.676   1.817
  254TIP3    H1  647   3.323   1.754   1.766
  254TIP3    H2  648   3.276   1.666   1.876
  255TIP3   OH2  649   4.175   1.882   1.292
  255TIP3    H1  650   4.085   1.873   1.331
  255TIP3    H2  651   4.167   1.968   1.247
  256TIP3   OH2  652   4.468   0.790   1.658
  256TIP3    H1  653   4.380   0.812   1.619
  256TIP3    H2  654   4.528   0.813   1.583
  257TIP3   OH2  655   3.871   1.930   0.965
  257TIP3    H1  656   3.923   1.848   0.947
  257TIP3    H2  657   3.933   1.995   0.923
  258TIP3   OH2  658   4.026   1.724   0.879
  258TIP3    H1  659   4.045   1.649   0.818
  258TIP3    H2  660   4.058   1.686   0.964
  259TIP3   OH2  661   4.402   1.794   1.636
  259TIP3    H1  662   4.391   1.717   1.577
  259TIP3    H2  663   4.385   1.869   1.575
  260TIP3   OH2  664   4.597   1.431   1.481
  260TIP3    H1  665   4.514   1.483   1.486
  260TIP3    H2  666   4.627   1.456   1.391
  261TIP3   OH2  667   4.043   1.297   0.901
  261TIP3    H1  668   4.047   1.321   0.995
  261TIP3    H2  669   4.130   1.253   0.888
  262TIP3   OH2  670   4.284   1.313   1.778
  262TIP3    H1  671   4.278   1.396   1.827
  262TIP3    H2  672   4.194   1.312   1.737
  263TIP3   OH2  673   3.404   1.669   1.431
  263TIP3    H1  674   3.395   1.633   1.343
  263TIP3    H2  675   3.497   1.646   1.454
  264TIP3   OH2  676   3.432   1.236   1.634
  264TIP3    H1  677   3.472   1.239   1.547
  264TIP3    H2  678   3.457   1.324   1.670
  265TIP3   OH2  679   3.932   1.877   1.412
  265TIP3    H1  680   3.922   1.958   1.466
  265TIP3    H2  681   3.921   1.805   1.477
  266TIP3   OH2  682   3.551   1.797   1.965
  266TIP3    H1  683   3.489   1.860   2.007
  266TIP3    H2  684   3.487   1.745   1.911
  267TIP3   OH2  685   3.301   1.352   2.066
  267TIP3    H1  686   3.306   1.440   2.107
  267TIP3    H2  687   3.205   1.340   2.060
  268TIP3   OH2  688   3.609   1.839   0.967
  268TIP3    H1  689   3.692   1.888   0.980
  268TIP3    H2  690   3.554   1.903   0.919
  269TIP3   OH2  691   3.343   1.962   2.046
  269TIP3    H1  692   3.310   1.962   1.954
  269TIP3    H2  693   3.263   1.938   2.097
  270TIP3   OH2  694   4.217   1.743   0.275
  270TIP3    H1  695   4.221   1.839   0.291
  270TIP3    H2  696   4.304   1.711   0.305
  271TIP3   OH2  697   2.945   1.522   2.018
  271TIP3    H1  698   2.878   1.545   1.950
  271TIP3    H2  699   2.957   1.426   1.999
  272TIP3   OH2  700   4.639   2.140   1.682
  272TIP3    H1  701   4.638   2.043   1.695
  272TIP3    H2  702   4.556   2.164   1.728
  273TIP3   OH2  703   3.745   1.925   1.817
  273TIP3    H1  704   3.745   2.018   1.849
  273TIP3    H2  705   3.675   1.886   1.873
  274TIP3   OH2  706   3.501   2.053   0.776
  274TIP3    H1  707   3.434   2.034   0.709
  274TIP3    H2  708   3.482   2.145   0.800
  275TIP3   OH2  709   3.760   2.020   0.689
  275TIP3    H1  710   3.668   2.018   0.720
  275TIP3    H2  711   3.803   1.960   0.752
  276TIP3   OH2  712   4.526   1.270   1.957
  276TIP3    H1  713   4.447   1.280   1.903
  276TIP3    H2  714   4.545   1.175   1.946
  277TIP3   OH2  715   3.148   1.696   1.987
  277TIP3    H1  716   3.194   1.678   2.071
  277TIP3    H2  717   3.069   1.638   1.996
  278TIP3   OH2  718   4.066   0.626   1.963
  278TIP3    H1  719   4.133   0.586   2.021
  278TIP3    H2  720   3.983   0.584   1.992
  279TIP3   OH2  721   4.303   1.048   1.880
  279TIP3    H1  722   4.248   1.040   1.960
  279TIP3    H2  723   4.274   1.132   1.841
  280TIP3   OH2  724   3.427   1.007   1.784
  280TIP3    H1  725   3.390   1.046   1.865
  280TIP3    H2  726   3.431   1.085   1.725
  281TIP3   OH2  727   4.008   1.272   2.123
  281TIP3    H1  728   3.986   1.193   2.178
  281TIP3    H2  729   4.104   1.276   2.135
  282TIP3   OH2  730   3.262   1.065   1.997
  282TIP3    H1  731   3.301   1.119   2.067
  282TIP3    H2  732   3.229   0.987   2.043
  283TIP3   OH2  733   4.021   1.292   1.703
  283TIP3    H1  734   4.032   1.226   1.630
  283TIP3    H2  735   3.981   1.233   1.771
  284TIP3   OH2  736   4.331   2.489   1.781
  284TIP3    H1  737   4.329   2.513   1.687
  284TIP3    H2  738   4.410   2.538   1.812
  285TIP3   OH2  739   3.291   1.594   2.208
  285TIP3    H1  740   3.371   1.628   2.252
  285TIP3    H2  741   3.225   1.606   2.280
  286TIP3   OH2  742   3.751   1.182   1.613
  286TIP3    H1  743   3.724   1.199   1.705
  286TIP3    H2  744   3.729   1.087   1.603
  287TIP3   OH2  745   3.723   0.944   1.844
  287TIP3    H1  746   3.687   0.947   1.753
  287TIP3    H2  747   3.801   1.002   1.840
  288TIP3   OH2  748   4.365   1.578   1.471
  288TIP3    H1  749   4.390   1.627   1.390
  288TIP3    H2  750   4.280   1.536   1.444
  289TIP3   OH2  751   3.855   1.656   1.840
  289TIP3    H1  752   3.892   1.640   1.928
  289TIP3    H2  753   3.826   1.749   1.845
  290TIP3   OH2  754   3.038   1.281   2.163
  290TIP3    H1  755   3.090   1.289   2.245
  290TIP3    H2  756   3.017   1.185   2.162
  291TIP3   OH2  757   3.762   1.395   2.155
  291TIP3    H1  758   3.703   1.338   2.103
  291TIP3    H2  759   3.850   1.362   2.127
  292TIP3   OH2  760   4.023   1.916   1.737
  292TIP3    H1  761   3.926   1.919   1.748
  292TIP3    H2  762   4.052   1.969   1.813
  293TIP3   OH2  763   4.652   1.850   1.724
  293TIP3    H1  764   4.555   1.843   1.716
  293TIP3    H2  765   4.678   1.819   1.634
  294TIP3   OH2  766   4.137   1.804   0.541
  294TIP3    H1  767   4.121   1.738   0.610
  294TIP3    H2  768   4.129   1.750   0.460
  295TIP3   OH2  769   4.133   1.443   1.382
  295TIP3    H1  770   4.041   1.419   1.404
  295TIP3    H2  771   4.165   1.359   1.345
  296TIP3   OH2  772   3.529   2.009   1.611
  296TIP3    H1  773   3.569   2.084   1.562
  296TIP3    H2  774   3.606   1.977   1.662
  297TIP3   OH2  775   3.914   1.647   1.572
  297TIP3    H1  776   3.904   1.643   1.669
  297TIP3    H2  777   3.992   1.592   1.558
  298TIP3   OH2  778   4.163   2.178   1.621
  298TIP3    H1  779   4.083   2.123   1.613
  298TIP3    H2  780   4.149   2.243   1.549
  299TIP3   OH2  781   4.231   2.023   0.259
  299TIP3    H1  782   4.283   2.104   0.239
  299TIP3    H2  783   4.151   2.064   0.297
  300TIP3   OH2  784   4.066   1.508   0.723
  300TIP3    H1  785   4.080   1.425   0.771
  300TIP3    H2  786   4.137   1.500   0.656
  301TIP3   OH2  787   2.980   1.859   1.787
  301TIP3    H1  788   3.052   1.794   1.792
  301TIP3    H2  789   3.015   1.931   1.840
  302TIP3   OH2  790   4.065   0.885   1.859
  302TIP3    H1  791   4.159   0.892   1.834
  302TIP3    H2  792   4.059   0.789   1.879
  303TIP3   OH2  793   3.937   1.118   1.893
  303TIP3    H1  794   3.966   1.158   1.977
  303TIP3    H2  795   3.988   1.033   1.891
  304TIP3   OH2  796   4.569   1.005   1.877
  304TIP3    H1  797   4.471   1.004   1.884
  304TIP3    H2  798   4.578   0.955   1.794
  305TIP3   OH2  799   4.216   1.193   1.267
  305TIP3    H1  800   4.156   1.123   1.296
  305TIP3    H2  801   4.299   1.161   1.310
  306TIP3   OH2  802   4.183   2.153   1.214
  306TIP3    H1  803   4.141   2.201   1.139
  306TIP3    H2  804   4.278   2.172   1.193
  307TIP3   OH2  805   2.956   2.182   2.195
  307TIP3    H1  806   3.042   2.183   2.241
  307TIP3    H2  807   2.936   2.087   2.192
  308TIP3   OH2  808   3.432   2.140   2.246
  308TIP3    H1  809   3.529   2.139   2.244
  308TIP3    H2  810   3.411   2.084   2.168
  309TIP3   OH2  811   4.076   2.052   1.971
  309TIP3    H1  812   4.069   1.982   2.040
  309TIP3    H2  813   4.153   2.103   2.001
  310TIP3   OH2  814   3.097   1.585   2.407
  310TIP3    H1  815   3.110   1.490   2.398
  310TIP3    H2  816   3.011   1.598   2.362
  311TIP3   OH2  817   3.691   1.671   2.170
  311TIP3    H1  818   3.653   1.694   2.082
  311TIP3    H2  819   3.723   1.579   2.156
  312TIP3   OH2  820   4.186   1.685   1.775
  312TIP3    H1  821   4.262   1.725   1.730
  312TIP3    H2  822   4.117   1.752   1.758
  313TIP3   OH2  823   3.201   1.308   2.382
  313TIP3    H1  824   3.284   1.271   2.348
  313TIP3    H2  825   3.231   1.347   2.467
  314TIP3   OH2  826   3.544   1.213   2.040
  314TIP3    H1  827   3.464   1.270   2.038
  314TIP3    H2  828   3.591   1.242   1.958
  315TIP3   OH2  829   4.059   1.609   2.172
  315TIP3    H1  830   4.135   1.584   2.118
  315TIP3    H2  831   4.055   1.537   2.237
  316TIP3   OH2  832   3.659   0.995   2.166
  316TIP3    H1  833   3.652   0.913   2.114
  316TIP3    H2  834   3.625   1.061   2.102
  317TIP3   OH2  835   3.625   0.742   1.986
  317TIP3    H1  836   3.670   0.816   1.938
  317TIP3    H2  837   3.561   0.716   1.918
  318TIP3   OH2  838   3.702   1.329   1.844
  318TIP3    H1  839   3.790   1.356   1.811
  318TIP3    H2  840   3.644   1.396   1.802
  319TIP3   OH2  841   4.280   1.287   2.232
  319TIP3    H1  842   4.318   1.198   2.221
  319TIP3    H2  843   4.347   1.341   2.188
  320TIP3   OH2  844   4.315   1.540   1.964
  320TIP3    H1  845   4.258   1.593   1.903
  320TIP3    H2  846   4.403   1.557   1.924
  321TIP3   OH2  847   3.544   1.109   2.397
  321TIP3    H1  848   3.477   1.037   2.406
  321TIP3    H2  849   3.577   1.091   2.307
  322TIP3   OH2  850   3.800   0.539   2.042
  322TIP3    H1  851   3.748   0.620   2.024
  322TIP3    H2  852   3.761   0.478   1.978
  323TIP3   OH2  853   3.922   1.048   2.254
  323TIP3    H1  854   3.907   1.035   2.349
  323TIP3    H2  855   3.834   1.024   2.219
  324TIP3   OH2  856   4.173   1.023   2.118
  324TIP3    H1  857   4.093   1.000   2.167
  324TIP3    H2  858   4.244   0.975   2.168
  325TIP3   OH2  859   4.393   0.939   2.264
  325TIP3    H1  860   4.407   0.843   2.278
  325TIP3    H2  861   4.393   0.974   2.355
  326TIP3   OH2  862   3.386   0.892   2.445
  326TIP3    H1  863   3.384   0.800   2.410
  326TIP3    H2  864   3.422   0.876   2.534
  327TIP3   OH2  865   3.885   0.546   2.304
  327TIP3    H1  866   3.961   0.485   2.292
  327TIP3    H2  867   3.852   0.547   2.211
  328TIP3   OH2  868   3.955   0.766   2.458
  328TIP3    H1  869   3.935   0.697   2.392
  328TIP3    H2  870   3.880   0.828   2.447
  329TIP3   OH2  871   4.436   2.246   1.171
  329TIP3    H1  872   4.465   2.277   1.259
  329TIP3    H2  873   4.502   2.285   1.112
  330TIP3   OH2  874   4.466   2.264   1.454
  330TIP3    H1  875   4.422   2.177   1.449
  330TIP3    H2  876   4.542   2.241   1.510
  331TIP3   OH2  877   4.513   1.940   2.026
  331TIP3    H1  878   4.440   1.949   2.091
  331TIP3    H2  879   4.554   2.029   2.031
  332TIP3   OH2  880   4.340   1.481   0.660
  332TIP3    H1  881   4.421   1.527   0.635
  332TIP3    H2  882   4.375   1.411   0.719
  333TIP3   OH2  883   4.465   1.314   0.844
  333TIP3    H1  884   4.393   1.274   0.898
  333TIP3    H2  885   4.521   1.357   0.912
  334TIP3   OH2  886   4.510   1.713   1.281
  334TIP3    H1  887   4.565   1.647   1.233
  334TIP3    H2  888   4.506   1.787   1.217
  335TIP3   OH2  889   4.342   2.014   1.476
  335TIP3    H1  890   4.270   2.055   1.528
  335TIP3    H2  891   4.293   1.966   1.406
  336TIP3   OH2  892   4.281   1.179   1.001
  336TIP3    H1  893   4.267   1.084   0.994
  336TIP3    H2  894   4.265   1.194   1.096
  337TIP3   OH2  895   4.559   1.602   1.854
  337TIP3    H1  896   4.631   1.535   1.845
  337TIP3    H2  897   4.586   1.670   1.790
  338TIP3   OH2  898   4.744   1.406   1.871
  338TIP3    H1  899   4.669   1.355   1.908
  338TIP3    H2  900   4.817   1.342   1.885
  339TIP3   OH2  901   4.431   1.076   1.383
  339TIP3    H1  902   4.519   1.098   1.347
  339TIP3    H2  903   4.443   1.103   1.476
  340TIP3   OH2  904   4.500   1.212   1.619
  340TIP3    H1  905   4.421   1.245   1.667
  340TIP3    H2  906   4.531   1.293   1.573
  341TIP3   OH2  907   3.125   0.956   2.446
  341TIP3    H1  908   3.220   0.938   2.433
  341TIP3    H2  909   3.086   0.872   2.419
  342TIP3   OH2  910   4.954   0.793   2.175
  342TIP3    H1  911   4.998   0.719   2.127
  342TIP3    H2  912   4.927   0.850   2.099
  343TIP3   OH2  913   4.821   0.940   1.981
  343TIP3    H1  914   4.731   0.978   1.990
  343TIP3    H2  915   4.799   0.864   1.924
  344TIP3   OH2  916   4.027   2.108   0.833
  344TIP3    H1  917   4.074   2.093   0.748
  344TIP3    H2  918   4.082   2.176   0.875
  345TIP3   OH2  919   3.126   1.905   2.216
  345TIP3    H1  920   3.032   1.887   2.197
  345TIP3    H2  921   3.127   1.912   2.312
  346TIP3   OH2  922   3.301   1.948   1.761
  346TIP3    H1  923   3.251   2.022   1.722
  346TIP3    H2  924   3.387   1.964   1.717
  347TIP3   OH2  925   3.745   2.189   1.896
  347TIP3    H1  926   3.785   2.193   1.986
  347TIP3    H2  927   3.810   2.242   1.845
  348TIP3   OH2  928   3.924   2.343   1.757
  348TIP3    H1  929   3.996   2.293   1.716
  348TIP3    H2  930   3.974   2.401   1.819
  349TIP3   OH2  931   4.716   0.713   1.858
  349TIP3    H1  932   4.626   0.700   1.823
  349TIP3    H2  933   4.753   0.622   1.844
  350TIP3   OH2  934   2.981   2.210   1.783
  350TIP3    H1  935   2.890   2.237   1.760
  350TIP3    H2  936   2.987   2.246   1.872
  351TIP3   OH2  937   3.214   2.182   1.642
  351TIP3    H1  938   3.128   2.195   1.688
  351TIP3    H2  939   3.193   2.213   1.552
  352TIP3   OH2  940   3.639   2.210   1.441
  352TIP3    H1  941   3.570   2.229   1.375
  352TIP3    H2  942   3.651   2.297   1.484
  353TIP3   OH2  943   3.908   2.149   1.492
  353TIP3    H1  944   3.814   2.167   1.473
  353TIP3    H2  945   3.951   2.225   1.450
  354TIP3   OH2  946   4.115   2.342   1.407
  354TIP3    H1  947   4.100   2.427   1.359
  354TIP3    H2  948   4.141   2.282   1.333
  355TIP3   OH2  949   2.913   2.006   1.531
  355TIP3    H1  950   2.899   1.969   1.620
  355TIP3    H2  951   2.994   1.955   1.505
  356TIP3   OH2  952   3.106   1.862   1.409
  356TIP3    H1  953   3.127   1.781   1.461
  356TIP3    H2  954   3.195   1.898   1.391
  357TIP3   OH2  955   3.365   1.973   1.386
  357TIP3    H1  956   3.398   1.884   1.369
  357TIP3    H2  957   3.405   1.990   1.474
  358TIP3   OH2  958   4.471   0.487   1.391
  358TIP3    H1  959   4.514   0.539   1.319
  358TIP3    H2  960   4.379   0.514   1.381
  359TIP3   OH2  961   4.594   0.594   1.181
  359TIP3    H1  962   4.596   0.542   1.099
  359TIP3    H2  963   4.611   0.685   1.150
  360TIP3   OH2  964   4.167   2.072   0.594
  360TIP3    H1  965   4.158   1.974   0.580
  360TIP3    H2  966   4.118   2.105   0.516
  361TIP3   OH2  967   3.391   0.626   2.418
  361TIP3    H1  968   3.369   0.532   2.431
  361TIP3    H2  969   3.487   0.624   2.437
  362TIP3   OH2  970   3.648   0.613   2.510
  362TIP3    H1  971   3.728   0.589   2.461
  362TIP3    H2  972   3.640   0.538   2.572
  363TIP3   OH2  973   4.453   0.669   2.290
  363TIP3    H1  974   4.477   0.637   2.379
  363TIP3    H2  975   4.540   0.668   2.243
  364TIP3   OH2  976   4.392   2.220   1.784
  364TIP3    H1  977   4.314   2.189   1.734
  364TIP3    H2  978   4.373   2.316   1.787
  365TIP3   OH2  979   5.637   1.590   0.573
  365TIP3    H1  980   5.613   1.681   0.546
  365TIP3    H2  981   5.564   1.542   0.532
  366TIP3   OH2  982   5.656   1.595   0.934
  366TIP3    H1  983   5.690   1.563   1.019
  366TIP3    H2  984   5.618   1.515   0.896
  367TIP3   OH2  985   4.957   1.488   1.298
  367TIP3    H1  986   4.988   1.420   1.360
  367TIP3    H2  987   5.038   1.539   1.284
  368TIP3   OH2  988   5.939   1.861   0.620
  368TIP3    H1  989   5.891   1.817   0.691
  368TIP3    H2  990   5.915   1.953   0.632
  369TIP3   OH2  991   4.930   1.898   1.021
  369TIP3    H1  992   4.921   1.800   1.022
  369TIP3    H2  993   5.026   1.907   1.011
  370TIP3   OH2  994   4.634   1.094   0.799
  370TIP3    H1  995   4.591   1.182   0.798
  370TIP3    H2  996   4.562   1.041   0.835
  371TIP3   OH2  997   4.698   1.390   0.982
  371TIP3    H1  998   4.748   1.313   1.016
  371TIP3    H2  999   4.754   1.421   0.910
  372TIP3   OH2 1000   5.562   2.344   0.618
  372TIP3    H1 1001   5.573   2.274   0.550
  372TIP3    H2 1002   5.564   2.289   0.697
  373TIP3   OH2 1003   5.456   1.819   0.980
  373TIP3    H1 1004   5.495   1.742   0.934
  373TIP3    H2 1005   5.539   1.865   1.003
  374TIP3   OH2 1006   6.427   1.171   1.010
  374TIP3    H1 1007   6.492   1.218   1.065
  374TIP3    H2 1008   6.398   1.242   0.951
  375TIP3   OH2 1009   5.867   1.320   1.008
  375TIP3    H1 1010   5.905   1.234   1.030
  375TIP3    H2 1011   5.840   1.305   0.916
  376TIP3   OH2 1012   5.200   0.976   0.979
  376TIP3    H1 1013   5.188   1.051   0.916
  376TIP3    H2 1014   5.150   0.906   0.932
  377TIP3   OH2 1015   4.842   1.180   1.083
  377TIP3    H1 1016   4.924   1.162   1.132
  377TIP3    H2 1017   4.858   1.125   1.003
  378TIP3   OH2 1018   5.282   1.381   0.879
  378TIP3    H1 1019   5.377   1.357   0.889
  378TIP3    H2 1020   5.244   1.296   0.847
  379TIP3   OH2 1021   6.555   1.368   1.151
  379TIP3    H1 1022   6.467   1.409   1.141
  379TIP3    H2 1023   6.564   1.369   1.248
  380TIP3   OH2 1024   5.203   0.962   1.410
  380TIP3    H1 1025   5.143   1.001   1.344
  380TIP3    H2 1026   5.152   0.980   1.492
  381TIP3   OH2 1027   5.549   1.799   0.424
  381TIP3    H1 1028   5.512   1.812   0.336
  381TIP3    H2 1029   5.569   1.893   0.447
  382TIP3   OH2 1030   5.311   1.738   1.204
  382TIP3    H1 1031   5.249   1.806   1.240
  382TIP3    H2 1032   5.354   1.787   1.131
  383TIP3   OH2 1033   5.074   1.080   1.196
  383TIP3    H1 1034   5.138   1.152   1.219
  383TIP3    H2 1035   5.122   1.038   1.121
  384TIP3   OH2 1036   5.139   1.933   1.304
  384TIP3    H1 1037   5.113   2.019   1.264
  384TIP3    H2 1038   5.060   1.917   1.360
  385TIP3   OH2 1039   4.553   1.624   0.556
  385TIP3    H1 1040   4.502   1.635   0.474
  385TIP3    H2 1041   4.569   1.716   0.585
  386TIP3   OH2 1042   5.978   2.147   0.788
  386TIP3    H1 1043   5.888   2.129   0.822
  386TIP3    H2 1044   5.962   2.228   0.736
  387TIP3   OH2 1045   6.235   1.044   1.165
  387TIP3    H1 1046   6.152   1.065   1.119
  387TIP3    H2 1047   6.302   1.074   1.100
  388TIP3   OH2 1048   5.568   0.714   1.138
  388TIP3    H1 1049   5.546   0.621   1.118
  388TIP3    H2 1050   5.486   0.744   1.182
  389TIP3   OH2 1051   6.199   2.050   1.122
  389TIP3    H1 1052   6.186   1.973   1.063
  389TIP3    H2 1053   6.180   2.125   1.061
  390TIP3   OH2 1054   5.486   1.453   0.374
  390TIP3    H1 1055   5.409   1.510   0.357
  390TIP3    H2 1056   5.525   1.445   0.285
  391TIP3   OH2 1057   6.388   1.683   0.961
  391TIP3    H1 1058   6.306   1.736   0.971
  391TIP3    H2 1059   6.419   1.715   0.873
  392TIP3   OH2 1060   5.825   1.537   0.385
  392TIP3    H1 1061   5.753   1.560   0.449
  392TIP3    H2 1062   5.902   1.544   0.444
  393TIP3   OH2 1063   6.073   1.566   1.264
  393TIP3    H1 1064   6.068   1.650   1.313
  393TIP3    H2 1065   5.987   1.568   1.217
  394TIP3   OH2 1066   5.069   1.522   0.769
  394TIP3    H1 1067   5.032   1.462   0.701
  394TIP3    H2 1068   5.147   1.471   0.800
  395TIP3   OH2 1069   5.197   1.933   0.919
  395TIP3    H1 1070   5.179   1.897   0.830
  395TIP3    H2 1071   5.288   1.900   0.936
  396TIP3   OH2 1072   5.203   1.497   1.123
  396TIP3    H1 1073   5.238   1.472   1.035
  396TIP3    H2 1074   5.249   1.581   1.142
  397TIP3   OH2 1075   5.734   2.134   0.903
  397TIP3    H1 1076   5.718   2.212   0.958
  397TIP3    H2 1077   5.717   2.059   0.964
  398TIP3   OH2 1078   5.344   2.053   1.447
  398TIP3    H1 1079   5.283   2.115   1.493
  398TIP3    H2 1080   5.280   1.999   1.397
  399TIP3   OH2 1081   5.099   1.608   1.550
  399TIP3    H1 1082   5.102   1.696   1.593
  399TIP3    H2 1083   5.004   1.589   1.558
  400TIP3   OH2 1084   5.138   2.222   1.534
  400TIP3    H1 1085   5.104   2.220   1.442
  400TIP3    H2 1086   5.057   2.199   1.586
  401TIP3   OH2 1087   4.939   1.363   0.569
  401TIP3    H1 1088   4.883   1.426   0.518
  401TIP3    H2 1089   4.878   1.289   0.581
  402TIP3   OH2 1090   4.716   1.752   1.480
  402TIP3    H1 1091   4.652   1.729   1.411
  402TIP3    H2 1092   4.754   1.665   1.505
  403TIP3   OH2 1093   4.572   1.944   1.113
  403TIP3    H1 1094   4.667   1.935   1.102
  403TIP3    H2 1095   4.566   2.023   1.169
  404TIP3   OH2 1096   6.435   2.396   1.168
  404TIP3    H1 1097   6.434   2.300   1.181
  404TIP3    H2 1098   6.351   2.420   1.214
  405TIP3   OH2 1099   5.542   2.181   1.305
  405TIP3    H1 1100   5.539   2.274   1.336
  405TIP3    H2 1101   5.470   2.141   1.358
  406TIP3   OH2 1102   5.281   2.314   0.243
  406TIP3    H1 1103   5.247   2.304   0.153
  406TIP3    H2 1104   5.264   2.407   0.265
  407TIP3   OH2 1105   4.738   2.160   0.641
  407TIP3    H1 1106   4.788   2.152   0.726
  407TIP3    H2 1107   4.688   2.076   0.642
  408TIP3   OH2 1108   5.483   2.224  -0.077
  408TIP3    H1 1109   5.553   2.175  -0.125
  408TIP3    H2 1110   5.524   2.237   0.010
  409TIP3   OH2 1111   5.548   2.272   0.183
  409TIP3    H1 1112   5.458   2.273   0.222
  409TIP3    H2 1113   5.593   2.222   0.256
  410TIP3   OH2 1114   6.324   1.530   1.443
  410TIP3    H1 1115   6.242   1.539   1.392
  410TIP3    H2 1116   6.343   1.434   1.430
  411TIP3   OH2 1117   4.921   1.935   1.469
  411TIP3    H1 1118   4.972   1.917   1.551
  411TIP3    H2 1119   4.847   1.871   1.476
  412TIP3   OH2 1120   5.318   0.761   1.253
  412TIP3    H1 1121   5.229   0.730   1.228
  412TIP3    H2 1122   5.293   0.843   1.301
  413TIP3   OH2 1123   5.858   0.878   1.450
  413TIP3    H1 1124   5.932   0.849   1.509
  413TIP3    H2 1125   5.779   0.860   1.504
  414TIP3   OH2 1126   6.093   1.302   1.367
  414TIP3    H1 1127   6.046   1.298   1.453
  414TIP3    H2 1128   6.067   1.390   1.332
  415TIP3   OH2 1129   5.253   1.274   1.272
  415TIP3    H1 1130   5.203   1.296   1.354
  415TIP3    H2 1131   5.237   1.355   1.218
  416TIP3   OH2 1132   5.137   1.163   0.792
  416TIP3    H1 1133   5.043   1.137   0.804
  416TIP3    H2 1134   5.152   1.131   0.700
  417TIP3   OH2 1135   5.581   1.269   0.552
  417TIP3    H1 1136   5.531   1.338   0.505
  417TIP3    H2 1137   5.635   1.235   0.478
  418TIP3   OH2 1138   5.803   1.524   1.601
  418TIP3    H1 1139   5.780   1.449   1.662
  418TIP3    H2 1140   5.897   1.534   1.621
  419TIP3   OH2 1141   5.789   1.271   0.744
  419TIP3    H1 1142   5.714   1.304   0.691
  419TIP3    H2 1143   5.804   1.187   0.697
  420TIP3   OH2 1144   5.071   1.302   1.481
  420TIP3    H1 1145   5.104   1.364   1.548
  420TIP3    H2 1146   5.061   1.220   1.532
  421TIP3   OH2 1147   4.674   0.821   1.054
  421TIP3    H1 1148   4.733   0.857   1.125
  421TIP3    H2 1149   4.731   0.829   0.977
  422TIP3   OH2 1150   5.795   1.519   1.176
  422TIP3    H1 1151   5.827   1.447   1.116
  422TIP3    H2 1152   5.766   1.464   1.252
  423TIP3   OH2 1153   5.455   0.997   0.852
  423TIP3    H1 1154   5.381   0.987   0.915
  423TIP3    H2 1155   5.532   0.973   0.906
  424TIP3   OH2 1156   4.896   1.036   0.856
  424TIP3    H1 1157   4.806   1.045   0.819
  424TIP3    H2 1158   4.925   0.947   0.827
  425TIP3   OH2 1159   5.174   1.052   0.545
  425TIP3    H1 1160   5.271   1.037   0.552
  425TIP3    H2 1161   5.160   1.050   0.450
  426TIP3   OH2 1162   5.941   1.056   1.049
  426TIP3    H1 1163   5.912   1.069   1.142
  426TIP3    H2 1164   5.871   0.995   1.017
  427TIP3   OH2 1165   6.127   2.747   1.268
  427TIP3    H1 1166   6.124   2.768   1.173
  427TIP3    H2 1167   6.207   2.794   1.298
  428TIP3   OH2 1168   5.082   1.857   1.689
  428TIP3    H1 1169   5.163   1.886   1.736
  428TIP3    H2 1170   5.018   1.855   1.763
  429TIP3   OH2 1171   5.547   1.313   0.947
  429TIP3    H1 1172   5.609   1.262   0.892
  429TIP3    H2 1173   5.556   1.268   1.033
  430TIP3   OH2 1174   5.062   0.797   0.818
  430TIP3    H1 1175   5.046   0.711   0.861
  430TIP3    H2 1176   5.126   0.774   0.749
  431TIP3   OH2 1177   5.523   1.206   1.236
  431TIP3    H1 1178   5.434   1.244   1.249
  431TIP3    H2 1179   5.582   1.266   1.285
  432TIP3   OH2 1180   5.262   1.607   0.325
  432TIP3    H1 1181   5.195   1.535   0.320
  432TIP3    H2 1182   5.246   1.640   0.417
  433TIP3   OH2 1183   6.159   1.832   0.958
  433TIP3    H1 1184   6.180   1.882   0.877
  433TIP3    H2 1185   6.073   1.791   0.936
  434TIP3   OH2 1186   5.659   1.915   1.327
  434TIP3    H1 1187   5.685   1.895   1.418
  434TIP3    H2 1188   5.622   2.004   1.333
  435TIP3   OH2 1189   4.953   1.620   1.004
  435TIP3    H1 1190   4.990   1.592   0.918
  435TIP3    H2 1191   4.997   1.559   1.065
  436TIP3   OH2 1192   5.403   1.743   0.130
  436TIP3    H1 1193   5.360   1.831   0.146
  436TIP3    H2 1194   5.364   1.693   0.205
  437TIP3   OH2 1195   4.832   1.541   1.619
  437TIP3    H1 1196   4.853   1.525   1.713
  437TIP3    H2 1197   4.765   1.472   1.602
  438TIP3   OH2 1198   5.560   1.654   1.638
  438TIP3    H1 1199   5.501   1.596   1.587
  438TIP3    H2 1200   5.648   1.620   1.611
  439TIP3   OH2 1201   5.821   2.176   1.224
  439TIP3    H1 1202   5.724   2.173   1.234
  439TIP3    H2 1203   5.846   2.229   1.302
  440TIP3   OH2 1204   6.449   2.107   1.211
  440TIP3    H1 1205   6.351   2.100   1.202
  440TIP3    H2 1206   6.475   2.077   1.121
  441TIP3   OH2 1207   5.932   2.052   0.024
  441TIP3    H1 1208   5.918   2.033   0.118
  441TIP3    H2 1209   5.876   1.984  -0.017
  442TIP3   OH2 1210   5.922   1.696   0.888
  442TIP3    H1 1211   5.828   1.670   0.896
  442TIP3    H2 1212   5.957   1.620   0.837
  443TIP3   OH2 1213   5.056   1.925   0.633
  443TIP3    H1 1214   5.058   2.005   0.577
  443TIP3    H2 1215   4.961   1.908   0.638
  444TIP3   OH2 1216   4.661   1.259   0.438
  444TIP3    H1 1217   4.702   1.347   0.427
  444TIP3    H2 1218   4.582   1.268   0.381
  445TIP3   OH2 1219   5.187   1.687   0.572
  445TIP3    H1 1220   5.157   1.777   0.593
  445TIP3    H2 1221   5.153   1.637   0.649
  446TIP3   OH2 1222   5.323   2.267   1.099
  446TIP3    H1 1223   5.364   2.339   1.047
  446TIP3    H2 1224   5.400   2.230   1.144
  447TIP3   OH2 1225   4.971   2.162   0.483
  447TIP3    H1 1226   4.886   2.173   0.529
  447TIP3    H2 1227   5.006   2.254   0.484
  448TIP3   OH2 1228   5.711   1.901   1.058
  448TIP3    H1 1229   5.702   1.897   1.156
  448TIP3    H2 1230   5.788   1.846   1.042
  449TIP3   OH2 1231   5.748   1.853  -0.030
  449TIP3    H1 1232   5.791   1.797   0.039
  449TIP3    H2 1233   5.680   1.899   0.022
  450TIP3   OH2 1234   5.959   2.436   1.109
  450TIP3    H1 1235   5.881   2.379   1.102
  450TIP3    H2 1236   5.943   2.500   1.036
  451TIP3   OH2 1237   5.991   2.279  -0.198
  451TIP3    H1 1238   6.060   2.341  -0.224
  451TIP3    H2 1239   5.919   2.340  -0.171
  452TIP3   OH2 1240   5.045   1.046   1.626
  452TIP3    H1 1241   4.948   1.048   1.639
  452TIP3    H2 1242   5.073   0.986   1.698
  453TIP3   OH2 1243   5.864   1.727   0.186
  453TIP3    H1 1244   5.824   1.661   0.248
  453TIP3    H2 1245   5.918   1.777   0.248
  454TIP3   OH2 1246   4.760   2.130   1.258
  454TIP3    H1 1247   4.814   2.054   1.287
  454TIP3    H2 1248   4.792   2.199   1.318
  455TIP3   OH2 1249   5.043   1.776  -0.065
  455TIP3    H1 1250   5.109   1.705  -0.074
  455TIP3    H2 1251   5.024   1.775   0.031
  456TIP3   OH2 1252   4.998   1.778   0.212
  456TIP3    H1 1253   5.073   1.751   0.267
  456TIP3    H2 1254   5.003   1.876   0.219
  457TIP3   OH2 1255   4.761   1.512   0.424
  457TIP3    H1 1256   4.695   1.551   0.486
  457TIP3    H2 1257   4.763   1.581   0.354
  458TIP3   OH2 1258   5.882   1.114   1.311
  458TIP3    H1 1259   5.967   1.147   1.343
  458TIP3    H2 1260   5.871   1.030   1.362
  459TIP3   OH2 1261   5.261   1.969   0.162
  459TIP3    H1 1262   5.181   2.007   0.203
  459TIP3    H2 1263   5.290   2.044   0.108
  460TIP3   OH2 1264   5.441   1.030   0.579
  460TIP3    H1 1265   5.498   1.108   0.574
  460TIP3    H2 1266   5.453   1.006   0.674
  461TIP3   OH2 1267   5.720   1.357   1.383
  461TIP3    H1 1268   5.744   1.407   1.463
  461TIP3    H2 1269   5.776   1.277   1.390
  462TIP3   OH2 1270   4.999   2.049   0.231
  462TIP3    H1 1271   4.975   2.121   0.169
  462TIP3    H2 1272   4.990   2.094   0.318
  463TIP3   OH2 1273   6.361   1.270   1.354
  463TIP3    H1 1274   6.263   1.266   1.364
  463TIP3    H2 1275   6.372   1.199   1.289
  464TIP3   OH2 1276   6.010   1.461   0.750
  464TIP3    H1 1277   5.934   1.399   0.749
  464TIP3    H2 1278   6.075   1.410   0.803
  465TIP3   OH2 1279   4.729   1.698   0.219
  465TIP3    H1 1280   4.807   1.755   0.229
  465TIP3    H2 1281   4.765   1.635   0.152
  466TIP3   OH2 1282   5.979   2.416   0.702
  466TIP3    H1 1283   5.935   2.465   0.629
  466TIP3    H2 1284   6.073   2.432   0.678
  467TIP3   OH2 1285   5.054   0.680   1.227
  467TIP3    H1 1286   5.026   0.639   1.143
  467TIP3    H2 1287   5.046   0.606   1.290
  468TIP3   OH2 1288   4.596   1.902   0.609
  468TIP3    H1 1289   4.524   1.930   0.668
  468TIP3    H2 1290   4.567   1.940   0.523
  469TIP3   OH2 1291   4.752   2.439   1.680
  469TIP3    H1 1292   4.839   2.438   1.726
  469TIP3    H2 1293   4.732   2.344   1.678
  470TIP3   OH2 1294   5.233   2.402   1.725
  470TIP3    H1 1295   5.328   2.381   1.731
  470TIP3    H2 1296   5.207   2.343   1.651
  471TIP3   OH2 1297   5.208   1.986  -0.138
  471TIP3    H1 1298   5.142   1.917  -0.115
  471TIP3    H2 1299   5.280   1.935  -0.177
  472TIP3   OH2 1300   5.869   2.312   1.461
  472TIP3    H1 1301   5.862   2.240   1.528
  472TIP3    H2 1302   5.949   2.360   1.490
  473TIP3   OH2 1303   5.693   2.087  -0.187
  473TIP3    H1 1304   5.729   1.997  -0.183
  473TIP3    H2 1305   5.771   2.139  -0.212
  474TIP3   OH2 1306   4.882   1.844   1.881
  474TIP3    H1 1307   4.899   1.748   1.885
  474TIP3    H2 1308   4.795   1.847   1.836
  475TIP3   OH2 1309   4.857   1.503   0.072
  475TIP3    H1 1310   4.922   1.466   0.134
  475TIP3    H2 1311   4.913   1.532  -0.001
  476TIP3   OH2 1312   5.488   1.929   1.654
  476TIP3    H1 1313   5.449   1.947   1.567
  476TIP3    H2 1314   5.521   1.837   1.646
  477TIP3   OH2 1315   5.270   1.621  -0.081
  477TIP3    H1 1316   5.294   1.666   0.002
  477TIP3    H2 1317   5.357   1.629  -0.126
  478TIP3   OH2 1318   5.983   1.940   1.262
  478TIP3    H1 1319   6.058   1.983   1.216
  478TIP3    H2 1320   5.912   2.004   1.246
  479TIP3   OH2 1321   5.001   1.580   1.863
  479TIP3    H1 1322   5.077   1.526   1.837
  479TIP3    H2 1323   5.029   1.611   1.951
  480TIP3   OH2 1324   5.079   1.404   0.310
  480TIP3    H1 1325   5.047   1.366   0.393
  480TIP3    H2 1326   5.064   1.332   0.246
  481TIP3   OH2 1327   5.335   1.462   1.523
  481TIP3    H1 1328   5.259   1.523   1.525
  481TIP3    H2 1329   5.387   1.496   1.446
  482TIP3   OH2 1330   5.855   1.866   1.658
  482TIP3    H1 1331   5.932   1.837   1.607
  482TIP3    H2 1332   5.851   1.798   1.728
  483TIP3   OH2 1333   5.458   1.252   1.652
  483TIP3    H1 1334   5.460   1.172   1.595
  483TIP3    H2 1335   5.415   1.317   1.592
  484TIP3   OH2 1336   5.461   1.040   1.458
  484TIP3    H1 1337   5.490   1.080   1.374
  484TIP3    H2 1338   5.368   1.017   1.438
  485TIP3   OH2 1339   5.488   1.574   1.333
  485TIP3    H1 1340   5.573   1.580   1.286
  485TIP3    H2 1341   5.434   1.640   1.286
  486TIP3   OH2 1342   6.073   1.541   1.713
  486TIP3    H1 1343   6.114   1.453   1.720
  486TIP3    H2 1344   6.144   1.593   1.674
  487TIP3   OH2 1345   6.112   1.795   1.450
  487TIP3    H1 1346   6.055   1.849   1.390
  487TIP3    H2 1347   6.200   1.813   1.410
  488TIP3   OH2 1348   5.336   1.363   1.882
  488TIP3    H1 1349   5.269   1.292   1.895
  488TIP3    H2 1350   5.372   1.339   1.794
  489TIP3   OH2 1351   5.594   0.807   1.531
  489TIP3    H1 1352   5.545   0.888   1.507
  489TIP3    H2 1353   5.528   0.737   1.517
  490TIP3   OH2 1354   5.720   1.306   1.741
  490TIP3    H1 1355   5.710   1.292   1.837
  490TIP3    H2 1356   5.629   1.281   1.712
  491TIP3   OH2 1357   5.968   1.260   1.602
  491TIP3    H1 1358   5.891   1.254   1.662
  491TIP3    H2 1359   6.039   1.218   1.655
  492TIP3   OH2 1360   6.201   1.193   1.752
  492TIP3    H1 1361   6.196   1.096   1.775
  492TIP3    H2 1362   6.192   1.231   1.841
  493TIP3   OH2 1363   5.177   1.143   1.935
  493TIP3    H1 1364   5.181   1.052   1.900
  493TIP3    H2 1365   5.215   1.129   2.025
  494TIP3   OH2 1366   5.686   0.806   1.789
  494TIP3    H1 1367   5.760   0.743   1.780
  494TIP3    H2 1368   5.649   0.804   1.698
  495TIP3   OH2 1369   5.750   1.022   1.949
  495TIP3    H1 1370   5.733   0.952   1.882
  495TIP3    H2 1371   5.674   1.083   1.935
  496TIP3   OH2 1372   4.960   2.250   0.045
  496TIP3    H1 1373   5.056   2.247   0.024
  496TIP3    H2 1374   4.926   2.294  -0.033
  497TIP3   OH2 1375   4.472   1.612   0.280
  497TIP3    H1 1376   4.562   1.649   0.265
  497TIP3    H2 1377   4.438   1.617   0.189
  498TIP3   OH2 1378   4.370   2.247   0.670
  498TIP3    H1 1379   4.302   2.184   0.636
  498TIP3    H2 1380   4.414   2.192   0.737
  499TIP3   OH2 1381   4.503   2.101   0.859
  499TIP3    H1 1382   4.493   2.027   0.921
  499TIP3    H2 1383   4.557   2.161   0.913
  500TIP3   OH2 1384   6.235   2.499   0.658
  500TIP3    H1 1385   6.262   2.531   0.746
  500TIP3    H2 1386   6.298   2.542   0.600
  501TIP3   OH2 1387   6.264   2.522   0.941
  501TIP3    H1 1388   6.217   2.436   0.935
  501TIP3    H2 1389   6.338   2.495   0.998
  502TIP3   OH2 1390   6.309   2.198   1.513
  502TIP3    H1 1391   6.236   2.206   1.578
  502TIP3    H2 1392   6.350   2.286   1.518
  503TIP3   OH2 1393   6.314   1.971   0.774
  503TIP3    H1 1394   6.358   1.906   0.717
  503TIP3    H2 1395   6.295   2.043   0.711
  504TIP3   OH2 1396   6.141   2.274   0.966
  504TIP3    H1 1397   6.068   2.313   1.017
  504TIP3    H2 1398   6.092   2.226   0.895
  505TIP3   OH2 1399   6.220   1.437   0.555
  505TIP3    H1 1400   6.167   1.401   0.481
  505TIP3    H2 1401   6.150   1.457   0.619
  506TIP3   OH2 1402   4.692   1.509   1.232
  506TIP3    H1 1403   4.691   1.476   1.139
  506TIP3    H2 1404   4.790   1.511   1.248
  507TIP3   OH2 1405   6.356   1.859   1.341
  507TIP3    H1 1406   6.428   1.792   1.331
  507TIP3    H2 1407   6.383   1.926   1.276
  508TIP3   OH2 1408   6.542   1.663   1.355
  508TIP3    H1 1409   6.466   1.613   1.394
  508TIP3    H2 1410   6.614   1.600   1.374
  509TIP3   OH2 1411   6.220   1.337   0.876
  509TIP3    H1 1412   6.298   1.370   0.829
  509TIP3    H2 1413   6.235   1.370   0.967
  510TIP3   OH2 1414   6.295   1.470   1.105
  510TIP3    H1 1415   6.217   1.500   1.156
  510TIP3    H2 1416   6.324   1.554   1.062
  511TIP3   OH2 1417   4.910   1.194   1.909
  511TIP3    H1 1418   5.008   1.187   1.908
  511TIP3    H2 1419   4.887   1.107   1.947
  512TIP3   OH2 1420   6.756   1.091   1.670
  512TIP3    H1 1421   6.798   1.011   1.634
  512TIP3    H2 1422   6.718   1.131   1.588
  513TIP3   OH2 1423   4.871   0.889   1.233
  513TIP3    H1 1424   4.932   0.813   1.245
  513TIP3    H2 1425   4.935   0.963   1.229
  514TIP3   OH2 1426   4.676   1.160   1.307
  514TIP3    H1 1427   4.726   1.156   1.223
  514TIP3    H2 1428   4.705   1.245   1.342
  515TIP3   OH2 1429   6.612   1.203   1.466
  515TIP3    H1 1430   6.524   1.240   1.483
  515TIP3    H2 1431   6.586   1.128   1.407
  516TIP3   OH2 1432   5.804   2.419   0.300
  516TIP3    H1 1433   5.848   2.365   0.233
  516TIP3    H2 1434   5.867   2.415   0.373
  517TIP3   OH2 1435   4.878   0.741   1.620
  517TIP3    H1 1436   4.831   0.738   1.705
  517TIP3    H2 1437   4.811   0.783   1.563
  518TIP3   OH2 1438   4.917   2.174   1.700
  518TIP3    H1 1439   4.826   2.144   1.682
  518TIP3    H2 1440   4.928   2.151   1.793
  519TIP3   OH2 1441   5.096   2.205   1.248
  519TIP3    H1 1442   5.050   2.281   1.208
  519TIP3    H2 1443   5.183   2.217   1.204
  520TIP3   OH2 1444   5.540   2.448   1.387
  520TIP3    H1 1445   5.583   2.448   1.475
  520TIP3    H2 1446   5.605   2.499   1.334
  521TIP3   OH2 1447   5.717   2.601   1.245
  521TIP3    H1 1448   5.785   2.550   1.199
  521TIP3    H2 1449   5.773   2.656   1.305
  522TIP3   OH2 1450   6.488   0.985   1.350
  522TIP3    H1 1451   6.417   0.966   1.286
  522TIP3    H2 1452   6.552   0.913   1.331
  523TIP3   OH2 1453   4.772   2.461   1.270
  523TIP3    H1 1454   4.682   2.496   1.248
  523TIP3    H2 1455   4.782   2.496   1.359
  524TIP3   OH2 1456   5.009   2.440   1.130
  524TIP3    H1 1457   4.922   2.453   1.174
  524TIP3    H2 1458   4.991   2.471   1.039
  525TIP3   OH2 1459   5.432   2.466   0.933
  525TIP3    H1 1460   5.369   2.484   0.860
  525TIP3    H2 1461   5.446   2.555   0.971
  526TIP3   OH2 1462   5.703   2.409   0.984
  526TIP3    H1 1463   5.609   2.420   0.960
  526TIP3    H2 1464   5.745   2.477   0.929
  527TIP3   OH2 1465   5.916   2.602   0.894
  527TIP3    H1 1466   5.897   2.684   0.844
  527TIP3    H2 1467   5.938   2.539   0.822
  528TIP3   OH2 1468   4.683   2.253   1.016
  528TIP3    H1 1469   4.711   2.228   1.107
  528TIP3    H2 1470   4.755   2.210   0.965
  529TIP3   OH2 1471   4.878   2.126   0.874
  529TIP3    H1 1472   4.894   2.041   0.923
  529TIP3    H2 1473   4.969   2.162   0.870
  530TIP3   OH2 1474   5.143   2.221   0.878
  530TIP3    H1 1475   5.176   2.132   0.860
  530TIP3    H2 1476   5.190   2.241   0.961
  531TIP3   OH2 1477   5.728   0.881   0.971
  531TIP3    H1 1478   5.677   0.825   1.033
  531TIP3    H2 1479   5.763   0.814   0.909
  532TIP3   OH2 1480   4.984   0.565   0.981
  532TIP3    H1 1481   4.895   0.531   0.967
  532TIP3    H2 1482   5.037   0.486   0.961
  533TIP3   OH2 1483   4.471   2.023   0.405
  533TIP3    H1 1484   4.387   1.992   0.368
  533TIP3    H2 1485   4.458   2.119   0.400
  534TIP3   OH2 1486   5.222   2.228  -0.019
  534TIP3    H1 1487   5.315   2.246  -0.046
  534TIP3    H2 1488   5.210   2.144  -0.069
  535TIP3   OH2 1489   5.966   2.324   0.090
  535TIP3    H1 1490   5.969   2.232   0.057
  535TIP3    H2 1491   5.910   2.365   0.022
  536TIP3   OH2 1492   5.172   0.872   1.872
  536TIP3    H1 1493   5.137   0.793   1.916
  536TIP3    H2 1494   5.266   0.867   1.899
  537TIP3   OH2 1495   5.423   0.869   1.987
  537TIP3    H1 1496   5.508   0.843   1.949
  537TIP3    H2 1497   5.409   0.801   2.057
  538TIP3   OH2 1498   4.556   2.057   0.065
  538TIP3    H1 1499   4.537   2.095   0.151
  538TIP3    H2 1500   4.647   2.026   0.075
  539TIP3   OH2 1501   6.188   2.477   1.270
  539TIP3    H1 1502   6.110   2.445   1.221
  539TIP3    H2 1503   6.167   2.573   1.274
  540TIP3   OH2 1504   6.757   1.759   0.797
  540TIP3    H1 1505   6.776   1.679   0.850
  540TIP3    H2 1506   6.828   1.817   0.830
  541TIP3   OH2 1507   6.724   2.178   0.515
  541TIP3    H1 1508   6.713   2.083   0.538
  541TIP3    H2 1509   6.820   2.180   0.500
  542TIP3   OH2 1510   7.375   2.572   0.125
  542TIP3    H1 1511   7.359   2.477   0.117
  542TIP3    H2 1512   7.356   2.583   0.220
  543TIP3   OH2 1513   7.103   1.998   0.705
  543TIP3    H1 1514   7.030   2.056   0.734
  543TIP3    H2 1515   7.154   2.059   0.650
  544TIP3   OH2 1516   6.930   2.192   0.790
  544TIP3    H1 1517   6.905   2.279   0.753
  544TIP3    H2 1518   6.851   2.176   0.846
  545TIP3   OH2 1519   7.935   2.305   0.610
  545TIP3    H1 1520   7.872   2.262   0.550
  545TIP3    H2 1521   7.929   2.398   0.581
  546TIP3   OH2 1522   6.990   2.194   0.405
  546TIP3    H1 1523   6.977   2.152   0.318
  546TIP3    H2 1524   7.086   2.188   0.414
  547TIP3   OH2 1525   7.457   2.402   0.371
  547TIP3    H1 1526   7.496   2.487   0.400
  547TIP3    H2 1527   7.492   2.342   0.439
  548TIP3   OH2 1528   7.136   2.308   0.936
  548TIP3    H1 1529   7.076   2.370   0.982
  548TIP3    H2 1530   7.071   2.255   0.885
  549TIP3   OH2 1531   6.892   1.867   1.035
  549TIP3    H1 1532   6.900   1.953   1.082
  549TIP3    H2 1533   6.798   1.846   1.054
  550TIP3   OH2 1534   6.933   2.478   1.021
  550TIP3    H1 1535   6.898   2.477   0.930
  550TIP3    H2 1536   6.853   2.456   1.074
  551TIP3   OH2 1537   6.514   2.010   0.967
  551TIP3    H1 1538   6.445   1.989   0.901
  551TIP3    H2 1539   6.547   1.921   0.993
  552TIP3   OH2 1540   6.368   2.203   0.595
  552TIP3    H1 1541   6.465   2.202   0.592
  552TIP3    H2 1542   6.351   2.279   0.652
  553TIP3   OH2 1543   8.230   2.668   0.654
  553TIP3    H1 1544   8.230   2.570   0.662
  553TIP3    H2 1545   8.146   2.687   0.702
  554TIP3   OH2 1546   7.330   2.435   0.792
  554TIP3    H1 1547   7.336   2.528   0.824
  554TIP3    H2 1548   7.259   2.399   0.851
  555TIP3   OH2 1549   6.527   2.428   0.135
  555TIP3    H1 1550   6.573   2.415   0.221
  555TIP3    H2 1551   6.476   2.344   0.130
  556TIP3   OH2 1552   6.717   2.193   0.957
  556TIP3    H1 1553   6.767   2.174   1.039
  556TIP3    H2 1554   6.643   2.128   0.963
  557TIP3   OH2 1555   7.603   1.804   1.102
  557TIP3    H1 1556   7.581   1.721   1.150
  557TIP3    H2 1557   7.700   1.801   1.107
  558TIP3   OH2 1558   6.838   1.554   0.971
  558TIP3    H1 1559   6.899   1.612   1.018
  558TIP3    H2 1560   6.840   1.474   1.029
  559TIP3   OH2 1561   7.924   3.004   0.759
  559TIP3    H1 1562   7.920   3.024   0.663
  559TIP3    H2 1563   8.001   3.055   0.788
  560TIP3   OH2 1564   6.879   2.114   1.177
  560TIP3    H1 1565   6.959   2.144   1.225
  560TIP3    H2 1566   6.815   2.112   1.250
  561TIP3   OH2 1567   7.445   2.172   0.822
  561TIP3    H1 1568   7.472   2.148   0.912
  561TIP3    H2 1569   7.404   2.260   0.835
  562TIP3   OH2 1570   6.733   1.912   0.566
  562TIP3    H1 1571   6.762   1.855   0.491
  562TIP3    H2 1572   6.745   1.854   0.643
  563TIP3   OH2 1573   6.627   1.798   1.107
  563TIP3    H1 1574   6.651   1.785   1.201
  563TIP3    H2 1575   6.566   1.724   1.093
  564TIP3   OH2 1576   7.355   1.913   1.123
  564TIP3    H1 1577   7.313   1.877   1.043
  564TIP3    H2 1578   7.447   1.879   1.110
  565TIP3   OH2 1579   7.631   2.511   0.701
  565TIP3    H1 1580   7.568   2.439   0.685
  565TIP3    H2 1581   7.629   2.522   0.798
  566TIP3   OH2 1582   8.239   2.395   0.695
  566TIP3    H1 1583   8.165   2.361   0.749
  566TIP3    H2 1584   8.237   2.334   0.618
  567TIP3   OH2 1585   6.781   2.206   0.116
  567TIP3    H1 1586   6.781   2.286   0.059
  567TIP3    H2 1587   6.688   2.201   0.142
  568TIP3   OH2 1588   7.121   2.520   0.585
  568TIP3    H1 1589   7.165   2.591   0.535
  568TIP3    H2 1590   7.197   2.484   0.635
  569TIP3   OH2 1591   6.727   2.424  -0.050
  569TIP3    H1 1592   6.651   2.439   0.011
  569TIP3    H2 1593   6.777   2.508  -0.041
  570TIP3   OH2 1594   7.565   2.255   0.592
  570TIP3    H1 1595   7.502   2.212   0.655
  570TIP3    H2 1596   7.623   2.180   0.570
  571TIP3   OH2 1597   7.772   2.707   0.593
  571TIP3    H1 1598   7.707   2.636   0.617
  571TIP3    H2 1599   7.726   2.754   0.520
  572TIP3   OH2 1600   6.846   1.322   1.121
  572TIP3    H1 1601   6.749   1.325   1.126
  572TIP3    H2 1602   6.860   1.236   1.165
  573TIP3   OH2 1603   6.558   2.387   0.746
  573TIP3    H1 1604   6.609   2.310   0.775
  573TIP3    H2 1605   6.587   2.454   0.809
  574TIP3   OH2 1606   7.786   2.686   0.193
  574TIP3    H1 1607   7.739   2.738   0.124
  574TIP3    H2 1608   7.879   2.704   0.168
  575TIP3   OH2 1609   6.416   2.178   0.114
  575TIP3    H1 1610   6.331   2.172   0.159
  575TIP3    H2 1611   6.386   2.194   0.022
  576TIP3   OH2 1612   6.548   2.696   1.167
  576TIP3    H1 1613   6.635   2.694   1.213
  576TIP3    H2 1614   6.527   2.601   1.165
  577TIP3   OH2 1615   7.030   2.659   1.210
  577TIP3    H1 1616   7.124   2.638   1.218
  577TIP3    H2 1617   7.003   2.599   1.138
  578TIP3   OH2 1618   7.661   2.576   0.966
  578TIP3    H1 1619   7.657   2.499   1.028
  578TIP3    H2 1620   7.745   2.619   0.991
  579TIP3   OH2 1621   6.678   2.102   1.367
  579TIP3    H1 1622   6.695   2.006   1.373
  579TIP3    H2 1623   6.591   2.103   1.323
  580TIP3   OH2 1624   7.286   2.186   1.141
  580TIP3    H1 1625   7.244   2.201   1.054
  580TIP3    H2 1626   7.317   2.093   1.135
  581TIP3   OH2 1627   7.763   2.203   0.806
  581TIP3    H1 1628   7.831   2.255   0.759
  581TIP3    H2 1629   7.682   2.239   0.768
  582TIP3   OH2 1630   6.799   1.838   1.347
  582TIP3    H1 1631   6.871   1.777   1.327
  582TIP3    H2 1632   6.825   1.869   1.437
  583TIP3   OH2 1633   7.106   1.690   1.015
  583TIP3    H1 1634   7.039   1.760   1.029
  583TIP3    H2 1635   7.168   1.739   0.956
  584TIP3   OH2 1636   7.654   2.120   1.144
  584TIP3    H1 1637   7.729   2.086   1.092
  584TIP3    H2 1638   7.642   2.048   1.208
  585TIP3   OH2 1639   7.271   1.540   1.171
  585TIP3    H1 1640   7.255   1.456   1.125
  585TIP3    H2 1641   7.223   1.601   1.110
  586TIP3   OH2 1642   7.262   1.844   0.860
  586TIP3    H1 1643   7.338   1.846   0.798
  586TIP3    H2 1644   7.198   1.898   0.807
  587TIP3   OH2 1645   7.865   1.799   1.200
  587TIP3    H1 1646   7.914   1.727   1.246
  587TIP3    H2 1647   7.937   1.850   1.160
  588TIP3   OH2 1648   7.898   2.042   0.976
  588TIP3    H1 1649   7.836   2.090   0.917
  588TIP3    H2 1650   7.974   2.037   0.915
  589TIP3   OH2 1651   7.121   1.637   1.380
  589TIP3    H1 1652   7.059   1.562   1.390
  589TIP3    H2 1653   7.167   1.614   1.297
  590TIP3   OH2 1654   7.525   1.594   1.259
  590TIP3    H1 1655   7.500   1.577   1.351
  590TIP3    H2 1656   7.441   1.572   1.214
  591TIP3   OH2 1657   6.978   1.409   1.427
  591TIP3    H1 1658   6.968   1.314   1.404
  591TIP3    H2 1659   7.010   1.399   1.518
  592TIP3   OH2 1660   7.560   1.301   1.437
  592TIP3    H1 1661   7.574   1.269   1.347
  592TIP3    H2 1662   7.481   1.359   1.429
  593TIP3   OH2 1663   6.164   2.511   0.157
  593TIP3    H1 1664   6.100   2.446   0.123
  593TIP3    H2 1665   6.211   2.455   0.223
  594TIP3   OH2 1666   6.295   2.366   0.351
  594TIP3    H1 1667   6.288   2.287   0.406
  594TIP3    H2 1668   6.350   2.422   0.408
  595TIP3   OH2 1669   8.052   2.776   0.156
  595TIP3    H1 1670   8.064   2.799   0.250
  595TIP3    H2 1671   8.100   2.850   0.114
  596TIP3   OH2 1672   8.067   2.786   0.434
  596TIP3    H1 1673   8.020   2.700   0.434
  596TIP3    H2 1674   8.143   2.762   0.490
  597TIP3   OH2 1675   8.105   2.455   0.995
  597TIP3    H1 1676   8.033   2.460   1.061
  597TIP3    H2 1677   8.146   2.544   1.004
  598TIP3   OH2 1678   7.946   2.542   0.469
  598TIP3    H1 1679   7.878   2.597   0.514
  598TIP3    H2 1680   7.890   2.498   0.400
  599TIP3   OH2 1681   6.492   1.755   0.721
  599TIP3    H1 1682   6.508   1.712   0.634
  599TIP3    H2 1683   6.585   1.770   0.750
  600TIP3   OH2 1684   6.710   1.456   1.406
  600TIP3    H1 1685   6.807   1.446   1.398
  600TIP3    H2 1686   6.686   1.367   1.438
  601TIP3   OH2 1687   6.466   1.424   0.781
  601TIP3    H1 1688   6.434   1.458   0.695
  601TIP3    H2 1689   6.475   1.506   0.833
  602TIP3   OH2 1690   6.713   2.431   1.187
  602TIP3    H1 1691   6.622   2.401   1.170
  602TIP3    H2 1692   6.725   2.406   1.279
  603TIP3   OH2 1693   6.893   2.462   0.735
  603TIP3    H1 1694   6.845   2.536   0.695
  603TIP3    H2 1695   6.979   2.475   0.691
  604TIP3   OH2 1696   7.336   2.705   0.873
  604TIP3    H1 1697   7.378   2.705   0.961
  604TIP3    H2 1698   7.403   2.754   0.820
  605TIP3   OH2 1699   7.514   2.857   0.729
  605TIP3    H1 1700   7.583   2.800   0.691
  605TIP3    H2 1701   7.568   2.913   0.789
  606TIP3   OH2 1702   6.570   2.721   0.756
  606TIP3    H1 1703   6.479   2.753   0.734
  606TIP3    H2 1704   6.577   2.751   0.847
  607TIP3   OH2 1705   6.806   2.697   0.616
  607TIP3    H1 1706   6.719   2.709   0.661
  607TIP3    H2 1707   6.785   2.727   0.526
  608TIP3   OH2 1708   7.234   2.728   0.405
  608TIP3    H1 1709   7.155   2.747   0.351
  608TIP3    H2 1710   7.245   2.813   0.453
  609TIP3   OH2 1711   7.504   2.668   0.444
  609TIP3    H1 1712   7.408   2.686   0.438
  609TIP3    H2 1713   7.543   2.754   0.421
  610TIP3   OH2 1714   7.698   2.868   0.380
  610TIP3    H1 1715   7.691   2.951   0.328
  610TIP3    H2 1716   7.730   2.805   0.312
  611TIP3   OH2 1717   6.479   2.515   0.507
  611TIP3    H1 1718   6.507   2.485   0.597
  611TIP3    H2 1719   6.551   2.472   0.455
  612TIP3   OH2 1720   6.672   2.393   0.361
  612TIP3    H1 1721   6.686   2.310   0.412
  612TIP3    H2 1722   6.764   2.427   0.354
  613TIP3   OH2 1723   6.941   2.484   0.363
  613TIP3    H1 1724   6.969   2.393   0.344
  613TIP3    H2 1725   6.986   2.499   0.448
  614TIP3   OH2 1726   6.280   2.275  -0.100
  614TIP3    H1 1727   6.204   2.226  -0.135
  614TIP3    H2 1728   6.260   2.366  -0.133
  615TIP3   OH2 1729   6.954   1.142   1.406
  615TIP3    H1 1730   6.925   1.062   1.452
  615TIP3    H2 1731   7.018   1.105   1.341
  616TIP3   OH2 1732   7.252   1.126   1.492
  616TIP3    H1 1733   7.294   1.056   1.442
  616TIP3    H2 1734   7.212   1.075   1.566
  617TIP3   OH2 1735   7.987   2.736   0.762
  617TIP3    H1 1736   7.910   2.707   0.708
  617TIP3    H2 1737   7.967   2.832   0.767
  618TIP3   OH2 1738   8.340   2.947   0.654
  618TIP3    H1 1739   8.428   2.933   0.693
  618TIP3    H2 1740   8.308   2.855   0.649
  619TIP3   OH2 1741   8.455   2.357   0.855
  619TIP3    H1 1742   8.439   2.262   0.862
  619TIP3    H2 1743   8.378   2.382   0.801
  620TIP3   OH2 1744   8.504   2.658   0.691
  620TIP3    H1 1745   8.409   2.654   0.670
  620TIP3    H2 1746   8.504   2.646   0.787
  621TIP3   OH2 1747   8.349   2.986   0.215
  621TIP3    H1 1748   8.264   3.033   0.230
  621TIP3    H2 1749   8.386   2.985   0.304
  622TIP3   OH2 1750   0.692   3.450   2.372
  622TIP3    H1 1751   0.670   3.358   2.344
  622TIP3    H2 1752   0.604   3.476   2.409
  623TIP3   OH2 1753   0.370   3.792   2.442
  623TIP3    H1 1754   0.369   3.815   2.347
  623TIP3    H2 1755   0.450   3.841   2.472
  624TIP3   OH2 1756   0.526   3.302   2.668
  624TIP3    H1 1757   0.473   3.260   2.739
  624TIP3    H2 1758   0.612   3.311   2.710
  625TIP3   OH2 1759   0.445   3.530   2.459
  625TIP3    H1 1760   0.361   3.484   2.459
  625TIP3    H2 1761   0.417   3.624   2.454
  626TIP3   OH2 1762   1.951   3.187   1.275
  626TIP3    H1 1763   1.932   3.125   1.347
  626TIP3    H2 1764   1.980   3.266   1.325
  627TIP3   OH2 1765   1.597   3.660   1.289
  627TIP3    H1 1766   1.638   3.582   1.247
  627TIP3    H2 1767   1.571   3.625   1.375
  628TIP3   OH2 1768   1.499   3.142   1.642
  628TIP3    H1 1769   1.519   3.047   1.632
  628TIP3    H2 1770   1.589   3.176   1.659
  629TIP3   OH2 1771   2.525   2.437   1.635
  629TIP3    H1 1772   2.551   2.516   1.687
  629TIP3    H2 1773   2.531   2.472   1.545
  630TIP3   OH2 1774   2.588   2.643   1.810
  630TIP3    H1 1775   2.505   2.693   1.793
  630TIP3    H2 1776   2.609   2.676   1.899
  631TIP3   OH2 1777   1.368   3.058   1.902
  631TIP3    H1 1778   1.288   3.111   1.919
  631TIP3    H2 1779   1.386   3.077   1.808
  632TIP3   OH2 1780   1.169   3.238   1.970
  632TIP3    H1 1781   1.151   3.326   1.933
  632TIP3    H2 1782   1.100   3.234   2.040
  633TIP3   OH2 1783   2.019   3.440   1.434
  633TIP3    H1 1784   1.932   3.429   1.480
  633TIP3    H2 1785   2.008   3.531   1.399
  634TIP3   OH2 1786   2.330   2.352   1.816
  634TIP3    H1 1787   2.236   2.365   1.797
  634TIP3    H2 1788   2.373   2.384   1.734
  635TIP3   OH2 1789   1.737   3.478   1.128
  635TIP3    H1 1790   1.816   3.430   1.156
  635TIP3    H2 1791   1.774   3.546   1.068
  636TIP3   OH2 1792   2.244   3.361   1.791
  636TIP3    H1 1793   2.235   3.280   1.736
  636TIP3    H2 1794   2.225   3.432   1.725
  637TIP3   OH2 1795   2.443   2.986   1.629
  637TIP3    H1 1796   2.362   3.041   1.639
  637TIP3    H2 1797   2.471   3.014   1.539
  638TIP3   OH2 1798   2.135   2.868   1.932
  638TIP3    H1 1799   2.119   2.954   1.974
  638TIP3    H2 1800   2.046   2.851   1.893
  639TIP3   OH2 1801   1.784   3.436   1.562
  639TIP3    H1 1802   1.765   3.513   1.619
  639TIP3    H2 1803   1.767   3.360   1.622
  640TIP3   OH2 1804   1.388   3.354   2.108
  640TIP3    H1 1805   1.325   3.414   2.153
  640TIP3    H2 1806   1.327   3.298   2.057
  641TIP3   OH2 1807   1.142   2.943   2.223
  641TIP3    H1 1808   1.139   3.023   2.278
  641TIP3    H2 1809   1.055   2.904   2.245
  642TIP3   OH2 1810   1.182   3.525   2.200
  642TIP3    H1 1811   1.150   3.524   2.108
  642TIP3    H2 1812   1.102   3.501   2.251
  643TIP3   OH2 1813   2.479   3.697   1.830
  643TIP3    H1 1814   2.479   3.601   1.845
  643TIP3    H2 1815   2.396   3.721   1.878
  644TIP3   OH2 1816   1.583   3.484   1.966
  644TIP3    H1 1817   1.582   3.576   2.000
  644TIP3    H2 1818   1.512   3.443   2.020
  645TIP3   OH2 1819   2.369   2.829   2.107
  645TIP3    H1 1820   2.287   2.842   2.055
  645TIP3    H2 1821   2.383   2.733   2.096
  646TIP3   OH2 1822   0.976   3.253   2.166
  646TIP3    H1 1823   1.018   3.228   2.251
  646TIP3    H2 1824   0.930   3.172   2.139
  647TIP3   OH2 1825   2.141   2.599   2.028
  647TIP3    H1 1826   2.090   2.593   2.113
  647TIP3    H2 1827   2.113   2.685   1.993
  648TIP3   OH2 1828   1.853   2.826   2.262
  648TIP3    H1 1829   1.828   2.754   2.323
  648TIP3    H2 1830   1.946   2.839   2.286
  649TIP3   OH2 1831   1.880   2.804   1.859
  649TIP3    H1 1832   1.818   2.809   1.783
  649TIP3    H2 1833   1.814   2.803   1.930
  650TIP3   OH2 1834   2.171   4.048   1.932
  650TIP3    H1 1835   2.169   4.070   1.837
  650TIP3    H2 1836   2.251   4.096   1.962
  651TIP3   OH2 1837   1.102   3.161   2.395
  651TIP3    H1 1838   1.187   3.196   2.431
  651TIP3    H2 1839   1.059   3.131   2.477
  652TIP3   OH2 1840   2.222   3.144   1.628
  652TIP3    H1 1841   2.243   3.192   1.545
  652TIP3    H2 1842   2.134   3.105   1.608
  653TIP3   OH2 1843   1.730   3.236   1.990
  653TIP3    H1 1844   1.713   3.179   2.067
  653TIP3    H2 1845   1.663   3.305   1.998
  654TIP3   OH2 1846   1.612   2.964   2.299
  654TIP3    H1 1847   1.553   2.899   2.259
  654TIP3    H2 1848   1.699   2.928   2.272
  655TIP3   OH2 1849   1.868   3.500   1.876
  655TIP3    H1 1850   1.777   3.471   1.892
  655TIP3    H2 1851   1.890   3.538   1.964
  656TIP3   OH2 1852   2.496   3.410   1.874
  656TIP3    H1 1853   2.398   3.403   1.868
  656TIP3    H2 1854   2.520   3.377   1.784
  657TIP3   OH2 1855   1.991   3.017   1.558
  657TIP3    H1 1856   1.896   2.998   1.561
  657TIP3    H2 1857   2.026   2.927   1.541
  658TIP3   OH2 1858   1.373   3.563   1.771
  658TIP3    H1 1859   1.412   3.636   1.720
  658TIP3    H2 1860   1.451   3.527   1.816
  659TIP3   OH2 1861   1.769   3.210   1.722
  659TIP3    H1 1862   1.749   3.209   1.818
  659TIP3    H2 1863   1.839   3.144   1.718
  660TIP3   OH2 1864   2.007   3.736   1.775
  660TIP3    H1 1865   1.932   3.673   1.777
  660TIP3    H2 1866   1.982   3.795   1.700
  661TIP3   OH2 1867   0.812   3.426   1.929
  661TIP3    H1 1868   0.848   3.336   1.938
  661TIP3    H2 1869   0.847   3.468   2.007
  662TIP3   OH2 1870   1.910   2.435   1.982
  662TIP3    H1 1871   2.003   2.459   1.997
  662TIP3    H2 1872   1.912   2.339   1.979
  663TIP3   OH2 1873   1.739   2.640   2.079
  663TIP3    H1 1874   1.784   2.710   2.130
  663TIP3    H2 1875   1.812   2.584   2.048
  664TIP3   OH2 1876   2.408   2.561   2.031
  664TIP3    H1 1877   2.310   2.560   2.037
  664TIP3    H2 1878   2.419   2.518   1.944
  665TIP3   OH2 1879   2.059   2.748   1.506
  665TIP3    H1 1880   2.024   2.660   1.482
  665TIP3    H2 1881   2.151   2.720   1.524
  666TIP3   OH2 1882   2.024   3.712   1.363
  666TIP3    H1 1883   1.982   3.760   1.288
  666TIP3    H2 1884   2.119   3.731   1.343
  667TIP3   OH2 1885   0.794   3.737   2.345
  667TIP3    H1 1886   0.882   3.726   2.387
  667TIP3    H2 1887   0.768   3.643   2.337
  668TIP3   OH2 1888   1.278   3.706   2.386
  668TIP3    H1 1889   1.371   3.680   2.395
  668TIP3    H2 1890   1.250   3.645   2.315
  669TIP3   OH2 1891   1.914   3.613   2.125
  669TIP3    H1 1892   1.906   3.541   2.191
  669TIP3    H2 1893   1.994   3.660   2.155
  670TIP3   OH2 1894   1.532   3.233   2.320
  670TIP3    H1 1895   1.490   3.247   2.233
  670TIP3    H2 1896   1.567   3.142   2.312
  671TIP3   OH2 1897   2.032   3.232   1.925
  671TIP3    H1 1898   2.095   3.293   1.882
  671TIP3    H2 1899   1.948   3.281   1.918
  672TIP3   OH2 1900   1.060   2.838   2.545
  672TIP3    H1 1901   1.155   2.836   2.562
  672TIP3    H2 1902   1.031   2.920   2.594
  673TIP3   OH2 1903   1.419   2.781   2.196
  673TIP3    H1 1904   1.346   2.844   2.204
  673TIP3    H2 1905   1.458   2.806   2.108
  674TIP3   OH2 1906   1.902   3.170   2.325
  674TIP3    H1 1907   1.973   3.135   2.270
  674TIP3    H2 1908   1.895   3.102   2.395
  675TIP3   OH2 1909   1.529   2.568   2.322
  675TIP3    H1 1910   1.529   2.494   2.260
  675TIP3    H2 1911   1.494   2.641   2.266
  676TIP3   OH2 1912   1.555   2.883   1.982
  676TIP3    H1 1913   1.583   2.862   1.891
  676TIP3    H2 1914   1.489   2.953   1.961
  677TIP3   OH2 1915   2.119   2.840   2.376
  677TIP3    H1 1916   2.168   2.757   2.378
  677TIP3    H2 1917   2.184   2.901   2.337
  678TIP3   OH2 1918   2.159   3.098   2.119
  678TIP3    H1 1919   2.101   3.149   2.057
  678TIP3    H2 1920   2.246   3.116   2.076
  679TIP3   OH2 1921   1.352   2.696   2.521
  679TIP3    H1 1922   1.321   2.614   2.564
  679TIP3    H2 1923   1.404   2.661   2.446
  680TIP3   OH2 1924   1.783   2.607   2.412
  680TIP3    H1 1925   1.760   2.611   2.506
  680TIP3    H2 1926   1.694   2.589   2.375
  681TIP3   OH2 1927   2.012   2.557   2.261
  681TIP3    H1 1928   1.932   2.563   2.318
  681TIP3    H2 1929   2.081   2.527   2.323
  682TIP3   OH2 1930   2.241   2.498   2.413
  682TIP3    H1 1931   2.249   2.402   2.432
  682TIP3    H2 1932   2.233   2.538   2.502
  683TIP3   OH2 1933   1.281   2.463   2.640
  683TIP3    H1 1934   1.198   2.423   2.606
  683TIP3    H2 1935   1.278   2.441   2.734
  684TIP3   OH2 1936   1.743   2.114   2.473
  684TIP3    H1 1937   1.819   2.054   2.453
  684TIP3    H2 1938   1.718   2.141   2.384
  685TIP3   OH2 1939   1.794   2.327   2.635
  685TIP3    H1 1940   1.780   2.262   2.563
  685TIP3    H2 1941   1.723   2.392   2.618
  686TIP3   OH2 1942   2.277   3.804   1.321
  686TIP3    H1 1943   2.304   3.831   1.411
  686TIP3    H2 1944   2.345   3.847   1.266
  687TIP3   OH2 1945   2.310   3.820   1.602
  687TIP3    H1 1946   2.261   3.735   1.599
  687TIP3    H2 1947   2.381   3.795   1.663
  688TIP3   OH2 1948   2.354   3.499   2.176
  688TIP3    H1 1949   2.281   3.506   2.241
  688TIP3    H2 1950   2.395   3.588   2.182
  689TIP3   OH2 1951   2.356   3.275   1.429
  689TIP3    H1 1952   2.407   3.207   1.382
  689TIP3    H2 1953   2.344   3.344   1.360
  690TIP3   OH2 1954   2.181   3.574   1.623
  690TIP3    H1 1955   2.110   3.611   1.678
  690TIP3    H2 1956   2.131   3.524   1.555
  691TIP3   OH2 1957   2.401   3.161   2.004
  691TIP3    H1 1958   2.473   3.094   1.994
  691TIP3    H2 1959   2.427   3.228   1.939
  692TIP3   OH2 1960   2.585   2.965   2.017
  692TIP3    H1 1961   2.511   2.914   2.057
  692TIP3    H2 1962   2.658   2.901   2.032
  693TIP3   OH2 1963   2.294   2.624   1.552
  693TIP3    H1 1964   2.376   2.649   1.505
  693TIP3    H2 1965   2.312   2.662   1.640
  694TIP3   OH2 1966   2.346   2.772   1.773
  694TIP3    H1 1967   2.268   2.806   1.823
  694TIP3    H2 1968   2.375   2.854   1.726
  695TIP3   OH2 1969   2.790   2.360   2.325
  695TIP3    H1 1970   2.849   2.296   2.280
  695TIP3    H2 1971   2.759   2.415   2.250
  696TIP3   OH2 1972   2.660   2.500   2.133
  696TIP3    H1 1973   2.573   2.543   2.148
  696TIP3    H2 1974   2.633   2.428   2.073
  697TIP3   OH2 1975   1.860   3.668   0.977
  697TIP3    H1 1976   1.913   3.662   0.895
  697TIP3    H2 1977   1.908   3.734   1.029
  698TIP3   OH2 1978   0.964   3.485   2.376
  698TIP3    H1 1979   0.873   3.456   2.360
  698TIP3    H2 1980   0.983   3.442   2.460
  699TIP3   OH2 1981   1.143   3.506   1.921
  699TIP3    H1 1982   1.083   3.554   1.862
  699TIP3    H2 1983   1.228   3.526   1.876
  700TIP3   OH2 1984   1.585   3.751   2.052
  700TIP3    H1 1985   1.629   3.750   2.140
  700TIP3    H2 1986   1.651   3.800   1.999
  701TIP3   OH2 1987   1.763   3.902   1.907
  701TIP3    H1 1988   1.830   3.847   1.866
  701TIP3    H2 1989   1.818   3.957   1.968
  702TIP3   OH2 1990   2.566   2.272   2.010
  702TIP3    H1 1991   2.478   2.266   1.968
  702TIP3    H2 1992   2.595   2.177   2.003
  703TIP3   OH2 1993   0.810   3.777   1.902
  703TIP3    H1 1994   0.719   3.812   1.910
  703TIP3    H2 1995   0.834   3.769   1.995
  704TIP3   OH2 1996   1.067   3.759   1.795
  704TIP3    H1 1997   0.979   3.768   1.838
  704TIP3    H2 1998   1.043   3.757   1.702
  705TIP3   OH2 1999   1.486   3.770   1.591
  705TIP3    H1 2000   1.411   3.785   1.529
  705TIP3    H2 2001   1.494   3.857   1.633
  706TIP3   OH2 2002   1.750   3.712   1.642
  706TIP3    H1 2003   1.655   3.724   1.624
  706TIP3    H2 2004   1.789   3.789   1.598
  707TIP3   OH2 2005   1.961   3.903   1.557
  707TIP3    H1 2006   1.944   3.986   1.507
  707TIP3    H2 2007   1.983   3.840   1.485
  708TIP3   OH2 2008   1.224   3.569   1.526
  708TIP3    H1 2009   1.226   3.494   1.463
  708TIP3    H2 2010   1.272   3.533   1.603
  709TIP3   OH2 2011   1.994   3.632   0.733
  709TIP3    H1 2012   1.991   3.537   0.710
  709TIP3    H2 2013   1.952   3.671   0.654
  710TIP3   OH2 2014   1.464   2.187   2.663
  710TIP3    H1 2015   1.551   2.167   2.625
  710TIP3    H2 2016   1.453   2.121   2.733
  711TIP3   OH2 2017   2.296   2.226   2.443
  711TIP3    H1 2018   2.317   2.195   2.534
  711TIP3    H2 2019   2.384   2.224   2.399
  712TIP3   OH2 2020   2.234   3.778   1.933
  712TIP3    H1 2021   2.155   3.745   1.885
  712TIP3    H2 2022   2.212   3.873   1.939
  713TIP3   OH2 2023   3.505   3.155   0.703
  713TIP3    H1 2024   3.474   3.246   0.682
  713TIP3    H2 2025   3.431   3.103   0.664
  714TIP3   OH2 2026   3.499   3.152   1.083
  714TIP3    H1 2027   3.532   3.124   1.170
  714TIP3    H2 2028   3.458   3.070   1.050
  715TIP3   OH2 2029   2.799   3.043   1.443
  715TIP3    H1 2030   2.827   2.976   1.509
  715TIP3    H2 2031   2.875   3.103   1.447
  716TIP3   OH2 2032   3.744   3.454   0.762
  716TIP3    H1 2033   3.728   3.383   0.826
  716TIP3    H2 2034   3.773   3.527   0.820
  717TIP3   OH2 2035   2.770   3.458   1.169
  717TIP3    H1 2036   2.761   3.360   1.171
  717TIP3    H2 2037   2.866   3.466   1.169
  718TIP3   OH2 2038   2.553   2.954   1.135
  718TIP3    H1 2039   2.596   2.872   1.167
  718TIP3    H2 2040   2.586   2.962   1.046
  719TIP3   OH2 2041   3.393   3.916   0.779
  719TIP3    H1 2042   3.438   3.844   0.729
  719TIP3    H2 2043   3.385   3.876   0.867
  720TIP3   OH2 2044   3.298   3.378   1.127
  720TIP3    H1 2045   3.337   3.299   1.085
  720TIP3    H2 2046   3.382   3.423   1.152
  721TIP3   OH2 2047   4.312   2.697   1.126
  721TIP3    H1 2048   4.341   2.779   1.169
  721TIP3    H2 2049   4.335   2.714   1.033
  722TIP3   OH2 2050   3.711   2.879   1.160
  722TIP3    H1 2051   3.753   2.793   1.181
  722TIP3    H2 2052   3.679   2.861   1.069
  723TIP3   OH2 2053   3.047   2.531   1.125
  723TIP3    H1 2054   3.024   2.603   1.063
  723TIP3    H2 2055   3.008   2.454   1.081
  724TIP3   OH2 2056   3.742   2.626   0.747
  724TIP3    H1 2057   3.814   2.611   0.813
  724TIP3    H2 2058   3.795   2.662   0.674
  725TIP3   OH2 2059   2.686   2.735   1.229
  725TIP3    H1 2060   2.767   2.722   1.283
  725TIP3    H2 2061   2.707   2.676   1.154
  726TIP3   OH2 2062   3.124   2.938   1.023
  726TIP3    H1 2063   3.218   2.913   1.039
  726TIP3    H2 2064   3.085   2.852   0.998
  727TIP3   OH2 2065   4.385   2.905   1.295
  727TIP3    H1 2066   4.301   2.951   1.276
  727TIP3    H2 2067   4.397   2.927   1.389
  728TIP3   OH2 2068   3.044   2.519   1.559
  728TIP3    H1 2069   2.984   2.560   1.494
  728TIP3    H2 2070   2.994   2.535   1.642
  729TIP3   OH2 2071   3.392   3.373   0.570
  729TIP3    H1 2072   3.354   3.351   0.484
  729TIP3    H2 2073   3.345   3.456   0.591
  730TIP3   OH2 2074   3.151   3.297   1.354
  730TIP3    H1 2075   3.088   3.362   1.393
  730TIP3    H2 2076   3.193   3.349   1.282
  731TIP3   OH2 2077   3.952   2.632   0.920
  731TIP3    H1 2078   3.941   2.582   1.002
  731TIP3    H2 2079   4.004   2.709   0.949
  732TIP3   OH2 2080   2.916   2.637   1.345
  732TIP3    H1 2081   2.978   2.710   1.370
  732TIP3    H2 2082   2.967   2.596   1.271
  733TIP3   OH2 2083   2.978   3.490   1.452
  733TIP3    H1 2084   2.952   3.578   1.417
  733TIP3    H2 2085   2.901   3.472   1.510
  734TIP3   OH2 2086   2.363   3.193   0.701
  734TIP3    H1 2087   2.392   3.188   0.609
  734TIP3    H2 2088   2.414   3.268   0.735
  735TIP3   OH2 2089   3.813   3.697   0.930
  735TIP3    H1 2090   3.724   3.687   0.970
  735TIP3    H2 2091   3.803   3.783   0.885
  736TIP3   OH2 2092   4.105   2.597   1.293
  736TIP3    H1 2093   4.017   2.624   1.262
  736TIP3    H2 2094   4.164   2.628   1.221
  737TIP3   OH2 2095   3.402   2.237   1.274
  737TIP3    H1 2096   3.389   2.143   1.298
  737TIP3    H2 2097   3.324   2.277   1.319
  738TIP3   OH2 2098   3.513   3.743   0.602
  738TIP3    H1 2099   3.563   3.660   0.583
  738TIP3    H2 2100   3.575   3.808   0.561
  739TIP3   OH2 2101   3.657   3.529   0.511
  739TIP3    H1 2102   3.621   3.448   0.471
  739TIP3    H2 2103   3.694   3.493   0.595
  740TIP3   OH2 2104   4.040   3.610   1.272
  740TIP3    H1 2105   4.027   3.531   1.215
  740TIP3    H2 2106   4.023   3.683   1.209
  741TIP3   OH2 2107   3.335   3.014   0.538
  741TIP3    H1 2108   3.251   3.058   0.516
  741TIP3    H2 2109   3.371   2.996   0.449
  742TIP3   OH2 2110   3.292   2.785   0.335
  742TIP3    H1 2111   3.376   2.835   0.333
  742TIP3    H2 2112   3.323   2.693   0.345
  743TIP3   OH2 2113   4.235   3.247   1.118
  743TIP3    H1 2114   4.151   3.298   1.124
  743TIP3    H2 2115   4.263   3.270   1.027
  744TIP3   OH2 2116   3.681   3.089   0.505
  744TIP3    H1 2117   3.627   3.113   0.583
  744TIP3    H2 2118   3.764   3.061   0.549
  745TIP3   OH2 2119   3.913   3.124   1.414
  745TIP3    H1 2120   3.909   3.207   1.466
  745TIP3    H2 2121   3.826   3.128   1.369
  746TIP3   OH2 2122   2.911   3.076   0.917
  746TIP3    H1 2123   2.882   3.014   0.849
  746TIP3    H2 2124   2.991   3.031   0.953
  747TIP3   OH2 2125   3.044   3.499   1.065
  747TIP3    H1 2126   3.021   3.452   0.983
  747TIP3    H2 2127   3.133   3.463   1.084
  748TIP3   OH2 2128   3.052   3.052   1.273
  748TIP3    H1 2129   3.085   3.033   1.183
  748TIP3    H2 2130   3.092   3.139   1.293
  749TIP3   OH2 2131   3.572   3.692   1.050
  749TIP3    H1 2132   3.560   3.770   1.107
  749TIP3    H2 2133   3.557   3.617   1.112
  750TIP3   OH2 2134   3.184   3.613   1.593
  750TIP3    H1 2135   3.124   3.673   1.643
  750TIP3    H2 2136   3.119   3.558   1.546
  751TIP3   OH2 2137   3.527   2.941   0.333
  751TIP3    H1 2138   3.583   3.004   0.385
  751TIP3    H2 2139   3.553   2.964   0.241
  752TIP3   OH2 2140   2.937   3.170   1.693
  752TIP3    H1 2141   2.943   3.254   1.742
  752TIP3    H2 2142   2.844   3.146   1.711
  753TIP3   OH2 2143   3.262   3.622   0.600
  753TIP3    H1 2144   3.343   3.673   0.617
  753TIP3    H2 2145   3.201   3.689   0.565
  754TIP3   OH2 2146   2.978   3.780   1.685
  754TIP3    H1 2147   2.943   3.776   1.594
  754TIP3    H2 2148   2.898   3.758   1.738
  755TIP3   OH2 2149   4.039   2.185   0.373
  755TIP3    H1 2150   3.956   2.199   0.425
  755TIP3    H2 2151   4.046   2.270   0.326
  756TIP3   OH2 2152   2.766   2.913   0.707
  756TIP3    H1 2153   2.696   2.980   0.711
  756TIP3    H2 2154   2.724   2.835   0.747
  757TIP3   OH2 2155   3.833   3.556  -0.082
  757TIP3    H1 2156   3.845   3.652  -0.096
  757TIP3    H2 2157   3.924   3.523  -0.087
  758TIP3   OH2 2158   2.559   3.310   1.630
  758TIP3    H1 2159   2.492   3.287   1.562
  758TIP3    H2 2160   2.595   3.223   1.655
  759TIP3   OH2 2161   2.412   3.508   1.253
  759TIP3    H1 2162   2.507   3.495   1.254
  759TIP3    H2 2163   2.401   3.580   1.317
  760TIP3   OH2 2164   4.275   3.954   1.317
  760TIP3    H1 2165   4.276   3.857   1.332
  760TIP3    H2 2166   4.193   3.978   1.364
  761TIP3   OH2 2167   3.381   3.741   1.452
  761TIP3    H1 2168   3.379   3.833   1.487
  761TIP3    H2 2169   3.310   3.700   1.506
  762TIP3   OH2 2170   3.141   3.867   0.402
  762TIP3    H1 2171   3.096   3.851   0.318
  762TIP3    H2 2172   3.111   3.956   0.428
  763TIP3   OH2 2173   2.582   3.719   0.790
  763TIP3    H1 2174   2.628   3.708   0.876
  763TIP3    H2 2175   2.532   3.635   0.787
  764TIP3   OH2 2176   3.337   3.766   0.060
  764TIP3    H1 2177   3.395   3.707   0.007
  764TIP3    H2 2178   3.384   3.770   0.145
  765TIP3   OH2 2179   3.400   3.822   0.326
  765TIP3    H1 2180   3.309   3.828   0.363
  765TIP3    H2 2181   3.446   3.775   0.397
  766TIP3   OH2 2182   4.167   3.085   1.593
  766TIP3    H1 2183   4.083   3.096   1.545
  766TIP3    H2 2184   4.182   2.989   1.584
  767TIP3   OH2 2185   2.763   3.494   1.619
  767TIP3    H1 2186   2.813   3.475   1.701
  767TIP3    H2 2187   2.689   3.429   1.626
  768TIP3   OH2 2188   3.160   2.316   1.403
  768TIP3    H1 2189   3.070   2.286   1.380
  768TIP3    H2 2190   3.137   2.397   1.453
  769TIP3   OH2 2191   3.697   2.430   1.597
  769TIP3    H1 2192   3.764   2.404   1.663
  769TIP3    H2 2193   3.612   2.412   1.643
  770TIP3   OH2 2194   3.936   2.861   1.518
  770TIP3    H1 2195   3.885   2.856   1.603
  770TIP3    H2 2196   3.909   2.948   1.483
  771TIP3   OH2 2197   3.599   2.997   0.079
  771TIP3    H1 2198   3.539   2.990   0.004
  771TIP3    H2 2199   3.677   3.042   0.041
  772TIP3   OH2 2200   3.093   2.830   1.423
  772TIP3    H1 2201   3.047   2.854   1.506
  772TIP3    H2 2202   3.078   2.912   1.370
  773TIP3   OH2 2203   2.971   2.718   0.944
  773TIP3    H1 2204   2.878   2.689   0.951
  773TIP3    H2 2205   2.993   2.691   0.851
  774TIP3   OH2 2206   3.474   2.808   0.663
  774TIP3    H1 2207   3.421   2.880   0.623
  774TIP3    H2 2208   3.523   2.774   0.586
  775TIP3   OH2 2209   3.641   3.082   1.749
  775TIP3    H1 2210   3.618   3.008   1.810
  775TIP3    H2 2211   3.735   3.096   1.774
  776TIP3   OH2 2212   3.626   2.830   0.902
  776TIP3    H1 2213   3.566   2.859   0.830
  776TIP3    H2 2214   3.660   2.749   0.859
  777TIP3   OH2 2215   2.912   2.860   1.633
  777TIP3    H1 2216   2.947   2.921   1.700
  777TIP3    H2 2217   2.901   2.778   1.684
  778TIP3   OH2 2218   3.636   3.078   1.324
  778TIP3    H1 2219   3.669   3.006   1.266
  778TIP3    H2 2220   3.607   3.026   1.402
  779TIP3   OH2 2221   3.312   2.549   0.999
  779TIP3    H1 2222   3.231   2.538   1.053
  779TIP3    H2 2223   3.382   2.535   1.066
  780TIP3   OH2 2224   2.730   2.586   1.003
  780TIP3    H1 2225   2.636   2.596   0.983
  780TIP3    H2 2226   2.748   2.498   0.963
  781TIP3   OH2 2227   3.039   2.639   0.693
  781TIP3    H1 2228   3.135   2.618   0.698
  781TIP3    H2 2229   3.017   2.607   0.605
  782TIP3   OH2 2230   3.797   2.615   1.198
  782TIP3    H1 2231   3.765   2.628   1.291
  782TIP3    H2 2232   3.731   2.554   1.164
  783TIP3   OH2 2233   3.968   4.305   1.419
  783TIP3    H1 2234   3.966   4.326   1.324
  783TIP3    H2 2235   4.047   4.352   1.449
  784TIP3   OH2 2236   2.924   3.417   1.839
  784TIP3    H1 2237   3.005   3.443   1.888
  784TIP3    H2 2238   2.860   3.411   1.912
  785TIP3   OH2 2239   3.387   2.870   1.095
  785TIP3    H1 2240   3.459   2.827   1.046
  785TIP3    H2 2241   3.393   2.827   1.183
  786TIP3   OH2 2242   3.364   2.767   1.383
  786TIP3    H1 2243   3.274   2.802   1.400
  786TIP3    H2 2244   3.421   2.827   1.435
  787TIP3   OH2 2245   3.099   3.173   0.480
  787TIP3    H1 2246   3.045   3.090   0.480
  787TIP3    H2 2247   3.085   3.203   0.574
  788TIP3   OH2 2248   4.001   3.392   1.108
  788TIP3    H1 2249   4.025   3.441   1.027
  788TIP3    H2 2250   3.916   3.349   1.083
  789TIP3   OH2 2251   3.595   2.471   0.323
  789TIP3    H1 2252   3.497   2.477   0.324
  789TIP3    H2 2253   3.619   2.562   0.346
  790TIP3   OH2 2254   3.506   3.476   1.475
  790TIP3    H1 2255   3.523   3.446   1.565
  790TIP3    H2 2256   3.461   3.561   1.489
  791TIP3   OH2 2257   3.637   2.713   0.444
  791TIP3    H1 2258   3.732   2.723   0.465
  791TIP3    H2 2259   3.617   2.795   0.394
  792TIP3   OH2 2260   2.801   3.185   1.156
  792TIP3    H1 2261   2.834   3.147   1.073
  792TIP3    H2 2262   2.828   3.118   1.221
  793TIP3   OH2 2263   3.257   3.314   0.316
  793TIP3    H1 2264   3.206   3.399   0.317
  793TIP3    H2 2265   3.199   3.258   0.374
  794TIP3   OH2 2266   2.675   3.099   1.769
  794TIP3    H1 2267   2.698   3.083   1.863
  794TIP3    H2 2268   2.607   3.031   1.754
  795TIP3   OH2 2269   3.398   3.216   1.774
  795TIP3    H1 2270   3.341   3.148   1.735
  795TIP3    H2 2271   3.487   3.179   1.756
  796TIP3   OH2 2272   3.660   3.741   1.368
  796TIP3    H1 2273   3.565   3.731   1.383
  796TIP3    H2 2274   3.687   3.788   1.450
  797TIP3   OH2 2275   4.070   2.808   0.285
  797TIP3    H1 2276   4.008   2.762   0.223
  797TIP3    H2 2277   4.067   2.896   0.242
  798TIP3   OH2 2278   4.290   3.666   1.360
  798TIP3    H1 2279   4.192   3.658   1.353
  798TIP3    H2 2280   4.315   3.634   1.271
  799TIP3   OH2 2281   3.779   3.623   0.188
  799TIP3    H1 2282   3.743   3.556   0.247
  799TIP3    H2 2283   3.777   3.578   0.101
  800TIP3   OH2 2284   3.767   3.254   1.025
  800TIP3    H1 2285   3.674   3.229   1.039
  800TIP3    H2 2286   3.801   3.173   0.981
  801TIP3   OH2 2287   2.892   3.480   0.778
  801TIP3    H1 2288   2.892   3.562   0.725
  801TIP3    H2 2289   2.798   3.467   0.793
  802TIP3   OH2 2290   3.033   3.248   0.729
  802TIP3    H1 2291   2.995   3.337   0.746
  802TIP3    H2 2292   2.998   3.198   0.804
  803TIP3   OH2 2293   3.164   3.825   1.249
  803TIP3    H1 2294   3.208   3.896   1.199
  803TIP3    H2 2295   3.239   3.788   1.299
  804TIP3   OH2 2296   2.813   3.721   0.632
  804TIP3    H1 2297   2.727   3.728   0.679
  804TIP3    H2 2298   2.843   3.814   0.635
  805TIP3   OH2 2299   3.553   3.460   1.207
  805TIP3    H1 2300   3.542   3.459   1.305
  805TIP3    H2 2301   3.630   3.403   1.196
  806TIP3   OH2 2302   3.527   3.363   0.093
  806TIP3    H1 2303   3.578   3.332   0.170
  806TIP3    H2 2304   3.438   3.332   0.114
  807TIP3   OH2 2305   3.801   3.993   1.261
  807TIP3    H1 2306   3.724   3.933   1.257
  807TIP3    H2 2307   3.781   4.054   1.187
  808TIP3   OH2 2308   3.869   3.836  -0.097
  808TIP3    H1 2309   3.916   3.917  -0.123
  808TIP3    H2 2310   3.786   3.875  -0.061
  809TIP3   OH2 2311   2.886   2.601   1.774
  809TIP3    H1 2312   2.790   2.605   1.789
  809TIP3    H2 2313   2.915   2.544   1.848
  810TIP3   OH2 2314   3.687   3.287   0.310
  810TIP3    H1 2315   3.677   3.220   0.381
  810TIP3    H2 2316   3.784   3.284   0.297
  811TIP3   OH2 2317   2.603   3.686   1.408
  811TIP3    H1 2318   2.655   3.611   1.440
  811TIP3    H2 2319   2.628   3.754   1.472
  812TIP3   OH2 2320   2.884   3.334   0.093
  812TIP3    H1 2321   2.917   3.247   0.066
  812TIP3    H2 2322   2.870   3.323   0.189
  813TIP3   OH2 2323   2.852   3.334   0.369
  813TIP3    H1 2324   2.928   3.306   0.422
  813TIP3    H2 2325   2.857   3.432   0.376
  814TIP3   OH2 2326   3.725   2.666   1.457
  814TIP3    H1 2327   3.802   2.705   1.500
  814TIP3    H2 2328   3.709   2.586   1.512
  815TIP3   OH2 2329   3.588   2.430   0.616
  815TIP3    H1 2330   3.596   2.453   0.522
  815TIP3    H2 2331   3.637   2.505   0.658
  816TIP3   OH2 2332   3.102   3.535   0.308
  816TIP3    H1 2333   3.016   3.563   0.345
  816TIP3    H2 2334   3.123   3.611   0.252
  817TIP3   OH2 2335   3.309   2.601   0.732
  817TIP3    H1 2336   3.371   2.675   0.714
  817TIP3    H2 2337   3.313   2.596   0.831
  818TIP3   OH2 2338   3.564   2.918   1.532
  818TIP3    H1 2339   3.581   2.970   1.612
  818TIP3    H2 2340   3.615   2.837   1.549
  819TIP3   OH2 2341   3.446   2.324   0.831
  819TIP3    H1 2342   3.439   2.402   0.889
  819TIP3    H2 2343   3.498   2.362   0.757
  820TIP3   OH2 2344   2.848   3.608   0.382
  820TIP3    H1 2345   2.817   3.678   0.320
  820TIP3    H2 2346   2.830   3.650   0.469
  821TIP3   OH2 2347   4.202   2.817   1.512
  821TIP3    H1 2348   4.104   2.817   1.522
  821TIP3    H2 2349   4.209   2.771   1.428
  822TIP3   OH2 2350   3.852   3.011   0.902
  822TIP3    H1 2351   3.776   2.952   0.914
  822TIP3    H2 2352   3.924   2.964   0.950
  823TIP3   OH2 2353   2.577   3.320   0.346
  823TIP3    H1 2354   2.670   3.341   0.368
  823TIP3    H2 2355   2.574   3.225   0.365
  824TIP3   OH2 2356   3.820   3.970   0.851
  824TIP3    H1 2357   3.778   4.017   0.776
  824TIP3    H2 2358   3.915   3.988   0.830
  825TIP3   OH2 2359   2.895   2.233   1.382
  825TIP3    H1 2360   2.844   2.188   1.312
  825TIP3    H2 2361   2.904   2.160   1.449
  826TIP3   OH2 2362   2.446   3.467   0.755
  826TIP3    H1 2363   2.373   3.484   0.816
  826TIP3    H2 2364   2.407   3.499   0.670
  827TIP3   OH2 2365   2.593   3.997   1.830
  827TIP3    H1 2366   2.679   3.994   1.876
  827TIP3    H2 2367   2.570   3.902   1.828
  828TIP3   OH2 2368   3.076   3.962   1.872
  828TIP3    H1 2369   3.168   3.936   1.882
  828TIP3    H2 2370   3.048   3.901   1.800
  829TIP3   OH2 2371   3.060   3.528   0.005
  829TIP3    H1 2372   2.994   3.470   0.048
  829TIP3    H2 2373   3.140   3.473   0.011
  830TIP3   OH2 2374   3.713   3.867   1.608
  830TIP3    H1 2375   3.704   3.796   1.676
  830TIP3    H2 2376   3.791   3.916   1.640
  831TIP3   OH2 2377   3.507   3.589  -0.071
  831TIP3    H1 2378   3.517   3.507  -0.019
  831TIP3    H2 2379   3.582   3.583  -0.131
  832TIP3   OH2 2380   2.724   3.403   2.030
  832TIP3    H1 2381   2.740   3.308   2.042
  832TIP3    H2 2382   2.637   3.404   1.986
  833TIP3   OH2 2383   3.332   3.489   1.804
  833TIP3    H1 2384   3.289   3.500   1.717
  833TIP3    H2 2385   3.364   3.396   1.800
  834TIP3   OH2 2386   3.219   3.281   0.051
  834TIP3    H1 2387   3.234   3.287   0.147
  834TIP3    H2 2388   3.193   3.188   0.040
  835TIP3   OH2 2389   3.825   3.495   1.411
  835TIP3    H1 2390   3.897   3.543   1.367
  835TIP3    H2 2391   3.751   3.557   1.398
  836TIP3   OH2 2392   2.851   3.131   2.009
  836TIP3    H1 2393   2.932   3.081   1.988
  836TIP3    H2 2394   2.873   3.165   2.098
  837TIP3   OH2 2395   2.967   2.939   0.493
  837TIP3    H1 2396   2.936   2.902   0.577
  837TIP3    H2 2397   2.976   2.860   0.436
  838TIP3   OH2 2398   3.177   3.016   1.670
  838TIP3    H1 2399   3.103   3.079   1.677
  838TIP3    H2 2400   3.227   3.052   1.593
  839TIP3   OH2 2401   3.696   3.425   1.808
  839TIP3    H1 2402   3.775   3.391   1.764
  839TIP3    H2 2403   3.685   3.362   1.881
  840TIP3   OH2 2404   3.824   3.088  -0.064
  840TIP3    H1 2405   3.844   3.049  -0.150
  840TIP3    H2 2406   3.823   3.183  -0.083
  841TIP3   OH2 2407   3.305   2.809   1.805
  841TIP3    H1 2408   3.303   2.730   1.747
  841TIP3    H2 2409   3.256   2.875   1.752
  842TIP3   OH2 2410   3.304   2.594   1.606
  842TIP3    H1 2411   3.330   2.637   1.522
  842TIP3    H2 2412   3.209   2.573   1.588
  843TIP3   OH2 2413   3.328   3.127   1.476
  843TIP3    H1 2414   3.414   3.139   1.433
  843TIP3    H2 2415   3.273   3.195   1.433
  844TIP3   OH2 2416   3.912   3.094   1.858
  844TIP3    H1 2417   3.960   3.012   1.874
  844TIP3    H2 2418   3.981   3.152   1.825
  845TIP3   OH2 2419   3.955   3.351   1.599
  845TIP3    H1 2420   3.896   3.404   1.540
  845TIP3    H2 2421   4.042   3.372   1.558
  846TIP3   OH2 2422   3.133   2.942   2.009
  846TIP3    H1 2423   3.094   2.858   2.039
  846TIP3    H2 2424   3.210   2.910   1.958
  847TIP3   OH2 2425   3.435   2.357   1.667
  847TIP3    H1 2426   3.387   2.440   1.649
  847TIP3    H2 2427   3.364   2.291   1.660
  848TIP3   OH2 2428   3.569   2.860   1.883
  848TIP3    H1 2429   3.563   2.872   1.981
  848TIP3    H2 2430   3.475   2.837   1.866
  849TIP3   OH2 2431   3.801   2.808   1.744
  849TIP3    H1 2432   3.723   2.814   1.804
  849TIP3    H2 2433   3.872   2.779   1.805
  850TIP3   OH2 2434   4.037   2.758   1.901
  850TIP3    H1 2435   4.045   2.661   1.917
  850TIP3    H2 2436   4.018   2.794   1.990
  851TIP3   OH2 2437   3.016   2.699   2.086
  851TIP3    H1 2438   3.025   2.609   2.050
  851TIP3    H2 2439   3.052   2.687   2.176
  852TIP3   OH2 2440   3.526   2.361   1.923
  852TIP3    H1 2441   3.596   2.293   1.920
  852TIP3    H2 2442   3.488   2.355   1.833
  853TIP3   OH2 2443   3.558   2.561   2.115
  853TIP3    H1 2444   3.548   2.523   2.025
  853TIP3    H2 2445   3.548   2.658   2.103
  854TIP3   OH2 2446   2.813   3.810   0.195
  854TIP3    H1 2447   2.906   3.804   0.167
  854TIP3    H2 2448   2.771   3.855   0.121
  855TIP3   OH2 2449   2.206   3.804   0.822
  855TIP3    H1 2450   2.144   3.738   0.784
  855TIP3    H2 2451   2.254   3.748   0.888
  856TIP3   OH2 2452   2.344   3.658   1.011
  856TIP3    H1 2453   2.339   3.584   1.074
  856TIP3    H2 2454   2.396   3.721   1.064
  857TIP3   OH2 2455   4.073   4.062   0.808
  857TIP3    H1 2456   4.102   4.089   0.897
  857TIP3    H2 2457   4.142   4.100   0.751
  858TIP3   OH2 2458   4.106   4.078   1.090
  858TIP3    H1 2459   4.058   3.992   1.086
  858TIP3    H2 2460   4.178   4.053   1.149
  859TIP3   OH2 2461   4.149   3.756   1.663
  859TIP3    H1 2462   4.077   3.763   1.728
  859TIP3    H2 2463   4.191   3.844   1.669
  860TIP3   OH2 2464   3.967   3.267   0.282
  860TIP3    H1 2465   4.034   3.332   0.256
  860TIP3    H2 2466   4.009   3.229   0.363
  861TIP3   OH2 2467   4.093   3.136   0.487
  861TIP3    H1 2468   4.028   3.093   0.547
  861TIP3    H2 2469   4.159   3.172   0.550
  862TIP3   OH2 2470   4.149   3.528   0.918
  862TIP3    H1 2471   4.202   3.461   0.871
  862TIP3    H2 2472   4.140   3.599   0.852
  863TIP3   OH2 2473   3.979   3.830   1.112
  863TIP3    H1 2474   3.907   3.868   1.166
  863TIP3    H2 2475   3.929   3.781   1.043
  864TIP3   OH2 2476   4.027   3.044   0.133
  864TIP3    H1 2477   3.950   3.044   0.072
  864TIP3    H2 2478   4.004   3.119   0.191
  865TIP3   OH2 2479   3.905   2.716   0.092
  865TIP3    H1 2480   3.870   2.745   0.008
  865TIP3    H2 2481   3.880   2.620   0.090
  866TIP3   OH2 2482   3.908   2.991   0.633
  866TIP3    H1 2483   3.916   2.895   0.627
  866TIP3    H2 2484   3.894   3.005   0.730
  867TIP3   OH2 2485   2.534   3.068   1.382
  867TIP3    H1 2486   2.532   3.035   1.289
  867TIP3    H2 2487   2.631   3.068   1.398
  868TIP3   OH2 2488   4.198   3.417   1.490
  868TIP3    H1 2489   4.269   3.350   1.481
  868TIP3    H2 2490   4.225   3.485   1.426
  869TIP3   OH2 2491   4.383   3.222   1.504
  869TIP3    H1 2492   4.308   3.172   1.543
  869TIP3    H2 2493   4.455   3.157   1.520
  870TIP3   OH2 2494   3.840   2.455   0.099
  870TIP3    H1 2495   3.926   2.418   0.125
  870TIP3    H2 2496   3.777   2.407   0.155
  871TIP3   OH2 2497   3.906   2.709   0.528
  871TIP3    H1 2498   3.946   2.620   0.544
  871TIP3    H2 2499   3.965   2.741   0.457
  872TIP3   OH2 2500   4.065   2.881   1.022
  872TIP3    H1 2501   4.151   2.907   0.982
  872TIP3    H2 2502   4.079   2.918   1.112
  873TIP3   OH2 2503   4.135   3.026   1.254
  873TIP3    H1 2504   4.057   3.059   1.304
  873TIP3    H2 2505   4.167   3.107   1.210
  874TIP3   OH2 2506   2.749   2.749   2.050
  874TIP3    H1 2507   2.847   2.747   2.054
  874TIP3    H2 2508   2.727   2.665   2.094
  875TIP3   OH2 2509   4.587   2.618   1.810
  875TIP3    H1 2510   4.646   2.552   1.768
  875TIP3    H2 2511   4.558   2.672   1.734
  876TIP3   OH2 2512   4.013   2.458   0.564
  876TIP3    H1 2513   4.061   2.442   0.649
  876TIP3    H2 2514   3.952   2.381   0.563
  877TIP3   OH2 2515   2.715   2.441   1.389
  877TIP3    H1 2516   2.786   2.375   1.397
  877TIP3    H2 2517   2.767   2.523   1.382
  878TIP3   OH2 2518   2.530   2.720   1.459
  878TIP3    H1 2519   2.576   2.723   1.373
  878TIP3    H2 2520   2.548   2.808   1.494
  879TIP3   OH2 2521   4.457   2.756   1.615
  879TIP3    H1 2522   4.370   2.797   1.636
  879TIP3    H2 2523   4.427   2.684   1.557
  880TIP3   OH2 2524   4.104   2.392   0.183
  880TIP3    H1 2525   4.177   2.334   0.159
  880TIP3    H2 2526   4.151   2.478   0.190
  881TIP3   OH2 2527   3.660   3.926   0.467
  881TIP3    H1 2528   3.710   3.910   0.384
  881TIP3    H2 2529   3.717   3.990   0.512
  882TIP3   OH2 2530   2.724   2.303   1.774
  882TIP3    H1 2531   2.673   2.296   1.857
  882TIP3    H2 2532   2.658   2.342   1.714
  883TIP3   OH2 2533   2.758   3.733   1.851
  883TIP3    H1 2534   2.667   3.703   1.833
  883TIP3    H2 2535   2.771   3.706   1.942
  884TIP3   OH2 2536   2.937   3.761   1.398
  884TIP3    H1 2537   2.889   3.837   1.359
  884TIP3    H2 2538   3.023   3.775   1.354
  885TIP3   OH2 2539   3.381   4.007   1.537
  885TIP3    H1 2540   3.424   4.005   1.625
  885TIP3    H2 2541   3.448   4.057   1.485
  886TIP3   OH2 2542   3.560   4.159   1.394
  886TIP3    H1 2543   3.630   4.105   1.354
  886TIP3    H2 2544   3.613   4.215   1.455
  887TIP3   OH2 2545   4.356   2.519   1.495
  887TIP3    H1 2546   4.265   2.511   1.461
  887TIP3    H2 2547   4.388   2.426   1.484
  888TIP3   OH2 2548   2.614   4.022   1.419
  888TIP3    H1 2549   2.524   4.055   1.398
  888TIP3    H2 2550   2.622   4.050   1.510
  889TIP3   OH2 2551   2.851   3.999   1.280
  889TIP3    H1 2552   2.764   4.011   1.325
  889TIP3    H2 2553   2.830   4.029   1.189
  890TIP3   OH2 2554   3.276   4.026   1.076
  890TIP3    H1 2555   3.205   4.045   1.013
  890TIP3    H2 2556   3.287   4.113   1.120
  891TIP3   OH2 2557   3.545   3.966   1.129
  891TIP3    H1 2558   3.450   3.981   1.109
  891TIP3    H2 2559   3.586   4.042   1.086
  892TIP3   OH2 2560   3.754   4.158   1.044
  892TIP3    H1 2561   3.739   4.241   0.994
  892TIP3    H2 2562   3.779   4.096   0.972
  893TIP3   OH2 2563   2.526   3.813   1.167
  893TIP3    H1 2564   2.552   3.784   1.257
  893TIP3    H2 2565   2.597   3.768   1.116
  894TIP3   OH2 2566   2.719   3.684   1.024
  894TIP3    H1 2567   2.733   3.599   1.073
  894TIP3    H2 2568   2.811   3.719   1.021
  895TIP3   OH2 2569   2.987   3.778   1.027
  895TIP3    H1 2570   3.017   3.685   1.017
  895TIP3    H2 2571   3.032   3.799   1.111
  896TIP3   OH2 2572   3.557   2.434   1.111
  896TIP3    H1 2573   3.517   2.364   1.166
  896TIP3    H2 2574   3.631   2.386   1.069
  897TIP3   OH2 2575   4.083   2.318   1.021
  897TIP3    H1 2576   4.119   2.369   0.945
  897TIP3    H2 2577   3.987   2.333   1.011
  898TIP3   OH2 2578   4.179   2.414   0.782
  898TIP3    H1 2579   4.252   2.363   0.743
  898TIP3    H2 2580   4.212   2.506   0.768
  899TIP3   OH2 2581   3.242   2.209   1.003
  899TIP3    H1 2582   3.316   2.242   0.949
  899TIP3    H2 2583   3.283   2.200   1.090
  900TIP3   OH2 2584   3.799   2.321   0.992
  900TIP3    H1 2585   3.799   2.281   0.904
  900TIP3    H2 2586   3.786   2.242   1.050
  901TIP3   OH2 2587   3.835   2.243   0.553
  901TIP3    H1 2588   3.743   2.270   0.542
  901TIP3    H2 2589   3.822   2.158   0.602
  902TIP3   OH2 2590   2.299   3.579   0.556
  902TIP3    H1 2591   2.221   3.542   0.512
  902TIP3    H2 2592   2.297   3.671   0.521
  903TIP3   OH2 2593   3.239   2.363   0.633
  903TIP3    H1 2594   3.273   2.297   0.696
  903TIP3    H2 2595   3.274   2.445   0.675
  904TIP3   OH2 2596   3.077   3.774   0.129
  904TIP3    H1 2597   3.170   3.793   0.102
  904TIP3    H2 2598   3.062   3.695   0.072
  905TIP3   OH2 2599   3.806   3.890   0.232
  905TIP3    H1 2600   3.799   3.792   0.221
  905TIP3    H2 2601   3.758   3.921   0.153
  906TIP3   OH2 2602   3.016   2.424   2.020
  906TIP3    H1 2603   2.981   2.354   2.078
  906TIP3    H2 2604   3.110   2.424   2.047
  907TIP3   OH2 2605   3.263   2.420   2.139
  907TIP3    H1 2606   3.354   2.416   2.105
  907TIP3    H2 2607   3.261   2.345   2.201
  908TIP3   OH2 2608   2.421   3.643   0.222
  908TIP3    H1 2609   2.369   3.666   0.300
  908TIP3    H2 2610   2.469   3.565   0.251
  909TIP3   OH2 2611   4.091   2.483   1.927
  909TIP3    H1 2612   4.110   2.453   2.018
  909TIP3    H2 2613   4.180   2.478   1.886
  910TIP3   OH2 2614   4.030   4.035   1.420
  910TIP3    H1 2615   3.951   4.002   1.372
  910TIP3    H2 2616   4.008   4.130   1.426
  911TIP3   OH2 2617   5.297   3.408   0.188
  911TIP3    H1 2618   5.266   3.498   0.164
  911TIP3    H2 2619   5.222   3.356   0.154
  912TIP3   OH2 2620   5.295   3.409   0.570
  912TIP3    H1 2621   5.328   3.378   0.656
  912TIP3    H2 2622   5.256   3.328   0.533
  913TIP3   OH2 2623   4.593   3.302   0.934
  913TIP3    H1 2624   4.623   3.234   0.996
  913TIP3    H2 2625   4.674   3.354   0.923
  914TIP3   OH2 2626   5.543   3.708   0.246
  914TIP3    H1 2627   5.522   3.639   0.310
  914TIP3    H2 2628   5.564   3.784   0.303
  915TIP3   OH2 2629   4.566   3.713   0.657
  915TIP3    H1 2630   4.558   3.615   0.658
  915TIP3    H2 2631   4.663   3.721   0.650
  916TIP3   OH2 2632   4.273   2.916   0.442
  916TIP3    H1 2633   4.224   2.999   0.457
  916TIP3    H2 2634   4.202   2.861   0.404
  917TIP3   OH2 2635   4.332   3.202   0.615
  917TIP3    H1 2636   4.380   3.124   0.651
  917TIP3    H2 2637   4.392   3.231   0.545
  918TIP3   OH2 2638   5.193   4.176   0.273
  918TIP3    H1 2639   5.243   4.107   0.224
  918TIP3    H2 2640   5.175   4.129   0.355
  919TIP3   OH2 2641   5.093   3.634   0.617
  919TIP3    H1 2642   5.131   3.556   0.571
  919TIP3    H2 2643   5.178   3.679   0.639
  920TIP3   OH2 2644   6.109   2.953   0.613
  920TIP3    H1 2645   6.138   3.037   0.655
  920TIP3    H2 2646   6.128   2.971   0.520
  921TIP3   OH2 2647   5.507   3.135   0.647
  921TIP3    H1 2648   5.550   3.050   0.667
  921TIP3    H2 2649   5.475   3.119   0.556
  922TIP3   OH2 2650   4.843   2.794   0.614
  922TIP3    H1 2651   4.825   2.866   0.550
  922TIP3    H2 2652   4.797   2.720   0.569
  923TIP3   OH2 2653   5.536   2.886   0.235
  923TIP3    H1 2654   5.607   2.868   0.301
  923TIP3    H2 2655   5.591   2.918   0.161
  924TIP3   OH2 2656   4.478   2.996   0.720
  924TIP3    H1 2657   4.561   2.976   0.768
  924TIP3    H2 2658   4.492   2.940   0.640
  925TIP3   OH2 2659   4.918   3.194   0.516
  925TIP3    H1 2660   5.012   3.169   0.527
  925TIP3    H2 2661   4.880   3.110   0.483
  926TIP3   OH2 2662   6.183   3.164   0.781
  926TIP3    H1 2663   6.097   3.207   0.762
  926TIP3    H2 2664   6.191   3.180   0.876
  927TIP3   OH2 2665   4.841   2.778   1.047
  927TIP3    H1 2666   4.781   2.814   0.980
  927TIP3    H2 2667   4.789   2.795   1.128
  928TIP3   OH2 2668   5.183   3.624   0.062
  928TIP3    H1 2669   5.153   3.615  -0.031
  928TIP3    H2 2670   5.140   3.708   0.088
  929TIP3   OH2 2671   4.948   3.553   0.841
  929TIP3    H1 2672   4.886   3.619   0.878
  929TIP3    H2 2673   4.990   3.602   0.768
  930TIP3   OH2 2674   5.745   2.891   0.406
  930TIP3    H1 2675   5.750   2.826   0.477
  930TIP3    H2 2676   5.800   2.964   0.440
  931TIP3   OH2 2677   4.712   2.892   0.832
  931TIP3    H1 2678   4.775   2.964   0.855
  931TIP3    H2 2679   4.760   2.851   0.756
  932TIP3   OH2 2680   4.776   3.747   0.941
  932TIP3    H1 2681   4.749   3.833   0.902
  932TIP3    H2 2682   4.697   3.730   0.997
  933TIP3   OH2 2683   4.170   3.437   0.180
  933TIP3    H1 2684   4.131   3.460   0.094
  933TIP3    H2 2685   4.201   3.523   0.213
  934TIP3   OH2 2686   5.610   3.954   0.418
  934TIP3    H1 2687   5.520   3.943   0.457
  934TIP3    H2 2688   5.598   4.038   0.370
  935TIP3   OH2 2689   5.900   2.859   0.782
  935TIP3    H1 2690   5.811   2.879   0.747
  935TIP3    H2 2691   5.958   2.885   0.708
  936TIP3   OH2 2692   5.195   2.495   0.758
  936TIP3    H1 2693   5.185   2.400   0.778
  936TIP3    H2 2694   5.118   2.532   0.807
  937TIP3   OH2 2695   5.337   3.997   0.130
  937TIP3    H1 2696   5.376   3.915   0.093
  937TIP3    H2 2697   5.340   4.053   0.050
  938TIP3   OH2 2698   5.458   3.789  -0.005
  938TIP3    H1 2699   5.438   3.711  -0.060
  938TIP3    H2 2700   5.489   3.748   0.078
  939TIP3   OH2 2701   5.836   3.866   0.758
  939TIP3    H1 2702   5.823   3.787   0.701
  939TIP3    H2 2703   5.818   3.939   0.696
  940TIP3   OH2 2704   5.128   3.260   0.017
  940TIP3    H1 2705   5.046   3.311  -0.002
  940TIP3    H2 2706   5.166   3.253  -0.072
  941TIP3   OH2 2707   5.079   3.032  -0.241
  941TIP3    H1 2708   5.159   3.082  -0.216
  941TIP3    H2 2709   5.115   2.960  -0.294
  942TIP3   OH2 2710   6.031   3.505   0.605
  942TIP3    H1 2711   5.946   3.555   0.610
  942TIP3    H2 2712   6.058   3.526   0.514
  943TIP3   OH2 2713   5.473   3.335  -0.007
  943TIP3    H1 2714   5.420   3.362   0.071
  943TIP3    H2 2715   5.558   3.313   0.036
  944TIP3   OH2 2716   5.710   3.381   0.901
  944TIP3    H1 2717   5.705   3.464   0.950
  944TIP3    H2 2718   5.623   3.382   0.855
  945TIP3   OH2 2719   4.707   3.339   0.407
  945TIP3    H1 2720   4.665   3.281   0.339
  945TIP3    H2 2721   4.783   3.285   0.436
  946TIP3   OH2 2722   4.836   3.751   0.554
  946TIP3    H1 2723   4.815   3.712   0.468
  946TIP3    H2 2724   4.925   3.716   0.571
  947TIP3   OH2 2725   4.840   3.311   0.761
  947TIP3    H1 2726   4.874   3.286   0.672
  947TIP3    H2 2727   4.886   3.396   0.778
  948TIP3   OH2 2728   5.370   3.949   0.540
  948TIP3    H1 2729   5.356   4.026   0.597
  948TIP3    H2 2730   5.354   3.873   0.600
  949TIP3   OH2 2731   4.981   3.868   1.083
  949TIP3    H1 2732   4.920   3.929   1.130
  949TIP3    H2 2733   4.916   3.814   1.034
  950TIP3   OH2 2734   5.321   3.204  -0.191
  950TIP3    H1 2735   5.374   3.254  -0.124
  950TIP3    H2 2736   5.344   3.253  -0.272
  951TIP3   OH2 2737   4.736   3.424   1.186
  951TIP3    H1 2738   4.739   3.511   1.231
  951TIP3    H2 2739   4.641   3.403   1.195
  952TIP3   OH2 2740   5.056   3.881   0.112
  952TIP3    H1 2741   5.140   3.928   0.109
  952TIP3    H2 2742   5.008   3.925   0.040
  953TIP3   OH2 2743   4.774   4.036   1.171
  953TIP3    H1 2744   4.740   4.033   1.080
  953TIP3    H2 2745   4.695   4.014   1.224
  954TIP3   OH2 2746   5.812   2.453  -0.113
  954TIP3    H1 2747   5.729   2.468  -0.063
  954TIP3    H2 2748   5.816   2.532  -0.170
  955TIP3   OH2 2749   4.573   3.183   0.211
  955TIP3    H1 2750   4.505   3.225   0.155
  955TIP3    H2 2751   4.536   3.095   0.224
  956TIP3   OH2 2752   4.355   3.566   1.117
  956TIP3    H1 2753   4.288   3.543   1.049
  956TIP3    H2 2754   4.392   3.479   1.142
  957TIP3   OH2 2755   4.209   3.761   0.745
  957TIP3    H1 2756   4.304   3.749   0.739
  957TIP3    H2 2757   4.202   3.836   0.806
  958TIP3   OH2 2758   6.071   4.210   0.804
  958TIP3    H1 2759   6.071   4.113   0.819
  958TIP3    H2 2760   5.989   4.234   0.852
  959TIP3   OH2 2761   5.178   3.997   0.940
  959TIP3    H1 2762   5.176   4.089   0.973
  959TIP3    H2 2763   5.106   3.956   0.995
  960TIP3   OH2 2764   4.910   4.143  -0.114
  960TIP3    H1 2765   4.881   4.129  -0.205
  960TIP3    H2 2766   4.901   4.239  -0.102
  961TIP3   OH2 2767   4.376   3.975   0.279
  961TIP3    H1 2768   4.424   3.965   0.364
  961TIP3    H2 2769   4.326   3.891   0.277
  962TIP3   OH2 2770   5.176   4.047  -0.099
  962TIP3    H1 2771   5.086   4.073  -0.123
  962TIP3    H2 2772   5.230   4.075  -0.175
  963TIP3   OH2 2773   5.962   3.341   1.079
  963TIP3    H1 2774   5.880   3.351   1.028
  963TIP3    H2 2775   5.979   3.245   1.069
  964TIP3   OH2 2776   4.558   3.750   1.106
  964TIP3    H1 2777   4.609   3.732   1.188
  964TIP3    H2 2778   4.485   3.686   1.113
  965TIP3   OH2 2779   4.958   2.572   0.891
  965TIP3    H1 2780   4.869   2.541   0.863
  965TIP3    H2 2781   4.932   2.653   0.938
  966TIP3   OH2 2782   5.492   2.690   1.085
  966TIP3    H1 2783   5.561   2.658   1.147
  966TIP3    H2 2784   5.409   2.666   1.132
  967TIP3   OH2 2785   5.733   3.118   1.005
  967TIP3    H1 2786   5.681   3.114   1.089
  967TIP3    H2 2787   5.706   3.203   0.967
  968TIP3   OH2 2788   5.121   2.640  -0.132
  968TIP3    H1 2789   5.080   2.629  -0.043
  968TIP3    H2 2790   5.081   2.567  -0.180
  969TIP3   OH2 2791   4.890   3.088   0.909
  969TIP3    H1 2792   4.839   3.109   0.991
  969TIP3    H2 2793   4.873   3.169   0.856
  970TIP3   OH2 2794   4.773   2.976   0.424
  970TIP3    H1 2795   4.681   2.947   0.441
  970TIP3    H2 2796   4.788   2.934   0.336
  971TIP3   OH2 2797   5.264   3.061   0.154
  971TIP3    H1 2798   5.212   3.131   0.108
  971TIP3    H2 2799   5.318   3.025   0.080
  972TIP3   OH2 2800   5.439   3.339   1.239
  972TIP3    H1 2801   5.416   3.265   1.299
  972TIP3    H2 2802   5.534   3.349   1.259
  973TIP3   OH2 2803   5.422   3.089   0.388
  973TIP3    H1 2804   5.360   3.113   0.317
  973TIP3    H2 2805   5.458   3.007   0.347
  974TIP3   OH2 2806   4.708   3.117   1.118
  974TIP3    H1 2807   4.738   3.178   1.186
  974TIP3    H2 2808   4.697   3.034   1.168
  975TIP3   OH2 2809   4.763   2.574  -0.170
  975TIP3    H1 2810   4.763   2.584  -0.073
  975TIP3    H2 2811   4.682   2.617  -0.196
  976TIP3   OH2 2812   4.303   2.638   0.697
  976TIP3    H1 2813   4.377   2.670   0.752
  976TIP3    H2 2814   4.347   2.605   0.617
  977TIP3   OH2 2815   4.267   2.621   0.215
  977TIP3    H1 2816   4.321   2.656   0.142
  977TIP3    H2 2817   4.212   2.699   0.236
  978TIP3   OH2 2818   5.434   3.334   0.812
  978TIP3    H1 2819   5.466   3.262   0.753
  978TIP3    H2 2820   5.403   3.280   0.889
  979TIP3   OH2 2821   5.103   2.805   0.486
  979TIP3    H1 2822   5.023   2.796   0.541
  979TIP3    H2 2823   5.174   2.789   0.550
  980TIP3   OH2 2824   4.536   2.851   0.492
  980TIP3    H1 2825   4.442   2.857   0.464
  980TIP3    H2 2826   4.561   2.760   0.469
  981TIP3   OH2 2827   4.805   2.848   0.185
  981TIP3    H1 2828   4.901   2.860   0.166
  981TIP3    H2 2829   4.762   2.870   0.100
  982TIP3   OH2 2830   5.595   2.874   0.691
  982TIP3    H1 2831   5.554   2.884   0.780
  982TIP3    H2 2832   5.535   2.810   0.649
  983TIP3   OH2 2833   4.649   2.884  -0.034
  983TIP3    H1 2834   4.560   2.857  -0.060
  983TIP3    H2 2835   4.690   2.916  -0.117
  984TIP3   OH2 2836   5.764   4.561   0.905
  984TIP3    H1 2837   5.762   4.584   0.811
  984TIP3    H2 2838   5.844   4.608   0.935
  985TIP3   OH2 2839   4.720   3.673   1.326
  985TIP3    H1 2840   4.800   3.701   1.374
  985TIP3    H2 2841   4.655   3.668   1.399
  986TIP3   OH2 2842   5.184   3.127   0.583
  986TIP3    H1 2843   5.252   3.083   0.530
  986TIP3    H2 2844   5.191   3.080   0.668
  987TIP3   OH2 2845   4.705   2.612   0.461
  987TIP3    H1 2846   4.672   2.533   0.508
  987TIP3    H2 2847   4.763   2.572   0.394
  988TIP3   OH2 2848   5.160   3.021   0.870
  988TIP3    H1 2849   5.070   3.057   0.885
  988TIP3    H2 2850   5.217   3.082   0.921
  989TIP3   OH2 2851   4.892   3.411  -0.033
  989TIP3    H1 2852   4.821   3.344  -0.043
  989TIP3    H2 2853   4.875   3.443   0.059
  990TIP3   OH2 2854   5.797   3.648   0.595
  990TIP3    H1 2855   5.819   3.697   0.513
  990TIP3    H2 2856   5.712   3.605   0.570
  991TIP3   OH2 2857   5.376   2.726  -0.184
  991TIP3    H1 2858   5.283   2.696  -0.178
  991TIP3    H2 2859   5.372   2.818  -0.153
  992TIP3   OH2 2860   5.300   3.732   0.962
  992TIP3    H1 2861   5.320   3.706   1.053
  992TIP3    H2 2862   5.258   3.819   0.973
  993TIP3   OH2 2863   5.421   2.973  -0.063
  993TIP3    H1 2864   5.517   2.974  -0.044
  993TIP3    H2 2865   5.410   3.052  -0.120
  994TIP3   OH2 2866   4.590   3.436   0.641
  994TIP3    H1 2867   4.628   3.406   0.556
  994TIP3    H2 2868   4.631   3.373   0.703
  995TIP3   OH2 2869   5.045   3.572  -0.193
  995TIP3    H1 2870   4.995   3.657  -0.191
  995TIP3    H2 2871   4.988   3.513  -0.139
  996TIP3   OH2 2872   4.470   3.355   1.255
  996TIP3    H1 2873   4.489   3.340   1.350
  996TIP3    H2 2874   4.402   3.288   1.238
  997TIP3   OH2 2875   5.196   3.469   1.275
  997TIP3    H1 2876   5.136   3.410   1.227
  997TIP3    H2 2877   5.284   3.434   1.247
  998TIP3   OH2 2878   5.457   3.996   0.857
  998TIP3    H1 2879   5.361   3.988   0.870
  998TIP3    H2 2880   5.483   4.045   0.938
  999TIP3   OH2 2881   5.829   3.075  -0.188
  999TIP3    H1 2882   5.862   3.006  -0.248
  999TIP3    H2 2883   5.830   3.153  -0.246
 1000TIP3   OH2 2884   6.086   3.922   0.847
 1000TIP3    H1 2885   5.988   3.914   0.840
 1000TIP3    H2 2886   6.111   3.890   0.757
 1001TIP3   OH2 2887   5.563   3.509   0.514
 1001TIP3    H1 2888   5.470   3.484   0.527
 1001TIP3    H2 2889   5.597   3.430   0.469
 1002TIP3   OH2 2890   4.692   3.738   0.272
 1002TIP3    H1 2891   4.696   3.818   0.215
 1002TIP3    H2 2892   4.597   3.721   0.274
 1003TIP3   OH2 2893   4.257   3.043  -0.025
 1003TIP3    H1 2894   4.302   3.128  -0.006
 1003TIP3    H2 2895   4.179   3.048   0.034
 1004TIP3   OH2 2896   4.826   3.502   0.212
 1004TIP3    H1 2897   4.794   3.592   0.233
 1004TIP3    H2 2898   4.791   3.452   0.287
 1005TIP3   OH2 2899   4.960   4.081   0.736
 1005TIP3    H1 2900   5.003   4.152   0.685
 1005TIP3    H2 2901   5.036   4.043   0.784
 1006TIP3   OH2 2902   4.607   3.977   0.120
 1006TIP3    H1 2903   4.521   3.984   0.167
 1006TIP3    H2 2904   4.637   4.070   0.122
 1007TIP3   OH2 2905   5.349   3.716   0.694
 1007TIP3    H1 2906   5.339   3.713   0.792
 1007TIP3    H2 2907   5.425   3.658   0.680
 1008TIP3   OH2 2908   5.597   4.250   0.748
 1008TIP3    H1 2909   5.519   4.191   0.743
 1008TIP3    H2 2910   5.578   4.312   0.674
 1009TIP3   OH2 2911   4.681   2.861   1.262
 1009TIP3    H1 2912   4.584   2.863   1.275
 1009TIP3    H2 2913   4.709   2.801   1.333
 1010TIP3   OH2 2914   5.474   3.556  -0.178
 1010TIP3    H1 2915   5.467   3.481  -0.116
 1010TIP3    H2 2916   5.569   3.551  -0.203
 1011TIP3   OH2 2917   4.398   3.944   0.895
 1011TIP3    H1 2918   4.450   3.867   0.923
 1011TIP3    H2 2919   4.427   4.009   0.959
 1012TIP3   OH2 2920   4.679   3.577  -0.426
 1012TIP3    H1 2921   4.715   3.487  -0.435
 1012TIP3    H2 2922   4.652   3.576  -0.332
 1013TIP3   OH2 2923   4.633   3.594  -0.149
 1013TIP3    H1 2924   4.707   3.563  -0.095
 1013TIP3    H2 2925   4.641   3.692  -0.140
 1014TIP3   OH2 2926   4.370   3.288   0.054
 1014TIP3    H1 2927   4.304   3.335   0.111
 1014TIP3    H2 2928   4.387   3.356  -0.013
 1015TIP3   OH2 2929   5.515   2.929   0.951
 1015TIP3    H1 2930   5.601   2.960   0.983
 1015TIP3    H2 2931   5.503   2.845   1.001
 1016TIP3   OH2 2932   5.386   2.681   0.107
 1016TIP3    H1 2933   5.385   2.699   0.012
 1016TIP3    H2 2934   5.434   2.759   0.143
 1017TIP3   OH2 2935   4.896   3.800  -0.216
 1017TIP3    H1 2936   4.816   3.827  -0.168
 1017TIP3    H2 2937   4.872   3.825  -0.307
 1018TIP3   OH2 2938   5.083   2.857   0.213
 1018TIP3    H1 2939   5.151   2.925   0.195
 1018TIP3    H2 2940   5.092   2.846   0.311
 1019TIP3   OH2 2941   5.357   3.173   1.019
 1019TIP3    H1 2942   5.382   3.222   1.100
 1019TIP3    H2 2943   5.411   3.092   1.026
 1020TIP3   OH2 2944   5.230   2.583   0.312
 1020TIP3    H1 2945   5.237   2.655   0.377
 1020TIP3    H2 2946   5.290   2.618   0.242
 1021TIP3   OH2 2947   4.644   3.865  -0.128
 1021TIP3    H1 2948   4.614   3.936  -0.188
 1021TIP3    H2 2949   4.629   3.906  -0.040
 1022TIP3   OH2 2950   4.745   2.582   0.108
 1022TIP3    H1 2951   4.743   2.672   0.145
 1022TIP3    H2 2952   4.841   2.563   0.116
 1023TIP3   OH2 2953   5.999   3.074   0.996
 1023TIP3    H1 2954   5.901   3.075   1.008
 1023TIP3    H2 2955   6.004   3.021   0.915
 1024TIP3   OH2 2956   5.648   3.268   0.388
 1024TIP3    H1 2957   5.572   3.208   0.398
 1024TIP3    H2 2958   5.719   3.220   0.436
 1025TIP3   OH2 2959   4.365   3.505  -0.141
 1025TIP3    H1 2960   4.443   3.563  -0.130
 1025TIP3    H2 2961   4.405   3.441  -0.204
 1026TIP3   OH2 2962   4.321   2.779  -0.013
 1026TIP3    H1 2963   4.306   2.876  -0.021
 1026TIP3    H2 2964   4.244   2.744  -0.059
 1027TIP3   OH2 2965   5.614   4.226   0.341
 1027TIP3    H1 2966   5.567   4.271   0.267
 1027TIP3    H2 2967   5.707   4.249   0.318
 1028TIP3   OH2 2968   4.691   2.493   0.866
 1028TIP3    H1 2969   4.662   2.458   0.778
 1028TIP3    H2 2970   4.683   2.414   0.923
 1029TIP3   OH2 2971   4.235   3.718   0.245
 1029TIP3    H1 2972   4.162   3.742   0.304
 1029TIP3    H2 2973   4.203   3.754   0.159
 1030TIP3   OH2 2974   4.389   4.254   1.317
 1030TIP3    H1 2975   4.475   4.251   1.363
 1030TIP3    H2 2976   4.367   4.159   1.315
 1031TIP3   OH2 2977   4.871   4.218   1.359
 1031TIP3    H1 2978   4.965   4.194   1.368
 1031TIP3    H2 2979   4.844   4.158   1.287
 1032TIP3   OH2 2980   5.507   4.125   1.097
 1032TIP3    H1 2981   5.499   4.054   1.164
 1032TIP3    H2 2982   5.587   4.173   1.127
 1033TIP3   OH2 2983   4.520   3.660   1.517
 1033TIP3    H1 2984   4.536   3.564   1.524
 1033TIP3    H2 2985   4.432   3.661   1.473
 1034TIP3   OH2 2986   4.508   3.320  -0.273
 1034TIP3    H1 2987   4.571   3.280  -0.210
 1034TIP3    H2 2988   4.540   3.289  -0.358
 1035TIP3   OH2 2989   5.127   3.744   1.291
 1035TIP3    H1 2990   5.085   3.760   1.204
 1035TIP3    H2 2991   5.158   3.651   1.284
 1036TIP3   OH2 2992   5.041   3.533  -0.466
 1036TIP3    H1 2993   5.046   3.558  -0.372
 1036TIP3    H2 2994   5.050   3.437  -0.459
 1037TIP3   OH2 2995   5.621   3.753   0.899
 1037TIP3    H1 2996   5.694   3.799   0.854
 1037TIP3    H2 2997   5.548   3.816   0.883
 1038TIP3   OH2 2998   4.639   3.396   1.499
 1038TIP3    H1 2999   4.712   3.337   1.477
 1038TIP3    H2 3000   4.666   3.427   1.588
 1039TIP3   OH2 3001   4.701   3.211  -0.070
 1039TIP3    H1 3002   4.679   3.169   0.015
 1039TIP3    H2 3003   4.740   3.137  -0.120
 1040TIP3   OH2 3004   4.973   3.278   1.162
 1040TIP3    H1 3005   4.895   3.338   1.162
 1040TIP3    H2 3006   5.024   3.312   1.084
 1041TIP3   OH2 3007   4.802   3.006  -0.231
 1041TIP3    H1 3008   4.795   2.986  -0.325
 1041TIP3    H2 3009   4.900   3.018  -0.223
 1042TIP3   OH2 3010   5.493   3.681   1.295
 1042TIP3    H1 3011   5.570   3.651   1.245
 1042TIP3    H2 3012   5.487   3.613   1.365
 1043TIP3   OH2 3013   5.097   3.066   1.287
 1043TIP3    H1 3014   5.098   2.986   1.231
 1043TIP3    H2 3015   5.053   3.132   1.229
 1044TIP3   OH2 3016   5.099   2.854   1.095
 1044TIP3    H1 3017   5.128   2.892   1.010
 1044TIP3    H2 3018   5.006   2.830   1.076
 1045TIP3   OH2 3019   5.126   3.389   0.970
 1045TIP3    H1 3020   5.209   3.393   0.921
 1045TIP3    H2 3021   5.070   3.454   0.923
 1046TIP3   OH2 3022   5.709   3.355   1.349
 1046TIP3    H1 3023   5.753   3.269   1.357
 1046TIP3    H2 3024   5.779   3.409   1.312
 1047TIP3   OH2 3025   5.750   3.609   1.087
 1047TIP3    H1 3026   5.692   3.662   1.027
 1047TIP3    H2 3027   5.837   3.627   1.047
 1048TIP3   OH2 3028   4.975   3.177   1.519
 1048TIP3    H1 3029   4.907   3.108   1.533
 1048TIP3    H2 3030   5.010   3.151   1.430
 1049TIP3   OH2 3031   5.232   2.617   1.163
 1049TIP3    H1 3032   5.182   2.698   1.140
 1049TIP3    H2 3033   5.164   2.548   1.150
 1050TIP3   OH2 3034   5.356   3.121   1.378
 1050TIP3    H1 3035   5.344   3.106   1.474
 1050TIP3    H2 3036   5.267   3.095   1.346
 1051TIP3   OH2 3037   5.599   3.075   1.235
 1051TIP3    H1 3038   5.522   3.070   1.296
 1051TIP3    H2 3039   5.671   3.040   1.291
 1052TIP3   OH2 3040   5.828   3.011   1.384
 1052TIP3    H1 3041   5.840   2.915   1.400
 1052TIP3    H2 3042   5.823   3.048   1.475
 1053TIP3   OH2 3043   4.815   2.957   1.571
 1053TIP3    H1 3044   4.819   2.866   1.537
 1053TIP3    H2 3045   4.852   2.944   1.661
 1054TIP3   OH2 3046   5.326   2.626   1.421
 1054TIP3    H1 3047   5.393   2.555   1.415
 1054TIP3    H2 3048   5.286   2.620   1.332
 1055TIP3   OH2 3049   5.393   2.841   1.578
 1055TIP3    H1 3050   5.371   2.769   1.515
 1055TIP3    H2 3051   5.314   2.899   1.571
 1056TIP3   OH2 3052   4.590   4.069  -0.306
 1056TIP3    H1 3053   4.674   4.074  -0.354
 1056TIP3    H2 3054   4.527   4.077  -0.378
 1057TIP3   OH2 3055   4.099   3.453  -0.093
 1057TIP3    H1 3056   4.189   3.487  -0.114
 1057TIP3    H2 3057   4.099   3.371  -0.143
 1058TIP3   OH2 3058   4.008   4.064   0.308
 1058TIP3    H1 3059   3.940   4.001   0.274
 1058TIP3    H2 3060   4.052   4.007   0.375
 1059TIP3   OH2 3061   4.140   3.916   0.497
 1059TIP3    H1 3062   4.131   3.841   0.558
 1059TIP3    H2 3063   4.194   3.976   0.553
 1060TIP3   OH2 3064   5.861   4.329   0.298
 1060TIP3    H1 3065   5.891   4.351   0.388
 1060TIP3    H2 3066   5.940   4.350   0.244
 1061TIP3   OH2 3067   5.902   4.334   0.577
 1061TIP3    H1 3068   5.855   4.248   0.574
 1061TIP3    H2 3069   5.975   4.309   0.637
 1062TIP3   OH2 3070   5.945   4.013   1.149
 1062TIP3    H1 3071   5.873   4.020   1.215
 1062TIP3    H2 3072   5.988   4.101   1.156
 1063TIP3   OH2 3073   5.743   3.537  -0.223
 1063TIP3    H1 3074   5.814   3.593  -0.258
 1063TIP3    H2 3075   5.792   3.481  -0.160
 1064TIP3   OH2 3076   5.891   3.395  -0.031
 1064TIP3    H1 3077   5.824   3.351   0.025
 1064TIP3    H2 3078   5.953   3.431   0.034
 1065TIP3   OH2 3079   5.947   3.785   0.407
 1065TIP3    H1 3080   5.999   3.717   0.359
 1065TIP3    H2 3081   5.934   3.854   0.339
 1066TIP3   OH2 3082   5.775   4.087   0.599
 1066TIP3    H1 3083   5.703   4.124   0.652
 1066TIP3    H2 3084   5.725   4.038   0.530
 1067TIP3   OH2 3085   5.707   3.250   0.119
 1067TIP3    H1 3086   5.710   3.153   0.112
 1067TIP3    H2 3087   5.692   3.263   0.215
 1068TIP3   OH2 3088   4.329   3.324   0.866
 1068TIP3    H1 3089   4.328   3.291   0.774
 1068TIP3    H2 3090   4.426   3.324   0.883
 1069TIP3   OH2 3091   5.994   3.674   0.978
 1069TIP3    H1 3092   6.065   3.606   0.968
 1069TIP3    H2 3093   6.020   3.741   0.913
 1070TIP3   OH2 3094   6.178   3.478   0.992
 1070TIP3    H1 3095   6.103   3.427   1.030
 1070TIP3    H2 3096   6.251   3.414   1.008
 1071TIP3   OH2 3097   5.618   2.712  -0.409
 1071TIP3    H1 3098   5.701   2.676  -0.372
 1071TIP3    H2 3099   5.552   2.671  -0.351
 1072TIP3   OH2 3100   5.693   2.966   0.022
 1072TIP3    H1 3101   5.741   2.880   0.032
 1072TIP3    H2 3102   5.744   3.007  -0.052
 1073TIP3   OH2 3103   5.862   3.140   0.510
 1073TIP3    H1 3104   5.948   3.165   0.470
 1073TIP3    H2 3105   5.876   3.174   0.600
 1074TIP3   OH2 3106   5.932   3.283   0.742
 1074TIP3    H1 3107   5.853   3.316   0.790
 1074TIP3    H2 3108   5.963   3.365   0.697
 1075TIP3   OH2 3109   4.549   3.010   1.544
 1075TIP3    H1 3110   4.646   3.002   1.545
 1075TIP3    H2 3111   4.524   2.924   1.583
 1076TIP3   OH2 3112   6.382   2.875   1.297
 1076TIP3    H1 3113   6.441   2.808   1.255
 1076TIP3    H2 3114   6.354   2.928   1.220
 1077TIP3   OH2 3115   5.812   2.716   0.054
 1077TIP3    H1 3116   5.855   2.699   0.141
 1077TIP3    H2 3117   5.746   2.644   0.054
 1078TIP3   OH2 3118   4.508   2.701   0.873
 1078TIP3    H1 3119   4.569   2.626   0.882
 1078TIP3    H2 3120   4.571   2.775   0.865
 1079TIP3   OH2 3121   4.311   2.975   0.944
 1079TIP3    H1 3122   4.360   2.968   0.860
 1079TIP3    H2 3123   4.343   3.059   0.978
 1080TIP3   OH2 3124   6.253   3.013   1.100
 1080TIP3    H1 3125   6.165   3.053   1.119
 1080TIP3    H2 3126   6.225   2.939   1.043
 1081TIP3   OH2 3127   5.867   2.652  -0.294
 1081TIP3    H1 3128   5.937   2.607  -0.345
 1081TIP3    H2 3129   5.896   2.744  -0.298
 1082TIP3   OH2 3130   4.295   2.476   0.443
 1082TIP3    H1 3131   4.203   2.475   0.474
 1082TIP3    H2 3132   4.291   2.536   0.366
 1083TIP3   OH2 3133   5.442   4.195  -0.051
 1083TIP3    H1 3134   5.495   4.133  -0.101
 1083TIP3    H2 3135   5.507   4.242   0.002
 1084TIP3   OH2 3136   4.516   2.560   1.262
 1084TIP3    H1 3137   4.464   2.553   1.343
 1084TIP3    H2 3138   4.449   2.596   1.200
 1085TIP3   OH2 3139   4.554   3.990   1.338
 1085TIP3    H1 3140   4.463   3.959   1.320
 1085TIP3    H2 3141   4.566   3.963   1.430
 1086TIP3   OH2 3142   4.733   4.019   0.886
 1086TIP3    H1 3143   4.686   4.095   0.846
 1086TIP3    H2 3144   4.819   4.031   0.841
 1087TIP3   OH2 3145   5.177   4.264   1.024
 1087TIP3    H1 3146   5.220   4.262   1.112
 1087TIP3    H2 3147   5.244   4.314   0.972
 1088TIP3   OH2 3148   5.355   4.416   0.881
 1088TIP3    H1 3149   5.424   4.363   0.838
 1088TIP3    H2 3150   5.410   4.471   0.942
 1089TIP3   OH2 3151   6.152   2.774   0.982
 1089TIP3    H1 3152   6.061   2.764   0.948
 1089TIP3    H2 3153   6.185   2.682   0.971
 1090TIP3   OH2 3154   4.410   4.279   0.905
 1090TIP3    H1 3155   4.320   4.313   0.885
 1090TIP3    H2 3156   4.418   4.306   0.997
 1091TIP3   OH2 3157   4.647   4.256   0.767
 1091TIP3    H1 3158   4.560   4.268   0.811
 1091TIP3    H2 3159   4.627   4.285   0.676
 1092TIP3   OH2 3160   5.071   4.281   0.566
 1092TIP3    H1 3161   5.003   4.301   0.499
 1092TIP3    H2 3162   5.084   4.369   0.608
 1093TIP3   OH2 3163   5.340   4.224   0.620
 1093TIP3    H1 3164   5.247   4.236   0.596
 1093TIP3    H2 3165   5.383   4.295   0.570
 1094TIP3   OH2 3166   5.551   4.415   0.531
 1094TIP3    H1 3167   5.534   4.498   0.481
 1094TIP3    H2 3168   5.574   4.353   0.460
 1095TIP3   OH2 3169   4.322   4.069   0.655
 1095TIP3    H1 3170   4.349   4.041   0.745
 1095TIP3    H2 3171   4.393   4.025   0.603
 1096TIP3   OH2 3172   4.515   3.940   0.512
 1096TIP3    H1 3173   4.530   3.855   0.560
 1096TIP3    H2 3174   4.607   3.975   0.507
 1097TIP3   OH2 3175   4.783   4.037   0.513
 1097TIP3    H1 3176   4.813   3.946   0.496
 1097TIP3    H2 3177   4.828   4.053   0.598
 1098TIP3   OH2 3178   5.354   2.687   0.593
 1098TIP3    H1 3179   5.315   2.616   0.647
 1098TIP3    H2 3180   5.429   2.641   0.551
 1099TIP3   OH2 3181   5.879   2.590   0.517
 1099TIP3    H1 3182   5.915   2.624   0.432
 1099TIP3    H2 3183   5.784   2.583   0.497
 1100TIP3   OH2 3184   5.978   2.680   0.275
 1100TIP3    H1 3185   6.046   2.623   0.235
 1100TIP3    H2 3186   6.012   2.770   0.255
 1101TIP3   OH2 3187   4.604   2.400   0.617
 1101TIP3    H1 3188   4.513   2.365   0.619
 1101TIP3    H2 3189   4.654   2.315   0.615
 1102TIP3   OH2 3190   4.369   2.268   0.258
 1102TIP3    H1 3191   4.421   2.321   0.193
 1102TIP3    H2 3192   4.357   2.335   0.329
 1103TIP3   OH2 3193   5.044   2.437   0.498
 1103TIP3    H1 3194   5.105   2.473   0.433
 1103TIP3    H2 3195   5.081   2.469   0.582
 1104TIP3   OH2 3196   5.596   2.572   0.478
 1104TIP3    H1 3197   5.615   2.530   0.392
 1104TIP3    H2 3198   5.586   2.491   0.534
 1105TIP3   OH2 3199   5.613   2.512   0.058
 1105TIP3    H1 3200   5.521   2.542   0.063
 1105TIP3    H2 3201   5.607   2.430   0.112
 1106TIP3   OH2 3202   4.110   3.837   0.039
 1106TIP3    H1 3203   4.024   3.801   0.008
 1106TIP3    H2 3204   4.093   3.932   0.032
 1107TIP3   OH2 3205   4.515   2.414   0.077
 1107TIP3    H1 3206   4.543   2.371  -0.004
 1107TIP3    H2 3207   4.588   2.478   0.091
 1108TIP3   OH2 3208   5.020   2.604   0.128
 1108TIP3    H1 3209   5.082   2.557   0.187
 1108TIP3    H2 3210   5.043   2.696   0.152
 1109TIP3   OH2 3211   4.813   2.682   1.509
 1109TIP3    H1 3212   4.779   2.610   1.565
 1109TIP3    H2 3213   4.907   2.681   1.536
 1110TIP3   OH2 3214   5.063   2.678   1.627
 1110TIP3    H1 3215   5.147   2.652   1.586
 1110TIP3    H2 3216   5.051   2.607   1.693
 1111TIP3   OH2 3217   4.229   3.911  -0.288
 1111TIP3    H1 3218   4.176   3.903  -0.207
 1111TIP3    H2 3219   4.272   3.825  -0.292
 1112TIP3   OH2 3220   5.888   2.741   1.415
 1112TIP3    H1 3221   5.907   2.708   1.505
 1112TIP3    H2 3222   5.977   2.734   1.373
 1113TIP3   OH2 3223   5.826   4.292   0.907
 1113TIP3    H1 3224   5.747   4.260   0.859
 1113TIP3    H2 3225   5.805   4.387   0.912
 1114TIP3   OH2 3226   7.080   3.643   0.064
 1114TIP3    H1 3227   7.125   3.636   0.151
 1114TIP3    H2 3228   7.041   3.553   0.059
 1115TIP3   OH2 3229   6.389   3.558   0.419
 1115TIP3    H1 3230   6.417   3.489   0.483
 1115TIP3    H2 3231   6.472   3.607   0.410
 1116TIP3   OH2 3232   6.356   3.966   0.151
 1116TIP3    H1 3233   6.346   3.868   0.146
 1116TIP3    H2 3234   6.448   3.971   0.179
 1117TIP3   OH2 3235   6.059   3.170  -0.070
 1117TIP3    H1 3236   6.023   3.259  -0.060
 1117TIP3    H2 3237   5.977   3.121  -0.089
 1118TIP3   OH2 3238   6.136   3.461   0.098
 1118TIP3    H1 3239   6.178   3.381   0.137
 1118TIP3    H2 3240   6.202   3.487   0.032
 1119TIP3   OH2 3241   6.888   3.895   0.094
 1119TIP3    H1 3242   6.914   3.805   0.069
 1119TIP3    H2 3243   6.975   3.929   0.126
 1120TIP3   OH2 3244   7.307   3.390   0.133
 1120TIP3    H1 3245   7.347   3.310   0.173
 1120TIP3    H2 3246   7.298   3.359   0.043
 1121TIP3   OH2 3247   6.626   3.044   0.114
 1121TIP3    H1 3248   6.606   3.123   0.059
 1121TIP3    H2 3249   6.583   2.974   0.060
 1122TIP3   OH2 3250   6.273   3.249   0.201
 1122TIP3    H1 3251   6.356   3.231   0.250
 1122TIP3    H2 3252   6.285   3.191   0.123
 1123TIP3   OH2 3253   6.731   3.461   0.016
 1123TIP3    H1 3254   6.824   3.430   0.023
 1123TIP3    H2 3255   6.687   3.380  -0.015
 1124TIP3   OH2 3256   7.953   3.425   0.256
 1124TIP3    H1 3257   7.871   3.480   0.255
 1124TIP3    H2 3258   7.982   3.433   0.347
 1125TIP3   OH2 3259   6.638   3.034   0.534
 1125TIP3    H1 3260   6.577   3.071   0.468
 1125TIP3    H2 3261   6.587   3.049   0.616
 1126TIP3   OH2 3262   6.745   3.813   0.328
 1126TIP3    H1 3263   6.680   3.872   0.371
 1126TIP3    H2 3264   6.789   3.874   0.266
 1127TIP3   OH2 3265   6.503   3.153   0.326
 1127TIP3    H1 3266   6.568   3.224   0.346
 1127TIP3    H2 3267   6.550   3.107   0.252
 1128TIP3   OH2 3268   6.568   4.002   0.421
 1128TIP3    H1 3269   6.543   4.093   0.395
 1128TIP3    H2 3270   6.493   3.983   0.482
 1129TIP3   OH2 3271   7.691   3.116   0.254
 1129TIP3    H1 3272   7.598   3.138   0.239
 1129TIP3    H2 3273   7.730   3.137   0.168
 1130TIP3   OH2 3274   6.994   2.753   0.255
 1130TIP3    H1 3275   6.978   2.658   0.270
 1130TIP3    H2 3276   6.914   2.791   0.297
 1131TIP3   OH2 3277   7.618   4.140   0.248
 1131TIP3    H1 3278   7.635   4.079   0.175
 1131TIP3    H2 3279   7.598   4.222   0.200
 1132TIP3   OH2 3280   7.498   3.635   0.395
 1132TIP3    H1 3281   7.501   3.717   0.449
 1132TIP3    H2 3282   7.413   3.646   0.348
 1133TIP3   OH2 3283   6.467   3.544  -0.071
 1133TIP3    H1 3284   6.459   3.606  -0.147
 1133TIP3    H2 3285   6.561   3.521  -0.070
 1134TIP3   OH2 3286   6.645   4.010   0.019
 1134TIP3    H1 3287   6.592   3.931  -0.001
 1134TIP3    H2 3288   6.729   3.971   0.052
 1135TIP3   OH2 3289   6.639   3.566   0.256
 1135TIP3    H1 3290   6.669   3.540   0.166
 1135TIP3    H2 3291   6.683   3.652   0.269
 1136TIP3   OH2 3292   6.777   4.125   0.564
 1136TIP3    H1 3293   6.721   4.185   0.618
 1136TIP3    H2 3294   6.709   4.071   0.521
 1137TIP3   OH2 3295   6.532   3.683   0.670
 1137TIP3    H1 3296   6.535   3.768   0.719
 1137TIP3    H2 3297   6.438   3.660   0.682
 1138TIP3   OH2 3298   6.571   4.290   0.658
 1138TIP3    H1 3299   6.533   4.288   0.568
 1138TIP3    H2 3300   6.492   4.271   0.714
 1139TIP3   OH2 3301   6.152   3.823   0.603
 1139TIP3    H1 3302   6.084   3.800   0.537
 1139TIP3    H2 3303   6.188   3.736   0.629
 1140TIP3   OH2 3304   6.006   4.017   0.234
 1140TIP3    H1 3305   6.101   4.003   0.223
 1140TIP3    H2 3306   6.003   4.087   0.300
 1141TIP3   OH2 3307   7.873   4.456   0.300
 1141TIP3    H1 3308   7.892   4.363   0.319
 1141TIP3    H2 3309   7.797   4.472   0.359
 1142TIP3   OH2 3310   6.969   4.257   0.420
 1142TIP3    H1 3311   6.969   4.346   0.461
 1142TIP3    H2 3312   6.902   4.212   0.477
 1143TIP3   OH2 3313   7.754   3.594   0.573
 1143TIP3    H1 3314   7.677   3.604   0.515
 1143TIP3    H2 3315   7.773   3.498   0.562
 1144TIP3   OH2 3316   6.356   4.005   0.592
 1144TIP3    H1 3317   6.406   3.989   0.675
 1144TIP3    H2 3318   6.282   3.941   0.600
 1145TIP3   OH2 3319   6.753   2.830   0.376
 1145TIP3    H1 3320   6.665   2.797   0.349
 1145TIP3    H2 3321   6.726   2.910   0.425
 1146TIP3   OH2 3322   7.289   2.943   0.571
 1146TIP3    H1 3323   7.358   2.915   0.635
 1146TIP3    H2 3324   7.206   2.922   0.619
 1147TIP3   OH2 3325   7.526   3.372   0.489
 1147TIP3    H1 3326   7.480   3.367   0.575
 1147TIP3    H2 3327   7.502   3.462   0.458
 1148TIP3   OH2 3328   6.689   3.342   0.400
 1148TIP3    H1 3329   6.638   3.362   0.481
 1148TIP3    H2 3330   6.671   3.423   0.347
 1149TIP3   OH2 3331   6.551   3.243  -0.044
 1149TIP3    H1 3332   6.466   3.199  -0.062
 1149TIP3    H2 3333   6.592   3.253  -0.133
 1150TIP3   OH2 3334   7.234   3.594   0.722
 1150TIP3    H1 3335   7.213   3.521   0.785
 1150TIP3    H2 3336   7.327   3.612   0.747
 1151TIP3   OH2 3337   6.505   3.373   0.604
 1151TIP3    H1 3338   6.534   3.433   0.674
 1151TIP3    H2 3339   6.492   3.289   0.654
 1152TIP3   OH2 3340   6.100   2.903   0.179
 1152TIP3    H1 3341   6.176   2.926   0.237
 1152TIP3    H2 3342   6.141   2.856   0.104
 1153TIP3   OH2 3343   4.343   1.061   9.110
 1153TIP3    H1 3344   4.358   1.157   9.093
 1153TIP3    H2 3345   4.247   1.056   9.119
 1154TIP3   OH2 3346   7.226   3.594   0.291
 1154TIP3    H1 3347   7.260   3.518   0.238
 1154TIP3    H2 3348   7.200   3.546   0.373
 1155TIP3   OH2 3349   6.879   2.979   0.020
 1155TIP3    H1 3350   6.799   3.018   0.060
 1155TIP3    H2 3351   6.950   3.034   0.054
 1156TIP3   OH2 3352   6.318   3.094  -0.042
 1156TIP3    H1 3353   6.219   3.101  -0.047
 1156TIP3    H2 3354   6.334   2.998  -0.049
 1157TIP3   OH2 3355   7.382   3.128   0.181
 1157TIP3    H1 3356   7.351   3.141   0.274
 1157TIP3    H2 3357   7.315   3.063   0.151
 1158TIP3   OH2 3358   7.555   4.804   0.382
 1158TIP3    H1 3359   7.510   4.860   0.316
 1158TIP3    H2 3360   7.621   4.865   0.418
 1159TIP3   OH2 3361   6.518   3.930   0.814
 1159TIP3    H1 3362   6.598   3.956   0.863
 1159TIP3    H2 3363   6.453   3.926   0.887
 1160TIP3   OH2 3364   6.993   3.377   0.069
 1160TIP3    H1 3365   7.023   3.303   0.014
 1160TIP3    H2 3366   6.996   3.339   0.159
 1161TIP3   OH2 3367   6.509   2.861  -0.055
 1161TIP3    H1 3368   6.467   2.787  -0.006
 1161TIP3    H2 3369   6.587   2.819  -0.093
 1162TIP3   OH2 3370   6.958   3.288   0.344
 1162TIP3    H1 3371   6.867   3.314   0.369
 1162TIP3    H2 3372   7.014   3.340   0.405
 1163TIP3   OH2 3373   7.088   3.985   0.449
 1163TIP3    H1 3374   7.125   3.956   0.534
 1163TIP3    H2 3375   7.055   4.073   0.469
 1164TIP3   OH2 3376   6.390   3.694   0.140
 1164TIP3    H1 3377   6.410   3.644   0.058
 1164TIP3    H2 3378   6.418   3.629   0.206
 1165TIP3   OH2 3379   6.267   3.612   0.742
 1165TIP3    H1 3380   6.287   3.596   0.837
 1165TIP3    H2 3381   6.199   3.544   0.725
 1166TIP3   OH2 3382   6.993   3.727   0.761
 1166TIP3    H1 3383   6.934   3.664   0.718
 1166TIP3    H2 3384   7.081   3.691   0.735
 1167TIP3   OH2 3385   7.245   4.238   0.348
 1167TIP3    H1 3386   7.150   4.244   0.369
 1167TIP3    H2 3387   7.283   4.290   0.422
 1168TIP3   OH2 3388   7.875   4.182   0.360
 1168TIP3    H1 3389   7.777   4.189   0.357
 1168TIP3    H2 3390   7.893   4.147   0.270
 1169TIP3   OH2 3391   6.756   4.315   0.233
 1169TIP3    H1 3392   6.788   4.388   0.175
 1169TIP3    H2 3393   6.836   4.294   0.285
 1170TIP3   OH2 3394   7.133   3.983   0.177
 1170TIP3    H1 3395   7.127   3.980   0.276
 1170TIP3    H2 3396   7.228   3.967   0.165
 1171TIP3   OH2 3397   6.477   3.117   0.749
 1171TIP3    H1 3398   6.380   3.120   0.761
 1171TIP3    H2 3399   6.504   3.057   0.820
 1172TIP3   OH2 3400   6.195   4.198   0.393
 1172TIP3    H1 3401   6.246   4.120   0.421
 1172TIP3    H2 3402   6.223   4.262   0.459
 1173TIP3   OH2 3403   7.313   3.182   0.437
 1173TIP3    H1 3404   7.394   3.219   0.477
 1173TIP3    H2 3405   7.301   3.099   0.489
 1174TIP3   OH2 3406   7.158   3.435   0.502
 1174TIP3    H1 3407   7.178   3.485   0.584
 1174TIP3    H2 3408   7.209   3.353   0.516
 1175TIP3   OH2 3409   7.795   3.331   0.487
 1175TIP3    H1 3410   7.697   3.326   0.492
 1175TIP3    H2 3411   7.810   3.291   0.399
 1176TIP3   OH2 3412   6.490   2.748   0.351
 1176TIP3    H1 3413   6.457   2.713   0.265
 1176TIP3    H2 3414   6.479   2.671   0.410
 1177TIP3   OH2 3415   6.186   4.511   0.804
 1177TIP3    H1 3416   6.272   4.510   0.851
 1177TIP3    H2 3417   6.165   4.416   0.803
 1178TIP3   OH2 3418   6.665   4.478   0.844
 1178TIP3    H1 3419   6.758   4.455   0.862
 1178TIP3    H2 3420   6.644   4.414   0.774
 1179TIP3   OH2 3421   7.314   4.373   0.578
 1179TIP3    H1 3422   7.301   4.309   0.652
 1179TIP3    H2 3423   7.387   4.427   0.612
 1180TIP3   OH2 3424   6.316   3.916   1.003
 1180TIP3    H1 3425   6.333   3.821   1.011
 1180TIP3    H2 3426   6.228   3.917   0.960
 1181TIP3   OH2 3427   6.923   4.001   0.778
 1181TIP3    H1 3428   6.883   4.013   0.690
 1181TIP3    H2 3429   6.957   3.909   0.773
 1182TIP3   OH2 3430   7.413   4.011   0.382
 1182TIP3    H1 3431   7.487   4.057   0.338
 1182TIP3    H2 3432   7.344   4.079   0.375
 1183TIP3   OH2 3433   6.437   3.652   0.985
 1183TIP3    H1 3434   6.510   3.593   0.965
 1183TIP3    H2 3435   6.462   3.683   1.074
 1184TIP3   OH2 3436   6.769   3.534   0.649
 1184TIP3    H1 3437   6.691   3.594   0.651
 1184TIP3    H2 3438   6.819   3.568   0.572
 1185TIP3   OH2 3439   7.285   3.937   0.778
 1185TIP3    H1 3440   7.374   3.918   0.746
 1185TIP3    H2 3441   7.278   3.876   0.854
 1186TIP3   OH2 3442   6.893   3.323   0.775
 1186TIP3    H1 3443   6.894   3.243   0.718
 1186TIP3    H2 3444   6.848   3.388   0.717
 1187TIP3   OH2 3445   6.896   3.112   0.579
 1187TIP3    H1 3446   6.923   3.146   0.492
 1187TIP3    H2 3447   6.803   3.087   0.563
 1188TIP3   OH2 3448   6.919   3.642   0.454
 1188TIP3    H1 3449   7.004   3.649   0.410
 1188TIP3    H2 3450   6.865   3.710   0.409
 1189TIP3   OH2 3451   7.504   3.611   0.834
 1189TIP3    H1 3452   7.552   3.528   0.848
 1189TIP3    H2 3453   7.574   3.670   0.805
 1190TIP3   OH2 3454   7.552   3.864   0.561
 1190TIP3    H1 3455   7.491   3.919   0.508
 1190TIP3    H2 3456   7.637   3.883   0.516
 1191TIP3   OH2 3457   6.769   3.434   1.004
 1191TIP3    H1 3458   6.702   3.364   1.019
 1191TIP3    H2 3459   6.805   3.407   0.917
 1192TIP3   OH2 3460   7.028   2.873   0.647
 1192TIP3    H1 3461   6.978   2.954   0.626
 1192TIP3    H2 3462   6.958   2.804   0.637
 1193TIP3   OH2 3463   7.154   3.377   0.864
 1193TIP3    H1 3464   7.145   3.364   0.960
 1193TIP3    H2 3465   7.064   3.351   0.836
 1194TIP3   OH2 3466   7.393   3.323   0.718
 1194TIP3    H1 3467   7.319   3.326   0.781
 1194TIP3    H2 3468   7.467   3.294   0.775
 1195TIP3   OH2 3469   7.623   3.267   0.869
 1195TIP3    H1 3470   7.635   3.171   0.887
 1195TIP3    H2 3471   7.618   3.305   0.959
 1196TIP3   OH2 3472   6.611   3.213   1.058
 1196TIP3    H1 3473   6.615   3.122   1.024
 1196TIP3    H2 3474   6.648   3.201   1.148
 1197TIP3   OH2 3475   7.123   2.883   0.906
 1197TIP3    H1 3476   7.190   2.812   0.901
 1197TIP3    H2 3477   7.083   2.875   0.817
 1198TIP3   OH2 3478   7.188   3.097   1.065
 1198TIP3    H1 3479   7.167   3.026   1.001
 1198TIP3    H2 3480   7.110   3.155   1.058
 1199TIP3   OH2 3481   5.928   4.173   0.004
 1199TIP3    H1 3482   5.919   4.097   0.063
 1199TIP3    H2 3483   5.977   4.234   0.062
 1200TIP3   OH2 3484   7.739   4.264   0.639
 1200TIP3    H1 3485   7.668   4.274   0.706
 1200TIP3    H2 3486   7.781   4.352   0.642
 1201TIP3   OH2 3487   6.125   3.580   0.351
 1201TIP3    H1 3488   6.125   3.547   0.259
 1201TIP3    H2 3489   6.221   3.580   0.371
 1202TIP3   OH2 3490   7.790   3.930   0.444
 1202TIP3    H1 3491   7.865   3.867   0.454
 1202TIP3    H2 3492   7.835   4.015   0.424
 1203TIP3   OH2 3493   7.968   3.736   0.499
 1203TIP3    H1 3494   7.892   3.682   0.530
 1203TIP3    H2 3495   8.041   3.671   0.511
 1204TIP3   OH2 3496   7.726   3.578   0.238
 1204TIP3    H1 3497   7.646   3.585   0.293
 1204TIP3    H2 3498   7.690   3.604   0.151
 1205TIP3   OH2 3499   6.345   3.268   1.033
 1205TIP3    H1 3500   6.443   3.259   1.033
 1205TIP3    H2 3501   6.320   3.180   1.070
 1206TIP3   OH2 3502   8.183   3.134   0.784
 1206TIP3    H1 3503   8.238   3.066   0.740
 1206TIP3    H2 3504   8.151   3.187   0.708
 1207TIP3   OH2 3505   6.305   2.956   0.356
 1207TIP3    H1 3506   6.367   2.881   0.368
 1207TIP3    H2 3507   6.367   3.031   0.355
 1208TIP3   OH2 3508   6.109   3.231   0.431
 1208TIP3    H1 3509   6.156   3.223   0.346
 1208TIP3    H2 3510   6.142   3.315   0.464
 1209TIP3   OH2 3511   8.050   3.274   0.592
 1209TIP3    H1 3512   7.960   3.311   0.608
 1209TIP3    H2 3513   8.026   3.202   0.531
 1210TIP3   OH2 3514   6.084   2.743  -0.072
 1210TIP3    H1 3515   5.996   2.729  -0.033
 1210TIP3    H2 3516   6.065   2.801  -0.146
 1211TIP3   OH2 3517   6.313   2.818   0.749
 1211TIP3    H1 3518   6.260   2.807   0.830
 1211TIP3    H2 3519   6.245   2.853   0.688
 1212TIP3   OH2 3520   6.350   4.245   0.822
 1212TIP3    H1 3521   6.258   4.215   0.809
 1212TIP3    H2 3522   6.366   4.221   0.914
 1213TIP3   OH2 3523   6.523   4.273   0.374
 1213TIP3    H1 3524   6.473   4.343   0.329
 1213TIP3    H2 3525   6.611   4.286   0.332
 1214TIP3   OH2 3526   6.968   4.518   0.508
 1214TIP3    H1 3527   7.007   4.511   0.599
 1214TIP3    H2 3528   7.038   4.568   0.463
 1215TIP3   OH2 3529   7.156   4.654   0.365
 1215TIP3    H1 3530   7.237   4.603   0.352
 1215TIP3    H2 3531   7.193   4.727   0.421
 1216TIP3   OH2 3532   7.948   3.034   0.477
 1216TIP3    H1 3533   7.858   3.025   0.441
 1216TIP3    H2 3534   7.981   2.941   0.466
 1217TIP3   OH2 3535   6.209   4.533   0.398
 1217TIP3    H1 3536   6.119   4.566   0.373
 1217TIP3    H2 3537   6.215   4.567   0.488
 1218TIP3   OH2 3538   6.432   4.526   0.243
 1218TIP3    H1 3539   6.352   4.534   0.300
 1218TIP3    H2 3540   6.391   4.517   0.156
 1219TIP3   OH2 3541   6.106   4.327   0.164
 1219TIP3    H1 3542   6.137   4.298   0.252
 1219TIP3    H2 3543   6.174   4.283   0.108
 1220TIP3   OH2 3544   6.301   4.206   0.023
 1220TIP3    H1 3545   6.315   4.117   0.062
 1220TIP3    H2 3546   6.393   4.241   0.023
 1221TIP3   OH2 3547   6.565   4.278   0.038
 1221TIP3    H1 3548   6.592   4.185   0.027
 1221TIP3    H2 3549   6.627   4.305   0.108
 1222TIP3   OH2 3550   7.164   2.957   0.107
 1222TIP3    H1 3551   7.097   2.898   0.147
 1222TIP3    H2 3552   7.227   2.892   0.071
 1223TIP3   OH2 3553   7.668   2.865   0.032
 1223TIP3    H1 3554   7.713   2.937  -0.017
 1223TIP3    H2 3555   7.575   2.884   0.014
 1224TIP3   OH2 3556   6.396   2.662   0.100
 1224TIP3    H1 3557   6.304   2.626   0.104
 1224TIP3    H2 3558   6.445   2.576   0.103
 1225TIP3   OH2 3559   6.189   2.512  -0.208
 1225TIP3    H1 3560   6.165   2.549  -0.295
 1225TIP3    H2 3561   6.169   2.587  -0.148
 1226TIP3   OH2 3562   6.849   2.687  -0.015
 1226TIP3    H1 3563   6.876   2.764  -0.068
 1226TIP3    H2 3564   6.862   2.725   0.073
 1227TIP3   OH2 3565   7.361   2.809  -0.009
 1227TIP3    H1 3566   7.328   2.759  -0.088
 1227TIP3    H2 3567   7.375   2.734   0.052
 1228TIP3   OH2 3568   6.609   2.939   0.997
 1228TIP3    H1 3569   6.575   2.867   1.052
 1228TIP3    H2 3570   6.704   2.938   1.023
 1229TIP3   OH2 3571   6.859   2.935   1.114
 1229TIP3    H1 3572   6.944   2.908   1.075
 1229TIP3    H2 3573   6.846   2.864   1.181
 1230TIP3   OH2 3574   7.683   2.996   0.901
 1230TIP3    H1 3575   7.702   2.964   0.992
 1230TIP3    H2 3576   7.772   2.990   0.860
 1231TIP3   OH2 3577   7.631   4.537   0.412
 1231TIP3    H1 3578   7.597   4.494   0.331
 1231TIP3    H2 3579   7.604   4.630   0.400
 1232TIP3   OH2 3580   8.359   4.124   0.336
 1232TIP3    H1 3581   8.401   4.189   0.396
 1232TIP3    H2 3582   8.285   4.096   0.393
 1233TIP3   OH2 3583   8.071   3.822   0.251
 1233TIP3    H1 3584   8.123   3.850   0.329
 1233TIP3    H2 3585   8.027   3.744   0.289
 1234TIP3   OH2 3586   8.214   3.279   0.267
 1234TIP3    H1 3587   8.202   3.373   0.249
 1234TIP3    H2 3588   8.287   3.276   0.331
 1235TIP3   OH2 3589   8.118   4.173   0.487
 1235TIP3    H1 3590   8.117   4.080   0.515
 1235TIP3    H2 3591   8.026   4.184   0.455
 1236TIP3   OH2 3592   8.230   3.897   0.474
 1236TIP3    H1 3593   8.301   3.833   0.459
 1236TIP3    H2 3594   8.252   3.929   0.564
 1237TIP3   OH2 3595   8.549   3.699   0.470
 1237TIP3    H1 3596   8.485   3.628   0.491
 1237TIP3    H2 3597   8.575   3.674   0.380
 1238TIP3   OH2 3598   8.405   3.479   0.554
 1238TIP3    H1 3599   8.416   3.398   0.501
 1238TIP3    H2 3600   8.439   3.451   0.641
 1239TIP3   OH2 3601   8.140   3.529   0.520
 1239TIP3    H1 3602   8.238   3.519   0.520
 1239TIP3    H2 3603   8.114   3.440   0.553
 1240TIP3   OH2 3604   8.065   3.067   0.220
 1240TIP3    H1 3605   8.034   3.067   0.312
 1240TIP3    H2 3606   8.106   3.157   0.216
 1241TIP3   OH2 3607   8.378   3.191   0.475
 1241TIP3    H1 3608   8.343   3.118   0.528
 1241TIP3    H2 3609   8.471   3.194   0.507
 1242TIP3   OH2 3610   8.614   3.198   0.601
 1242TIP3    H1 3611   8.711   3.203   0.590
 1242TIP3    H2 3612   8.609   3.125   0.667
 1243TIP3   OH2 3613   0.435   4.177   1.975
 1243TIP3    H1 3614   0.368   4.226   1.923
 1243TIP3    H2 3615   0.450   4.239   2.049
 1244TIP3   OH2 3616  -0.126   4.986   1.630
 1244TIP3    H1 3617  -0.221   4.975   1.640
 1244TIP3    H2 3618  -0.116   5.043   1.551
 1245TIP3   OH2 3619   0.084   4.913   1.937
 1245TIP3    H1 3620   0.075   4.835   1.878
 1245TIP3    H2 3621   0.072   4.987   1.875
 1246TIP3   OH2 3622   0.278   4.546   1.784
 1246TIP3    H1 3623   0.194   4.597   1.788
 1246TIP3    H2 3624   0.307   4.567   1.693
 1247TIP3   OH2 3625  -0.027   4.426   2.090
 1247TIP3    H1 3626  -0.041   4.509   2.141
 1247TIP3    H2 3627  -0.103   4.424   2.031
 1248TIP3   OH2 3628   0.322   5.255   1.981
 1248TIP3    H1 3629   0.321   5.159   1.995
 1248TIP3    H2 3630   0.241   5.281   2.031
 1249TIP3   OH2 3631  -0.556   5.028   2.124
 1249TIP3    H1 3632  -0.546   5.120   2.159
 1249TIP3    H2 3633  -0.652   5.020   2.127
 1250TIP3   OH2 3634   0.212   4.384   2.260
 1250TIP3    H1 3635   0.132   4.397   2.207
 1250TIP3    H2 3636   0.226   4.288   2.253
 1251TIP3   OH2 3637  -0.027   4.159   2.168
 1251TIP3    H1 3638  -0.058   4.159   2.261
 1251TIP3    H2 3639  -0.035   4.253   2.145
 1252TIP3   OH2 3640  -0.311   4.402   2.423
 1252TIP3    H1 3641  -0.342   4.321   2.469
 1252TIP3    H2 3642  -0.215   4.396   2.437
 1253TIP3   OH2 3643   0.010   5.602   2.104
 1253TIP3    H1 3644   0.006   5.621   2.008
 1253TIP3    H2 3645   0.089   5.651   2.132
 1254TIP3   OH2 3646   0.050   4.697   1.770
 1254TIP3    H1 3647   0.084   4.747   1.692
 1254TIP3    H2 3648  -0.041   4.680   1.744
 1255TIP3   OH2 3649  -0.424   4.791   2.121
 1255TIP3    H1 3650  -0.427   4.752   2.210
 1255TIP3    H2 3651  -0.479   4.871   2.134
 1256TIP3   OH2 3652  -0.549   4.529   2.475
 1256TIP3    H1 3653  -0.608   4.501   2.401
 1256TIP3    H2 3654  -0.464   4.490   2.445
 1257TIP3   OH2 3655  -0.302   5.094   2.019
 1257TIP3    H1 3656  -0.386   5.051   2.041
 1257TIP3    H2 3657  -0.270   5.114   2.110
 1258TIP3   OH2 3658   0.335   4.965   2.026
 1258TIP3    H1 3659   0.237   4.960   2.019
 1258TIP3    H2 3660   0.360   4.935   1.936
 1259TIP3   OH2 3661  -0.321   4.801   1.856
 1259TIP3    H1 3662  -0.354   4.817   1.946
 1259TIP3    H2 3663  -0.355   4.712   1.840
 1260TIP3   OH2 3664  -0.140   5.287   1.927
 1260TIP3    H1 3665  -0.196   5.213   1.961
 1260TIP3    H2 3666  -0.202   5.327   1.863
 1261TIP3   OH2 3667   0.243   4.115   2.182
 1261TIP3    H1 3668   0.146   4.109   2.174
 1261TIP3    H2 3669   0.272   4.112   2.089
 1262TIP3   OH2 3670  -0.230   5.165   2.270
 1262TIP3    H1 3671  -0.239   5.094   2.338
 1262TIP3    H2 3672  -0.157   5.218   2.307
 1263TIP3   OH2 3673  -0.608   4.796   2.450
 1263TIP3    H1 3674  -0.679   4.765   2.394
 1263TIP3    H2 3675  -0.571   4.710   2.480
 1264TIP3   OH2 3676  -0.118   4.788   2.080
 1264TIP3    H1 3677  -0.051   4.843   2.034
 1264TIP3    H2 3678  -0.200   4.832   2.054
 1265TIP3   OH2 3679  -0.259   4.719   2.474
 1265TIP3    H1 3680  -0.179   4.692   2.427
 1265TIP3    H2 3681  -0.268   4.649   2.541
 1266TIP3   OH2 3682  -0.035   4.415   2.536
 1266TIP3    H1 3683  -0.021   4.321   2.514
 1266TIP3    H2 3684   0.041   4.458   2.494
 1267TIP3   OH2 3685   0.004   4.649   2.269
 1267TIP3    H1 3686  -0.053   4.705   2.211
 1267TIP3    H2 3687   0.091   4.668   2.228
 1268TIP3   OH2 3688  -0.422   4.189   2.559
 1268TIP3    H1 3689  -0.405   4.164   2.652
 1268TIP3    H2 3690  -0.517   4.208   2.567
 1269TIP3   OH2 3691  -0.097   4.164   2.432
 1269TIP3    H1 3692  -0.177   4.115   2.458
 1269TIP3    H2 3693  -0.026   4.111   2.475
 1270TIP3   OH2 3694   0.103   4.046   2.572
 1270TIP3    H1 3695   0.099   3.950   2.589
 1270TIP3    H2 3696   0.089   4.086   2.660
 1271TIP3   OH2 3697   0.146   5.431   1.481
 1271TIP3    H1 3698   0.175   5.385   1.562
 1271TIP3    H2 3699   0.204   5.390   1.414
 1272TIP3   OH2 3700   0.163   5.384   1.768
 1272TIP3    H1 3701   0.111   5.302   1.760
 1272TIP3    H2 3702   0.235   5.351   1.825
 1273TIP3   OH2 3703   0.194   5.056   2.326
 1273TIP3    H1 3704   0.122   5.064   2.391
 1273TIP3    H2 3705   0.236   5.145   2.331
 1274TIP3   OH2 3706   0.194   4.823   1.580
 1274TIP3    H1 3707   0.251   4.758   1.535
 1274TIP3    H2 3708   0.199   4.900   1.519
 1275TIP3   OH2 3709   0.040   5.138   1.782
 1275TIP3    H1 3710  -0.030   5.181   1.835
 1275TIP3    H2 3711  -0.013   5.085   1.719
 1276TIP3   OH2 3712   0.243   4.718   2.153
 1276TIP3    H1 3713   0.314   4.651   2.144
 1276TIP3    H2 3714   0.271   4.787   2.091
 1277TIP3   OH2 3715   0.427   4.523   2.169
 1277TIP3    H1 3716   0.352   4.472   2.209
 1277TIP3    H2 3717   0.500   4.460   2.186
 1278TIP3   OH2 3718   0.186   4.326   1.929
 1278TIP3    H1 3719   0.117   4.373   1.979
 1278TIP3    H2 3720   0.221   4.397   1.871
 1279TIP3   OH2 3721   0.625   3.911   2.480
 1279TIP3    H1 3722   0.690   3.849   2.439
 1279TIP3    H2 3723   0.600   3.968   2.405
 1280TIP3   OH2 3724   0.503   4.056   2.284
 1280TIP3    H1 3725   0.416   4.096   2.306
 1280TIP3    H2 3726   0.475   3.991   2.218
 1281TIP3   OH2 3727  -0.550   5.282   2.210
 1281TIP3    H1 3728  -0.540   5.324   2.297
 1281TIP3    H2 3729  -0.517   5.351   2.150
 1282TIP3   OH2 3730  -0.369   5.431   2.052
 1282TIP3    H1 3731  -0.281   5.390   2.055
 1282TIP3    H2 3732  -0.352   5.506   2.113
 1283TIP3   OH2 3733   0.395   3.812   2.151
 1283TIP3    H1 3734   0.307   3.826   2.111
 1283TIP3    H2 3735   0.400   3.715   2.151
 1284TIP3   OH2 3736   0.133   3.769   2.590
 1284TIP3    H1 3737   0.161   3.746   2.681
 1284TIP3    H2 3738   0.218   3.775   2.543
 1285TIP3   OH2 3739   0.082   5.337   2.089
 1285TIP3    H1 3740   0.006   5.308   2.035
 1285TIP3    H2 3741   0.060   5.432   2.102
 1286TIP3   OH2 3742   1.366   4.731   0.870
 1286TIP3    H1 3743   1.331   4.818   0.843
 1286TIP3    H2 3744   1.292   4.674   0.842
 1287TIP3   OH2 3745   1.336   4.709   1.235
 1287TIP3    H1 3746   1.374   4.684   1.321
 1287TIP3    H2 3747   1.303   4.624   1.203
 1288TIP3   OH2 3748   0.639   4.608   1.600
 1288TIP3    H1 3749   0.663   4.529   1.651
 1288TIP3    H2 3750   0.721   4.659   1.606
 1289TIP3   OH2 3751   1.582   5.015   0.909
 1289TIP3    H1 3752   1.566   4.943   0.971
 1289TIP3    H2 3753   1.614   5.086   0.968
 1290TIP3   OH2 3754   0.609   5.012   1.321
 1290TIP3    H1 3755   0.599   4.915   1.325
 1290TIP3    H2 3756   0.706   5.021   1.324
 1291TIP3   OH2 3757   1.226   5.473   0.921
 1291TIP3    H1 3758   1.281   5.398   0.891
 1291TIP3    H2 3759   1.214   5.454   1.015
 1292TIP3   OH2 3760   1.141   4.933   1.277
 1292TIP3    H1 3761   1.183   4.855   1.238
 1292TIP3    H2 3762   1.223   4.981   1.303
 1293TIP3   OH2 3763   2.153   4.255   1.276
 1293TIP3    H1 3764   2.182   4.338   1.320
 1293TIP3    H2 3765   2.173   4.276   1.183
 1294TIP3   OH2 3766   1.556   4.437   1.310
 1294TIP3    H1 3767   1.594   4.350   1.331
 1294TIP3    H2 3768   1.519   4.421   1.221
 1295TIP3   OH2 3769   1.572   4.177   0.919
 1295TIP3    H1 3770   1.658   4.167   0.967
 1295TIP3    H2 3771   1.600   4.209   0.832
 1296TIP3   OH2 3772   0.977   4.485   1.177
 1296TIP3    H1 3773   1.073   4.476   1.198
 1296TIP3    H2 3774   0.953   4.393   1.162
 1297TIP3   OH2 3775   2.227   4.464   1.444
 1297TIP3    H1 3776   2.142   4.509   1.426
 1297TIP3    H2 3777   2.234   4.481   1.539
 1298TIP3   OH2 3778   0.882   4.074   1.715
 1298TIP3    H1 3779   0.821   4.114   1.649
 1298TIP3    H2 3780   0.832   4.095   1.797
 1299TIP3   OH2 3781   1.244   4.938   0.728
 1299TIP3    H1 3782   1.203   4.918   0.642
 1299TIP3    H2 3783   1.198   5.021   0.749
 1300TIP3   OH2 3784   0.992   4.854   1.505
 1300TIP3    H1 3785   0.930   4.919   1.544
 1300TIP3    H2 3786   1.035   4.906   1.435
 1301TIP3   OH2 3787   1.800   4.188   1.068
 1301TIP3    H1 3788   1.777   4.142   1.150
 1301TIP3    H2 3789   1.847   4.267   1.101
 1302TIP3   OH2 3790   0.755   4.195   1.513
 1302TIP3    H1 3791   0.827   4.259   1.501
 1302TIP3    H2 3792   0.766   4.130   1.441
 1303TIP3   OH2 3793   0.820   5.049   1.602
 1303TIP3    H1 3794   0.795   5.137   1.567
 1303TIP3    H2 3795   0.742   5.031   1.658
 1304TIP3   OH2 3796   1.653   5.253   1.078
 1304TIP3    H1 3797   1.564   5.244   1.118
 1304TIP3    H2 3798   1.646   5.341   1.035
 1305TIP3   OH2 3799   1.945   4.158   1.443
 1305TIP3    H1 3800   1.856   4.183   1.412
 1305TIP3    H2 3801   2.003   4.188   1.370
 1306TIP3   OH2 3802   1.266   3.820   1.427
 1306TIP3    H1 3803   1.246   3.726   1.445
 1306TIP3    H2 3804   1.182   3.860   1.459
 1307TIP3   OH2 3805   1.367   5.293   0.768
 1307TIP3    H1 3806   1.416   5.210   0.746
 1307TIP3    H2 3807   1.434   5.357   0.735
 1308TIP3   OH2 3808   1.509   5.086   0.653
 1308TIP3    H1 3809   1.466   5.008   0.616
 1308TIP3    H2 3810   1.540   5.052   0.740
 1309TIP3   OH2 3811   1.881   5.166   1.424
 1309TIP3    H1 3812   1.868   5.089   1.364
 1309TIP3    H2 3813   1.862   5.241   1.363
 1310TIP3   OH2 3814   1.195   4.596   0.706
 1310TIP3    H1 3815   1.108   4.633   0.681
 1310TIP3    H2 3816   1.249   4.621   0.629
 1311TIP3   OH2 3817   2.076   4.805   1.268
 1311TIP3    H1 3818   1.992   4.856   1.274
 1311TIP3    H2 3819   2.104   4.829   1.177
 1312TIP3   OH2 3820   1.527   4.650   0.664
 1312TIP3    H1 3821   1.478   4.679   0.745
 1312TIP3    H2 3822   1.608   4.615   0.704
 1313TIP3   OH2 3823   1.754   4.682   1.564
 1313TIP3    H1 3824   1.750   4.766   1.614
 1313TIP3    H2 3825   1.667   4.685   1.519
 1314TIP3   OH2 3826   0.784   4.640   1.065
 1314TIP3    H1 3827   0.728   4.561   1.048
 1314TIP3    H2 3828   0.862   4.596   1.106
 1315TIP3   OH2 3829   0.891   5.044   1.212
 1315TIP3    H1 3830   0.873   4.977   1.145
 1315TIP3    H2 3831   0.982   5.020   1.238
 1316TIP3   OH2 3832   0.884   4.615   1.418
 1316TIP3    H1 3833   0.930   4.592   1.335
 1316TIP3    H2 3834   0.929   4.699   1.445
 1317TIP3   OH2 3835   1.413   5.248   1.198
 1317TIP3    H1 3836   1.402   5.329   1.250
 1317TIP3    H2 3837   1.398   5.177   1.264
 1318TIP3   OH2 3838   1.026   5.168   1.748
 1318TIP3    H1 3839   0.966   5.230   1.793
 1318TIP3    H2 3840   0.960   5.115   1.698
 1319TIP3   OH2 3841   1.357   4.530   0.485
 1319TIP3    H1 3842   1.430   4.559   0.545
 1319TIP3    H2 3843   1.392   4.551   0.398
 1320TIP3   OH2 3844   0.781   4.727   1.848
 1320TIP3    H1 3845   0.783   4.813   1.894
 1320TIP3    H2 3846   0.687   4.704   1.857
 1321TIP3   OH2 3847   1.105   5.195   0.733
 1321TIP3    H1 3848   1.183   5.236   0.773
 1321TIP3    H2 3849   1.032   5.249   0.765
 1322TIP3   OH2 3850   0.820   5.336   1.834
 1322TIP3    H1 3851   0.786   5.336   1.743
 1322TIP3    H2 3852   0.740   5.314   1.887
 1323TIP3   OH2 3853   1.694   5.123   0.112
 1323TIP3    H1 3854   1.677   5.196   0.050
 1323TIP3    H2 3855   1.768   5.075   0.069
 1324TIP3   OH2 3856   0.399   4.867   1.782
 1324TIP3    H1 3857   0.336   4.842   1.712
 1324TIP3    H2 3858   0.438   4.781   1.808
 1325TIP3   OH2 3859   0.255   5.037   1.413
 1325TIP3    H1 3860   0.350   5.050   1.395
 1325TIP3    H2 3861   0.230   5.124   1.446
 1326TIP3   OH2 3862   2.119   5.512   1.471
 1326TIP3    H1 3863   2.116   5.416   1.484
 1326TIP3    H2 3864   2.035   5.538   1.515
 1327TIP3   OH2 3865   1.224   5.297   1.605
 1327TIP3    H1 3866   1.222   5.389   1.637
 1327TIP3    H2 3867   1.152   5.257   1.659
 1328TIP3   OH2 3868   1.275   5.370   0.514
 1328TIP3    H1 3869   1.190   5.397   0.549
 1328TIP3    H2 3870   1.303   5.303   0.580
 1329TIP3   OH2 3871   2.007   4.643   1.743
 1329TIP3    H1 3872   1.925   4.654   1.694
 1329TIP3    H2 3873   2.023   4.547   1.733
 1330TIP3   OH2 3874   0.604   5.050   1.769
 1330TIP3    H1 3875   0.654   5.033   1.851
 1330TIP3    H2 3876   0.530   4.986   1.777
 1331TIP3   OH2 3877   1.025   3.913   1.529
 1331TIP3    H1 3878   0.955   3.845   1.521
 1331TIP3    H2 3879   0.982   3.972   1.592
 1332TIP3   OH2 3880   1.539   3.992   1.749
 1332TIP3    H1 3881   1.606   3.960   1.812
 1332TIP3    H2 3882   1.454   3.970   1.793
 1333TIP3   OH2 3883   1.779   4.420   1.669
 1333TIP3    H1 3884   1.727   4.415   1.753
 1333TIP3    H2 3885   1.750   4.505   1.631
 1334TIP3   OH2 3886   0.944   4.396   1.570
 1334TIP3    H1 3887   0.885   4.403   1.648
 1334TIP3    H2 3888   0.918   4.476   1.520
 1335TIP3   OH2 3889   1.303   4.378   0.832
 1335TIP3    H1 3890   1.259   4.453   0.787
 1335TIP3    H2 3891   1.371   4.353   0.766
 1336TIP3   OH2 3892   1.484   4.639   1.902
 1336TIP3    H1 3893   1.460   4.566   1.963
 1336TIP3    H2 3894   1.578   4.651   1.923
 1337TIP3   OH2 3895   1.468   4.391   1.055
 1337TIP3    H1 3896   1.403   4.413   0.985
 1337TIP3    H2 3897   1.500   4.305   1.018
 1338TIP3   OH2 3898   0.762   4.422   1.775
 1338TIP3    H1 3899   0.780   4.476   1.853
 1338TIP3    H2 3900   0.733   4.337   1.814
 1339TIP3   OH2 3901   1.478   4.636   1.474
 1339TIP3    H1 3902   1.511   4.563   1.416
 1339TIP3    H2 3903   1.448   4.582   1.551
 1340TIP3   OH2 3904   1.159   4.123   1.165
 1340TIP3    H1 3905   1.088   4.093   1.223
 1340TIP3    H2 3906   1.238   4.100   1.218
 1341TIP3   OH2 3907   1.638   4.174   1.349
 1341TIP3    H1 3908   1.604   4.185   1.441
 1341TIP3    H2 3909   1.573   4.111   1.314
 1342TIP3   OH2 3910   1.808   5.859   1.568
 1342TIP3    H1 3911   1.803   5.888   1.475
 1342TIP3    H2 3912   1.876   5.919   1.604
 1343TIP3   OH2 3913   0.765   4.973   1.990
 1343TIP3    H1 3914   0.845   5.003   2.038
 1343TIP3    H2 3915   0.700   4.971   2.063
 1344TIP3   OH2 3916   1.232   4.431   1.250
 1344TIP3    H1 3917   1.291   4.375   1.198
 1344TIP3    H2 3918   1.235   4.388   1.338
 1345TIP3   OH2 3919   1.208   4.329   1.525
 1345TIP3    H1 3920   1.117   4.359   1.548
 1345TIP3    H2 3921   1.264   4.383   1.583
 1346TIP3   OH2 3922   0.951   4.701   0.646
 1346TIP3    H1 3923   0.885   4.631   0.649
 1346TIP3    H2 3924   0.934   4.749   0.731
 1347TIP3   OH2 3925   1.841   4.948   1.260
 1347TIP3    H1 3926   1.866   4.998   1.179
 1347TIP3    H2 3927   1.756   4.906   1.234
 1348TIP3   OH2 3928   1.341   5.031   1.626
 1348TIP3    H1 3929   1.364   5.010   1.717
 1348TIP3    H2 3930   1.303   5.121   1.634
 1349TIP3   OH2 3931   1.490   4.307   0.650
 1349TIP3    H1 3932   1.587   4.297   0.641
 1349TIP3    H2 3933   1.460   4.305   0.557
 1350TIP3   OH2 3934   0.636   4.736   1.313
 1350TIP3    H1 3935   0.670   4.708   1.227
 1350TIP3    H2 3936   0.683   4.677   1.374
 1351TIP3   OH2 3937   1.094   4.894   0.498
 1351TIP3    H1 3938   1.044   4.967   0.459
 1351TIP3    H2 3939   1.026   4.838   0.542
 1352TIP3   OH2 3940   0.515   4.656   1.919
 1352TIP3    H1 3941   0.533   4.639   2.013
 1352TIP3    H2 3942   0.449   4.587   1.898
 1353TIP3   OH2 3943   1.240   4.770   1.939
 1353TIP3    H1 3944   1.177   4.709   1.896
 1353TIP3    H2 3945   1.326   4.734   1.909
 1354TIP3   OH2 3946   1.502   5.288   1.524
 1354TIP3    H1 3947   1.405   5.289   1.536
 1354TIP3    H2 3948   1.530   5.341   1.601
 1355TIP3   OH2 3949   1.910   4.359   0.429
 1355TIP3    H1 3950   1.844   4.311   0.378
 1355TIP3    H2 3951   1.903   4.448   0.388
 1356TIP3   OH2 3952   2.131   5.221   1.512
 1356TIP3    H1 3953   2.033   5.216   1.504
 1356TIP3    H2 3954   2.156   5.191   1.422
 1357TIP3   OH2 3955   1.651   5.200   0.363
 1357TIP3    H1 3956   1.593   5.143   0.417
 1357TIP3    H2 3957   1.648   5.153   0.275
 1358TIP3   OH2 3958   1.608   4.811   1.176
 1358TIP3    H1 3959   1.514   4.787   1.189
 1358TIP3    H2 3960   1.641   4.731   1.131
 1359TIP3   OH2 3961   0.721   5.048   0.908
 1359TIP3    H1 3962   0.747   5.131   0.952
 1359TIP3    H2 3963   0.638   5.027   0.954
 1360TIP3   OH2 3964   0.874   4.816   0.872
 1360TIP3    H1 3965   0.826   4.901   0.884
 1360TIP3    H2 3966   0.840   4.763   0.947
 1361TIP3   OH2 3967   1.007   5.381   1.401
 1361TIP3    H1 3968   1.045   5.456   1.350
 1361TIP3    H2 3969   1.085   5.349   1.449
 1362TIP3   OH2 3970   1.392   5.017   1.359
 1362TIP3    H1 3971   1.382   5.016   1.457
 1362TIP3    H2 3972   1.472   4.964   1.347
 1363TIP3   OH2 3973   1.359   4.903   0.254
 1363TIP3    H1 3974   1.406   4.882   0.336
 1363TIP3    H2 3975   1.278   4.850   0.259
 1364TIP3   OH2 3976   1.644   5.547   1.407
 1364TIP3    H1 3977   1.563   5.493   1.399
 1364TIP3    H2 3978   1.629   5.614   1.337
 1365TIP3   OH2 3979   1.691   5.397   0.055
 1365TIP3    H1 3980   1.736   5.459  -0.004
 1365TIP3    H2 3981   1.598   5.417   0.035
 1366TIP3   OH2 3982   0.724   4.160   1.929
 1366TIP3    H1 3983   0.627   4.159   1.937
 1366TIP3    H2 3984   0.750   4.100   2.001
 1367TIP3   OH2 3985   1.528   4.842   0.468
 1367TIP3    H1 3986   1.522   4.778   0.542
 1367TIP3    H2 3987   1.624   4.839   0.449
 1368TIP3   OH2 3988   0.443   5.244   1.566
 1368TIP3    H1 3989   0.492   5.167   1.598
 1368TIP3    H2 3990   0.479   5.315   1.621
 1369TIP3   OH2 3991   1.564   4.227   1.609
 1369TIP3    H1 3992   1.646   4.261   1.650
 1369TIP3    H2 3993   1.548   4.145   1.661
 1370TIP3   OH2 3994   1.224   4.122   0.875
 1370TIP3    H1 3995   1.250   4.214   0.856
 1370TIP3    H2 3996   1.168   4.137   0.954
 1371TIP3   OH2 3997   1.404   4.474   1.682
 1371TIP3    H1 3998   1.424   4.525   1.763
 1371TIP3    H2 3999   1.457   4.393   1.694
 1372TIP3   OH2 4000   1.339   3.901   0.989
 1372TIP3    H1 4001   1.320   3.915   1.083
 1372TIP3    H2 4002   1.322   3.991   0.954
 1373TIP3   OH2 4003   2.044   4.375   1.660
 1373TIP3    H1 4004   1.946   4.377   1.672
 1373TIP3    H2 4005   2.049   4.323   1.579
 1374TIP3   OH2 4006   1.694   4.569   1.050
 1374TIP3    H1 4007   1.617   4.511   1.063
 1374TIP3    H2 4008   1.764   4.521   1.100
 1375TIP3   OH2 4009   1.663   5.524   1.001
 1375TIP3    H1 4010   1.622   5.571   0.926
 1375TIP3    H2 4011   1.758   5.543   0.981
 1376TIP3   OH2 4012   0.435   5.555   1.981
 1376TIP3    H1 4013   0.521   5.555   2.029
 1376TIP3    H2 4014   0.415   5.460   1.979
 1377TIP3   OH2 4015   0.913   5.516   2.028
 1377TIP3    H1 4016   1.009   5.501   2.032
 1377TIP3    H2 4017   0.888   5.458   1.953
 1378TIP3   OH2 4018   1.554   5.424   1.758
 1378TIP3    H1 4019   1.547   5.355   1.828
 1378TIP3    H2 4020   1.630   5.477   1.789
 1379TIP3   OH2 4021   0.565   4.960   2.181
 1379TIP3    H1 4022   0.581   4.864   2.186
 1379TIP3    H2 4023   0.477   4.962   2.137
 1380TIP3   OH2 4024   1.172   5.046   1.954
 1380TIP3    H1 4025   1.130   5.063   1.868
 1380TIP3    H2 4026   1.202   4.952   1.946
 1381TIP3   OH2 4027   1.665   5.054   1.561
 1381TIP3    H1 4028   1.739   5.099   1.517
 1381TIP3    H2 4029   1.593   5.120   1.548
 1382TIP3   OH2 4030   0.683   4.696   2.164
 1382TIP3    H1 4031   0.758   4.640   2.139
 1382TIP3    H2 4032   0.711   4.727   2.252
 1383TIP3   OH2 4033   1.025   4.586   1.832
 1383TIP3    H1 4034   0.942   4.638   1.828
 1383TIP3    H2 4035   1.070   4.614   1.749
 1384TIP3   OH2 4036   1.537   4.982   1.959
 1384TIP3    H1 4037   1.614   4.953   1.909
 1384TIP3    H2 4038   1.531   4.913   2.028
 1385TIP3   OH2 4039   1.683   4.653   0.063
 1385TIP3    H1 4040   1.640   4.643  -0.024
 1385TIP3    H2 4041   1.649   4.739   0.089
 1386TIP3   OH2 4042   1.143   4.367   1.951
 1386TIP3    H1 4043   1.140   4.288   1.894
 1386TIP3    H2 4044   1.098   4.434   1.894
 1387TIP3   OH2 4045   1.139   4.158   1.758
 1387TIP3    H1 4046   1.167   4.189   1.670
 1387TIP3    H2 4047   1.047   4.129   1.741
 1388TIP3   OH2 4048   1.171   4.688   1.629
 1388TIP3    H1 4049   1.255   4.697   1.583
 1388TIP3    H2 4050   1.115   4.756   1.585
 1389TIP3   OH2 4051   1.754   4.656   2.013
 1389TIP3    H1 4052   1.799   4.570   2.021
 1389TIP3    H2 4053   1.823   4.711   1.976
 1390TIP3   OH2 4054   1.794   4.910   1.750
 1390TIP3    H1 4055   1.736   4.963   1.690
 1390TIP3    H2 4056   1.882   4.929   1.709
 1391TIP3   OH2 4057   1.021   4.477   2.183
 1391TIP3    H1 4058   0.952   4.408   2.196
 1391TIP3    H2 4059   1.054   4.455   2.094
 1392TIP3   OH2 4060   1.283   3.925   1.826
 1392TIP3    H1 4061   1.229   4.004   1.803
 1392TIP3    H2 4062   1.216   3.854   1.815
 1393TIP3   OH2 4063   1.402   4.421   2.041
 1393TIP3    H1 4064   1.388   4.407   2.137
 1393TIP3    H2 4065   1.313   4.396   2.009
 1394TIP3   OH2 4066   1.643   4.374   1.898
 1394TIP3    H1 4067   1.566   4.371   1.958
 1394TIP3    H2 4068   1.715   4.339   1.954
 1395TIP3   OH2 4069   1.875   4.313   2.047
 1395TIP3    H1 4070   1.886   4.217   2.063
 1395TIP3    H2 4071   1.869   4.349   2.138
 1396TIP3   OH2 4072   0.859   4.259   2.236
 1396TIP3    H1 4073   0.862   4.168   2.199
 1396TIP3    H2 4074   0.895   4.243   2.325
 1397TIP3   OH2 4075   1.370   3.928   2.086
 1397TIP3    H1 4076   1.436   3.856   2.080
 1397TIP3    H2 4077   1.332   3.924   1.996
 1398TIP3   OH2 4078   1.438   4.143   2.241
 1398TIP3    H1 4079   1.417   4.070   2.178
 1398TIP3    H2 4080   1.359   4.200   2.234
 1399TIP3   OH2 4081   1.916   5.615   0.953
 1399TIP3    H1 4082   1.941   5.650   1.041
 1399TIP3    H2 4083   1.988   5.649   0.897
 1400TIP3   OH2 4084   1.944   5.634   1.237
 1400TIP3    H1 4085   1.901   5.546   1.234
 1400TIP3    H2 4086   2.017   5.615   1.297
 1401TIP3   OH2 4087   1.992   5.312   1.814
 1401TIP3    H1 4088   1.918   5.321   1.878
 1401TIP3    H2 4089   2.032   5.402   1.818
 1402TIP3   OH2 4090   1.807   4.817   0.432
 1402TIP3    H1 4091   1.876   4.881   0.404
 1402TIP3    H2 4092   1.848   4.782   0.514
 1403TIP3   OH2 4093   1.935   4.692   0.639
 1403TIP3    H1 4094   1.869   4.649   0.698
 1403TIP3    H2 4095   1.999   4.730   0.702
 1404TIP3   OH2 4096   1.988   5.081   1.071
 1404TIP3    H1 4097   2.043   5.018   1.021
 1404TIP3    H2 4098   1.990   5.160   1.012
 1405TIP3   OH2 4099   1.820   5.384   1.264
 1405TIP3    H1 4100   1.749   5.428   1.316
 1405TIP3    H2 4101   1.769   5.338   1.194
 1406TIP3   OH2 4102   1.862   4.593   0.279
 1406TIP3    H1 4103   1.798   4.607   0.206
 1406TIP3    H2 4104   1.838   4.669   0.338
 1407TIP3   OH2 4105   1.753   4.546   0.784
 1407TIP3    H1 4106   1.755   4.449   0.780
 1407TIP3    H2 4107   1.737   4.562   0.880
 1408TIP3   OH2 4108   0.379   4.625   1.529
 1408TIP3    H1 4109   0.386   4.589   1.439
 1408TIP3    H2 4110   0.475   4.628   1.553
 1409TIP3   OH2 4111   2.038   4.975   1.641
 1409TIP3    H1 4112   2.110   4.908   1.631
 1409TIP3    H2 4113   2.063   5.043   1.578
 1410TIP3   OH2 4114   2.224   4.779   1.654
 1410TIP3    H1 4115   2.148   4.730   1.693
 1410TIP3    H2 4116   2.296   4.715   1.670
 1411TIP3   OH2 4117   1.762   4.264   0.673
 1411TIP3    H1 4118   1.797   4.175   0.695
 1411TIP3    H2 4119   1.828   4.296   0.610
 1412TIP3   OH2 4120   1.906   4.438   1.173
 1412TIP3    H1 4121   1.992   4.464   1.133
 1412TIP3    H2 4122   1.918   4.475   1.263
 1413TIP3   OH2 4123   1.975   4.584   1.404
 1413TIP3    H1 4124   1.898   4.617   1.453
 1413TIP3    H2 4125   2.007   4.666   1.360
 1414TIP3   OH2 4126   0.592   4.311   2.208
 1414TIP3    H1 4127   0.690   4.303   2.207
 1414TIP3    H2 4128   0.568   4.225   2.248
 1415TIP3   OH2 4129   2.428   4.177   1.960
 1415TIP3    H1 4130   2.487   4.110   1.919
 1415TIP3    H2 4131   2.399   4.230   1.883
 1416TIP3   OH2 4132   1.856   4.005   0.712
 1416TIP3    H1 4133   1.907   4.008   0.796
 1416TIP3    H2 4134   1.815   3.918   0.722
 1417TIP3   OH2 4135   0.438   4.310   1.635
 1417TIP3    H1 4136   0.392   4.242   1.584
 1417TIP3    H2 4137   0.386   4.388   1.617
 1418TIP3   OH2 4138   2.298   4.314   1.764
 1418TIP3    H1 4139   2.211   4.354   1.785
 1418TIP3    H2 4140   2.269   4.240   1.707
 1419TIP3   OH2 4141   1.998   3.940   0.345
 1419TIP3    H1 4142   2.038   3.893   0.270
 1419TIP3    H2 4143   2.054   4.020   0.347
 1420TIP3   OH2 4144   1.548   5.464   0.633
 1420TIP3    H1 4145   1.508   5.491   0.550
 1420TIP3    H2 4146   1.558   5.548   0.683
 1421TIP3   OH2 4147   0.552   3.880   1.920
 1421TIP3    H1 4148   0.513   3.847   2.002
 1421TIP3    H2 4149   0.492   3.953   1.899
 1422TIP3   OH2 4150   0.600   5.288   2.000
 1422TIP3    H1 4151   0.508   5.260   1.983
 1422TIP3    H2 4152   0.609   5.268   2.094
 1423TIP3   OH2 4153   0.780   5.318   1.548
 1423TIP3    H1 4154   0.733   5.394   1.508
 1423TIP3    H2 4155   0.866   5.331   1.503
 1424TIP3   OH2 4156   1.222   5.562   1.687
 1424TIP3    H1 4157   1.265   5.565   1.775
 1424TIP3    H2 4158   1.286   5.613   1.633
 1425TIP3   OH2 4159   1.397   5.710   1.539
 1425TIP3    H1 4160   1.470   5.660   1.499
 1425TIP3    H2 4161   1.447   5.764   1.604
 1426TIP3   OH2 4162   2.197   4.075   1.644
 1426TIP3    H1 4163   2.105   4.064   1.614
 1426TIP3    H2 4164   2.230   3.982   1.635
 1427TIP3   OH2 4165   0.467   5.575   1.582
 1427TIP3    H1 4166   0.390   5.628   1.557
 1427TIP3    H2 4167   0.486   5.609   1.670
 1428TIP3   OH2 4168   0.696   5.552   1.427
 1428TIP3    H1 4169   0.610   5.563   1.472
 1428TIP3    H2 4170   0.675   5.583   1.336
 1429TIP3   OH2 4171   1.129   5.581   1.235
 1429TIP3    H1 4172   1.049   5.595   1.178
 1429TIP3    H2 4173   1.139   5.670   1.272
 1430TIP3   OH2 4174   1.394   5.518   1.278
 1430TIP3    H1 4175   1.298   5.536   1.264
 1430TIP3    H2 4176   1.434   5.598   1.240
 1431TIP3   OH2 4177   1.594   5.714   1.195
 1431TIP3    H1 4178   1.580   5.799   1.148
 1431TIP3    H2 4179   1.620   5.654   1.121
 1432TIP3   OH2 4180   0.359   5.359   1.326
 1432TIP3    H1 4181   0.403   5.333   1.409
 1432TIP3    H2 4182   0.425   5.327   1.261
 1433TIP3   OH2 4183   0.551   5.241   1.176
 1433TIP3    H1 4184   0.570   5.159   1.228
 1433TIP3    H2 4185   0.641   5.279   1.169
 1434TIP3   OH2 4186   0.816   5.309   1.182
 1434TIP3    H1 4187   0.858   5.222   1.195
 1434TIP3    H2 4188   0.864   5.364   1.247
 1435TIP3   OH2 4189   1.395   3.994   1.259
 1435TIP3    H1 4190   1.356   3.930   1.323
 1435TIP3    H2 4191   1.471   3.944   1.224
 1436TIP3   OH2 4192   1.928   3.871   1.164
 1436TIP3    H1 4193   1.960   3.929   1.092
 1436TIP3    H2 4194   1.831   3.889   1.163
 1437TIP3   OH2 4195   2.019   3.977   0.928
 1437TIP3    H1 4196   2.094   3.924   0.894
 1437TIP3    H2 4197   2.055   4.068   0.919
 1438TIP3   OH2 4198   1.650   3.884   1.150
 1438TIP3    H1 4199   1.625   3.849   1.063
 1438TIP3    H2 4200   1.635   3.804   1.206
 1439TIP3   OH2 4201   0.857   3.986   2.176
 1439TIP3    H1 4202   0.823   3.910   2.227
 1439TIP3    H2 4203   0.952   3.983   2.200
 1440TIP3   OH2 4204   1.109   3.980   2.291
 1440TIP3    H1 4205   1.192   3.954   2.246
 1440TIP3    H2 4206   1.098   3.906   2.353
 1441TIP3   OH2 4207   1.933   4.042   2.078
 1441TIP3    H1 4208   1.951   4.009   2.169
 1441TIP3    H2 4209   2.021   4.035   2.037
 1442TIP3   OH2 4210   1.871   5.592   1.571
 1442TIP3    H1 4211   1.792   5.561   1.522
 1442TIP3    H2 4212   1.852   5.688   1.575
 1443TIP3   OH2 4213   3.139   4.967   0.334
 1443TIP3    H1 4214   3.109   5.058   0.314
 1443TIP3    H2 4215   3.061   4.916   0.305
 1444TIP3   OH2 4216   3.137   4.964   0.719
 1444TIP3    H1 4217   3.170   4.938   0.807
 1444TIP3    H2 4218   3.095   4.883   0.688
 1445TIP3   OH2 4219   2.436   4.859   1.081
 1445TIP3    H1 4220   2.465   4.790   1.145
 1445TIP3    H2 4221   2.513   4.918   1.082
 1446TIP3   OH2 4222   3.381   5.268   0.398
 1446TIP3    H1 4223   3.364   5.199   0.463
 1446TIP3    H2 4224   3.409   5.343   0.454
 1447TIP3   OH2 4225   2.407   5.270   0.802
 1447TIP3    H1 4226   2.398   5.173   0.807
 1447TIP3    H2 4227   2.504   5.279   0.803
 1448TIP3   OH2 4228   2.117   4.476   0.588
 1448TIP3    H1 4229   2.069   4.559   0.607
 1448TIP3    H2 4230   2.043   4.419   0.562
 1449TIP3   OH2 4231   2.173   4.759   0.763
 1449TIP3    H1 4232   2.221   4.682   0.803
 1449TIP3    H2 4233   2.237   4.790   0.698
 1450TIP3   OH2 4234   3.028   5.729   0.414
 1450TIP3    H1 4235   3.074   5.656   0.366
 1450TIP3    H2 4236   3.020   5.692   0.503
 1451TIP3   OH2 4237   2.935   5.191   0.765
 1451TIP3    H1 4238   2.974   5.114   0.721
 1451TIP3    H2 4239   3.018   5.237   0.790
 1452TIP3   OH2 4240   3.948   4.512   0.763
 1452TIP3    H1 4241   3.978   4.594   0.806
 1452TIP3    H2 4242   3.970   4.530   0.670
 1453TIP3   OH2 4243   3.350   4.693   0.797
 1453TIP3    H1 4244   3.390   4.607   0.818
 1453TIP3    H2 4245   3.316   4.676   0.707
 1454TIP3   OH2 4246   2.686   4.352   0.762
 1454TIP3    H1 4247   2.665   4.424   0.700
 1454TIP3    H2 4248   2.638   4.278   0.720
 1455TIP3   OH2 4249   3.380   4.443   0.384
 1455TIP3    H1 4250   3.451   4.426   0.450
 1455TIP3    H2 4251   3.433   4.477   0.311
 1456TIP3   OH2 4252   2.320   4.554   0.869
 1456TIP3    H1 4253   2.402   4.534   0.919
 1456TIP3    H2 4254   2.333   4.497   0.791
 1457TIP3   OH2 4255   2.760   4.752   0.662
 1457TIP3    H1 4256   2.854   4.726   0.677
 1457TIP3    H2 4257   2.721   4.668   0.632
 1458TIP3   OH2 4258   4.023   4.721   0.931
 1458TIP3    H1 4259   3.938   4.766   0.912
 1458TIP3    H2 4260   4.030   4.736   1.026
 1459TIP3   OH2 4261   2.683   4.335   1.197
 1459TIP3    H1 4262   2.621   4.372   1.131
 1459TIP3    H2 4263   2.631   4.351   1.279
 1460TIP3   OH2 4264   3.031   5.190   0.204
 1460TIP3    H1 4265   2.984   5.170   0.122
 1460TIP3    H2 4266   2.985   5.272   0.232
 1461TIP3   OH2 4267   2.789   5.111   0.992
 1461TIP3    H1 4268   2.726   5.176   1.030
 1461TIP3    H2 4269   2.830   5.162   0.919
 1462TIP3   OH2 4270   3.589   4.447   0.557
 1462TIP3    H1 4271   3.579   4.396   0.639
 1462TIP3    H2 4272   3.641   4.523   0.587
 1463TIP3   OH2 4273   2.553   4.451   0.981
 1463TIP3    H1 4274   2.616   4.523   1.006
 1463TIP3    H2 4275   2.603   4.409   0.907
 1464TIP3   OH2 4276   2.617   5.305   1.089
 1464TIP3    H1 4277   2.591   5.392   1.053
 1464TIP3    H2 4278   2.538   5.288   1.146
 1465TIP3   OH2 4279   2.007   4.983   0.328
 1465TIP3    H1 4280   1.973   5.003   0.238
 1465TIP3    H2 4281   2.056   5.063   0.353
 1466TIP3   OH2 4282   3.451   5.510   0.566
 1466TIP3    H1 4283   3.362   5.502   0.606
 1466TIP3    H2 4284   3.443   5.597   0.521
 1467TIP3   OH2 4285   3.742   4.414   0.931
 1467TIP3    H1 4286   3.653   4.439   0.899
 1467TIP3    H2 4287   3.800   4.444   0.858
 1468TIP3   OH2 4288   3.037   4.053   0.911
 1468TIP3    H1 4289   3.025   3.958   0.931
 1468TIP3    H2 4290   2.959   4.091   0.959
 1469TIP3   OH2 4291   3.151   5.554   0.238
 1469TIP3    H1 4292   3.202   5.471   0.220
 1469TIP3    H2 4293   3.216   5.619   0.202
 1470TIP3   OH2 4294   3.299   5.340   0.144
 1470TIP3    H1 4295   3.251   5.262   0.113
 1470TIP3    H2 4296   3.335   5.308   0.230
 1471TIP3   OH2 4297   3.678   5.423   0.910
 1471TIP3    H1 4298   3.664   5.345   0.852
 1471TIP3    H2 4299   3.658   5.497   0.849
 1472TIP3   OH2 4300   2.967   4.816   0.169
 1472TIP3    H1 4301   2.888   4.869   0.146
 1472TIP3    H2 4302   3.013   4.812   0.083
 1473TIP3   OH2 4303   2.919   4.591  -0.101
 1473TIP3    H1 4304   2.992   4.649  -0.070
 1473TIP3    H2 4305   2.967   4.514  -0.132
 1474TIP3   OH2 4306   3.873   5.063   0.756
 1474TIP3    H1 4307   3.788   5.113   0.761
 1474TIP3    H2 4308   3.900   5.085   0.665
 1475TIP3   OH2 4309   3.316   4.897   0.138
 1475TIP3    H1 4310   3.261   4.923   0.216
 1475TIP3    H2 4311   3.399   4.871   0.183
 1476TIP3   OH2 4312   3.550   4.939   1.051
 1476TIP3    H1 4313   3.546   5.022   1.101
 1476TIP3    H2 4314   3.463   4.941   1.006
 1477TIP3   OH2 4315   2.549   4.896   0.555
 1477TIP3    H1 4316   2.509   4.837   0.487
 1477TIP3    H2 4317   2.625   4.843   0.586
 1478TIP3   OH2 4318   2.680   5.310   0.703
 1478TIP3    H1 4319   2.659   5.266   0.619
 1478TIP3    H2 4320   2.770   5.275   0.722
 1479TIP3   OH2 4321   2.686   4.868   0.910
 1479TIP3    H1 4322   2.719   4.846   0.820
 1479TIP3    H2 4323   2.728   4.954   0.929
 1480TIP3   OH2 4324   3.211   5.506   0.687
 1480TIP3    H1 4325   3.196   5.586   0.741
 1480TIP3    H2 4326   3.195   5.433   0.750
 1481TIP3   OH2 4327   2.821   5.425   1.234
 1481TIP3    H1 4328   2.761   5.487   1.280
 1481TIP3    H2 4329   2.756   5.371   1.184
 1482TIP3   OH2 4330   3.152   4.757  -0.035
 1482TIP3    H1 4331   3.212   4.816   0.016
 1482TIP3    H2 4332   3.179   4.778  -0.128
 1483TIP3   OH2 4333   2.576   4.981   1.334
 1483TIP3    H1 4334   2.580   5.068   1.379
 1483TIP3    H2 4335   2.481   4.960   1.347
 1484TIP3   OH2 4336   2.899   5.435   0.244
 1484TIP3    H1 4337   2.978   5.491   0.257
 1484TIP3    H2 4338   2.839   5.494   0.197
 1485TIP3   OH2 4339   2.616   5.593   1.322
 1485TIP3    H1 4340   2.581   5.593   1.231
 1485TIP3    H2 4341   2.537   5.570   1.375
 1486TIP3   OH2 4342   3.675   4.002   0.013
 1486TIP3    H1 4343   3.592   4.015   0.063
 1486TIP3    H2 4344   3.681   4.085  -0.039
 1487TIP3   OH2 4345   2.418   4.738   0.354
 1487TIP3    H1 4346   2.348   4.781   0.301
 1487TIP3    H2 4347   2.376   4.655   0.379
 1488TIP3   OH2 4348   2.195   5.123   1.268
 1488TIP3    H1 4349   2.128   5.102   1.200
 1488TIP3    H2 4350   2.232   5.035   1.291
 1489TIP3   OH2 4351   2.052   5.303   0.917
 1489TIP3    H1 4352   2.145   5.315   0.894
 1489TIP3    H2 4353   2.028   5.392   0.947
 1490TIP3   OH2 4354   3.914   5.769   0.957
 1490TIP3    H1 4355   3.913   5.672   0.969
 1490TIP3    H2 4356   3.830   5.793   1.002
 1491TIP3   OH2 4357   3.020   5.553   1.092
 1491TIP3    H1 4358   3.018   5.645   1.124
 1491TIP3    H2 4359   2.947   5.513   1.145
 1492TIP3   OH2 4360   2.781   5.682   0.040
 1492TIP3    H1 4361   2.736   5.666  -0.045
 1492TIP3    H2 4362   2.753   5.772   0.063
 1493TIP3   OH2 4363   2.216   5.534   0.430
 1493TIP3    H1 4364   2.269   5.533   0.513
 1493TIP3    H2 4365   2.180   5.443   0.433
 1494TIP3   OH2 4366   2.976   5.595  -0.301
 1494TIP3    H1 4367   3.019   5.518  -0.341
 1494TIP3    H2 4368   3.010   5.593  -0.209
 1495TIP3   OH2 4369   3.035   5.621  -0.035
 1495TIP3    H1 4370   2.943   5.635  -0.002
 1495TIP3    H2 4371   3.077   5.585   0.044
 1496TIP3   OH2 4372   3.804   4.901   1.229
 1496TIP3    H1 4373   3.721   4.910   1.181
 1496TIP3    H2 4374   3.820   4.804   1.220
 1497TIP3   OH2 4375   2.400   5.306   1.255
 1497TIP3    H1 4376   2.449   5.290   1.338
 1497TIP3    H2 4377   2.326   5.243   1.262
 1498TIP3   OH2 4378   2.799   4.131   1.040
 1498TIP3    H1 4379   2.710   4.099   1.014
 1498TIP3    H2 4380   2.773   4.211   1.089
 1499TIP3   OH2 4381   3.333   4.246   1.236
 1499TIP3    H1 4382   3.402   4.216   1.299
 1499TIP3    H2 4383   3.250   4.224   1.282
 1500TIP3   OH2 4384   3.574   4.676   1.156
 1500TIP3    H1 4385   3.523   4.671   1.240
 1500TIP3    H2 4386   3.546   4.762   1.119
 1501TIP3   OH2 4387   3.233   4.802  -0.291
 1501TIP3    H1 4388   3.198   4.806  -0.381
 1501TIP3    H2 4389   3.315   4.853  -0.302
 1502TIP3   OH2 4390   2.955   4.201   0.016
 1502TIP3    H1 4391   2.921   4.189   0.107
 1502TIP3    H2 4392   2.922   4.121  -0.027
 1503TIP3   OH2 4393   2.732   4.646   1.060
 1503TIP3    H1 4394   2.680   4.666   1.141
 1503TIP3    H2 4395   2.715   4.727   1.007
 1504TIP3   OH2 4396   2.613   4.534   0.574
 1504TIP3    H1 4397   2.522   4.504   0.593
 1504TIP3    H2 4398   2.627   4.491   0.486
 1505TIP3   OH2 4399   3.106   4.617   0.303
 1505TIP3    H1 4400   3.053   4.688   0.259
 1505TIP3    H2 4401   3.160   4.584   0.228
 1506TIP3   OH2 4402   3.280   4.896   1.388
 1506TIP3    H1 4403   3.257   4.823   1.449
 1506TIP3    H2 4404   3.374   4.908   1.410
 1507TIP3   OH2 4405   3.263   4.645   0.539
 1507TIP3    H1 4406   3.201   4.672   0.468
 1507TIP3    H2 4407   3.297   4.564   0.497
 1508TIP3   OH2 4408   2.550   4.673   1.267
 1508TIP3    H1 4409   2.574   4.736   1.337
 1508TIP3    H2 4410   2.538   4.591   1.318
 1509TIP3   OH2 4411   2.584   4.125  -0.022
 1509TIP3    H1 4412   2.602   4.130   0.074
 1509TIP3    H2 4413   2.522   4.198  -0.032
 1510TIP3   OH2 4414   2.140   4.204   0.848
 1510TIP3    H1 4415   2.219   4.230   0.902
 1510TIP3    H2 4416   2.179   4.165   0.769
 1511TIP3   OH2 4417   2.124   4.186   0.365
 1511TIP3    H1 4418   2.175   4.222   0.290
 1511TIP3    H2 4419   2.068   4.262   0.388
 1512TIP3   OH2 4420   3.275   4.892   0.962
 1512TIP3    H1 4421   3.307   4.820   0.903
 1512TIP3    H2 4422   3.244   4.839   1.039
 1513TIP3   OH2 4423   2.943   4.357   0.634
 1513TIP3    H1 4424   2.861   4.353   0.688
 1513TIP3    H2 4425   3.012   4.348   0.702
 1514TIP3   OH2 4426   2.378   4.410   0.641
 1514TIP3    H1 4427   2.283   4.417   0.614
 1514TIP3    H2 4428   2.400   4.317   0.622
 1515TIP3   OH2 4429   2.647   4.405   0.335
 1515TIP3    H1 4430   2.742   4.419   0.317
 1515TIP3    H2 4431   2.603   4.425   0.250
 1516TIP3   OH2 4432   3.434   4.430   0.837
 1516TIP3    H1 4433   3.401   4.442   0.928
 1516TIP3    H2 4434   3.369   4.368   0.801
 1517TIP3   OH2 4435   2.491   4.431   0.113
 1517TIP3    H1 4436   2.397   4.417   0.097
 1517TIP3    H2 4437   2.524   4.475   0.033
 1518TIP3   OH2 4438   3.605   6.118   1.055
 1518TIP3    H1 4439   3.600   6.140   0.960
 1518TIP3    H2 4440   3.681   6.171   1.084
 1519TIP3   OH2 4441   2.562   5.229   1.476
 1519TIP3    H1 4442   2.641   5.259   1.525
 1519TIP3    H2 4443   2.496   5.226   1.549
 1520TIP3   OH2 4444   3.025   4.684   0.733
 1520TIP3    H1 4445   3.096   4.640   0.684
 1520TIP3    H2 4446   3.029   4.641   0.821
 1521TIP3   OH2 4447   2.546   4.168   0.612
 1521TIP3    H1 4448   2.510   4.091   0.661
 1521TIP3    H2 4449   2.601   4.124   0.545
 1522TIP3   OH2 4450   3.002   4.582   1.017
 1522TIP3    H1 4451   2.911   4.615   1.035
 1522TIP3    H2 4452   3.058   4.641   1.071
 1523TIP3   OH2 4453   2.739   4.970   0.114
 1523TIP3    H1 4454   2.665   4.906   0.105
 1523TIP3    H2 4455   2.722   5.004   0.205
 1524TIP3   OH2 4456   3.638   5.205   0.746
 1524TIP3    H1 4457   3.661   5.255   0.664
 1524TIP3    H2 4458   3.553   5.163   0.721
 1525TIP3   OH2 4459   3.212   4.282  -0.030
 1525TIP3    H1 4460   3.117   4.258  -0.024
 1525TIP3    H2 4461   3.214   4.375  -0.003
 1526TIP3   OH2 4462   3.142   5.290   1.113
 1526TIP3    H1 4463   3.159   5.265   1.204
 1526TIP3    H2 4464   3.098   5.377   1.122
 1527TIP3   OH2 4465   3.264   4.529   0.085
 1527TIP3    H1 4466   3.361   4.532   0.100
 1527TIP3    H2 4467   3.248   4.610   0.032
 1528TIP3   OH2 4468   2.430   4.991   0.792
 1528TIP3    H1 4469   2.471   4.961   0.708
 1528TIP3    H2 4470   2.470   4.931   0.857
 1529TIP3   OH2 4471   2.883   5.120  -0.069
 1529TIP3    H1 4472   2.840   5.207  -0.056
 1529TIP3    H2 4473   2.831   5.065  -0.007
 1530TIP3   OH2 4474   2.313   4.910   1.405
 1530TIP3    H1 4475   2.330   4.896   1.500
 1530TIP3    H2 4476   2.242   4.845   1.388
 1531TIP3   OH2 4477   3.037   5.027   1.425
 1531TIP3    H1 4478   2.976   4.967   1.380
 1531TIP3    H2 4479   3.124   4.991   1.397
 1532TIP3   OH2 4480   3.299   5.550   1.008
 1532TIP3    H1 4481   3.202   5.545   1.021
 1532TIP3    H2 4482   3.325   5.601   1.088
 1533TIP3   OH2 4483   3.707   4.615  -0.077
 1533TIP3    H1 4484   3.650   4.573  -0.145
 1533TIP3    H2 4485   3.705   4.706  -0.113
 1534TIP3   OH2 4486   3.928   5.480   0.997
 1534TIP3    H1 4487   3.830   5.473   0.990
 1534TIP3    H2 4488   3.953   5.448   0.908
 1535TIP3   OH2 4489   3.416   5.433  -0.183
 1535TIP3    H1 4490   3.381   5.385  -0.106
 1535TIP3    H2 4491   3.398   5.372  -0.255
 1536TIP3   OH2 4492   3.404   5.068   0.663
 1536TIP3    H1 4493   3.311   5.042   0.677
 1536TIP3    H2 4494   3.438   4.987   0.619
 1537TIP3   OH2 4495   2.534   5.294   0.414
 1537TIP3    H1 4496   2.535   5.376   0.362
 1537TIP3    H2 4497   2.441   5.286   0.436
 1538TIP3   OH2 4498   2.097   4.600   0.126
 1538TIP3    H1 4499   2.141   4.685   0.143
 1538TIP3    H2 4500   2.017   4.606   0.182
 1539TIP3   OH2 4501   2.670   5.059   0.359
 1539TIP3    H1 4502   2.635   5.149   0.377
 1539TIP3    H2 4503   2.635   5.009   0.435
 1540TIP3   OH2 4504   2.801   5.640   0.885
 1540TIP3    H1 4505   2.842   5.713   0.835
 1540TIP3    H2 4506   2.878   5.605   0.933
 1541TIP3   OH2 4507   2.451   5.536   0.270
 1541TIP3    H1 4508   2.367   5.549   0.318
 1541TIP3    H2 4509   2.488   5.628   0.272
 1542TIP3   OH2 4510   3.189   5.273   0.845
 1542TIP3    H1 4511   3.179   5.273   0.943
 1542TIP3    H2 4512   3.268   5.218   0.833
 1543TIP3   OH2 4513   3.155   5.137  -0.268
 1543TIP3    H1 4514   3.214   5.124  -0.191
 1543TIP3    H2 4515   3.069   5.145  -0.224
 1544TIP3   OH2 4516   3.438   5.807   0.896
 1544TIP3    H1 4517   3.359   5.750   0.890
 1544TIP3    H2 4518   3.421   5.870   0.823
 1545TIP3   OH2 4519   2.522   4.418   1.412
 1545TIP3    H1 4520   2.425   4.421   1.425
 1545TIP3    H2 4521   2.549   4.358   1.484
 1546TIP3   OH2 4522   3.324   5.099  -0.054
 1546TIP3    H1 4523   3.314   5.033   0.018
 1546TIP3    H2 4524   3.422   5.098  -0.064
 1547TIP3   OH2 4525   2.244   5.503   1.043
 1547TIP3    H1 4526   2.290   5.427   1.082
 1547TIP3    H2 4527   2.264   5.573   1.106
 1548TIP3   OH2 4528   2.523   5.147  -0.275
 1548TIP3    H1 4529   2.589   5.078  -0.295
 1548TIP3    H2 4530   2.504   5.135  -0.180
 1549TIP3   OH2 4531   2.477   5.152   0.004
 1549TIP3    H1 4532   2.551   5.129   0.062
 1549TIP3    H2 4533   2.480   5.250   0.007
 1550TIP3   OH2 4534   2.213   4.844   0.203
 1550TIP3    H1 4535   2.144   4.886   0.258
 1550TIP3    H2 4536   2.229   4.914   0.136
 1551TIP3   OH2 4537   3.360   4.482   1.096
 1551TIP3    H1 4538   3.441   4.517   1.137
 1551TIP3    H2 4539   3.345   4.400   1.149
 1552TIP3   OH2 4540   3.234   4.236   0.258
 1552TIP3    H1 4541   3.229   4.256   0.163
 1552TIP3    H2 4542   3.277   4.316   0.294
 1553TIP3   OH2 4543   2.745   5.348  -0.040
 1553TIP3    H1 4544   2.660   5.385  -0.009
 1553TIP3    H2 4545   2.743   5.371  -0.135
 1554TIP3   OH2 4546   2.926   4.413   0.363
 1554TIP3    H1 4547   2.993   4.483   0.346
 1554TIP3    H2 4548   2.933   4.404   0.460
 1555TIP3   OH2 4549   3.200   4.731   1.169
 1555TIP3    H1 4550   3.220   4.783   1.249
 1555TIP3    H2 4551   3.252   4.650   1.182
 1556TIP3   OH2 4552   3.073   4.138   0.464
 1556TIP3    H1 4553   3.072   4.213   0.526
 1556TIP3    H2 4554   3.133   4.173   0.394
 1557TIP3   OH2 4555   2.483   5.422   0.020
 1557TIP3    H1 4556   2.459   5.492  -0.045
 1557TIP3    H2 4557   2.470   5.469   0.105
 1558TIP3   OH2 4558   2.590   4.139   0.255
 1558TIP3    H1 4559   2.584   4.227   0.295
 1558TIP3    H2 4560   2.686   4.122   0.268
 1559TIP3   OH2 4561   3.840   4.632   1.146
 1559TIP3    H1 4562   3.742   4.633   1.158
 1559TIP3    H2 4563   3.845   4.579   1.066
 1560TIP3   OH2 4564   3.490   4.825   0.538
 1560TIP3    H1 4565   3.413   4.766   0.551
 1560TIP3    H2 4566   3.561   4.778   0.586
 1561TIP3   OH2 4567   2.209   5.063   0.015
 1561TIP3    H1 4568   2.287   5.122   0.019
 1561TIP3    H2 4569   2.245   4.999  -0.050
 1562TIP3   OH2 4570   2.171   4.340   0.133
 1562TIP3    H1 4571   2.148   4.436   0.127
 1562TIP3    H2 4572   2.099   4.300   0.082
 1563TIP3   OH2 4573   3.459   5.780   0.490
 1563TIP3    H1 4574   3.414   5.827   0.415
 1563TIP3    H2 4575   3.552   5.799   0.467
 1564TIP3   OH2 4576   2.535   4.050   1.015
 1564TIP3    H1 4577   2.504   4.014   0.929
 1564TIP3    H2 4578   2.525   3.972   1.074
 1565TIP3   OH2 4579   2.107   5.276   0.402
 1565TIP3    H1 4580   2.021   5.257   0.442
 1565TIP3    H2 4581   2.086   5.302   0.311
 1566TIP3   OH2 4582   2.230   5.811   1.466
 1566TIP3    H1 4583   2.316   5.809   1.513
 1566TIP3    H2 4584   2.207   5.716   1.466
 1567TIP3   OH2 4585   2.713   5.774   1.512
 1567TIP3    H1 4586   2.807   5.751   1.517
 1567TIP3    H2 4587   2.684   5.715   1.439
 1568TIP3   OH2 4588   2.714   5.343  -0.315
 1568TIP3    H1 4589   2.633   5.286  -0.309
 1568TIP3    H2 4590   2.741   5.325  -0.406
 1569TIP3   OH2 4591   3.351   5.681   1.245
 1569TIP3    H1 4592   3.342   5.611   1.313
 1569TIP3    H2 4593   3.427   5.732   1.278
 1570TIP3   OH2 4594   2.361   5.217   1.668
 1570TIP3    H1 4595   2.377   5.121   1.673
 1570TIP3    H2 4596   2.273   5.220   1.624
 1571TIP3   OH2 4597   2.342   4.872  -0.119
 1571TIP3    H1 4598   2.411   4.840  -0.057
 1571TIP3    H2 4599   2.385   4.866  -0.205
 1572TIP3   OH2 4600   2.969   5.303   1.441
 1572TIP3    H1 4601   2.925   5.319   1.355
 1572TIP3    H2 4602   2.998   5.209   1.433
 1573TIP3   OH2 4603   2.800   5.030  -0.323
 1573TIP3    H1 4604   2.829   5.086  -0.248
 1573TIP3    H2 4605   2.857   4.954  -0.312
 1574TIP3   OH2 4606   3.462   5.310   1.049
 1574TIP3    H1 4607   3.534   5.357   1.004
 1574TIP3    H2 4608   3.388   5.373   1.035
 1575TIP3   OH2 4609   2.481   4.953   1.650
 1575TIP3    H1 4610   2.553   4.893   1.629
 1575TIP3    H2 4611   2.506   4.985   1.739
 1576TIP3   OH2 4612   2.542   4.772   0.080
 1576TIP3    H1 4613   2.519   4.737   0.167
 1576TIP3    H2 4614   2.581   4.693   0.035
 1577TIP3   OH2 4615   2.816   4.837   1.313
 1577TIP3    H1 4616   2.736   4.895   1.313
 1577TIP3    H2 4617   2.865   4.871   1.234
 1578TIP3   OH2 4618   2.645   4.562  -0.080
 1578TIP3    H1 4619   2.642   4.525  -0.168
 1578TIP3    H2 4620   2.742   4.577  -0.071
 1579TIP3   OH2 4621   3.333   5.238   1.446
 1579TIP3    H1 4622   3.410   5.208   1.396
 1579TIP3    H2 4623   3.327   5.171   1.516
 1580TIP3   OH2 4624   3.474   4.918  -0.369
 1580TIP3    H1 4625   3.488   4.882  -0.459
 1580TIP3    H2 4626   3.477   5.013  -0.389
 1581TIP3   OH2 4627   2.939   4.625   1.437
 1581TIP3    H1 4628   2.938   4.544   1.381
 1581TIP3    H2 4629   2.894   4.690   1.379
 1582TIP3   OH2 4630   2.941   4.412   1.244
 1582TIP3    H1 4631   2.968   4.450   1.159
 1582TIP3    H2 4632   2.847   4.387   1.227
 1583TIP3   OH2 4633   2.967   4.946   1.118
 1583TIP3    H1 4634   3.050   4.954   1.070
 1583TIP3    H2 4635   2.910   5.012   1.073
 1584TIP3   OH2 4636   3.549   4.912   1.499
 1584TIP3    H1 4637   3.594   4.827   1.512
 1584TIP3    H2 4638   3.620   4.967   1.463
 1585TIP3   OH2 4639   3.591   5.167   1.237
 1585TIP3    H1 4640   3.533   5.220   1.177
 1585TIP3    H2 4641   3.678   5.186   1.197
 1586TIP3   OH2 4642   2.817   4.734   1.669
 1586TIP3    H1 4643   2.748   4.666   1.684
 1586TIP3    H2 4644   2.851   4.708   1.581
 1587TIP3   OH2 4645   3.073   4.174   1.311
 1587TIP3    H1 4646   3.023   4.255   1.290
 1587TIP3    H2 4647   3.004   4.105   1.301
 1588TIP3   OH2 4648   3.198   4.678   1.528
 1588TIP3    H1 4649   3.185   4.663   1.624
 1588TIP3    H2 4650   3.109   4.653   1.497
 1589TIP3   OH2 4651   3.438   4.629   1.384
 1589TIP3    H1 4652   3.362   4.628   1.446
 1589TIP3    H2 4653   3.511   4.596   1.441
 1590TIP3   OH2 4654   3.670   4.569   1.533
 1590TIP3    H1 4655   3.681   4.473   1.550
 1590TIP3    H2 4656   3.664   4.606   1.624
 1591TIP3   OH2 4657   2.657   4.515   1.721
 1591TIP3    H1 4658   2.660   4.423   1.688
 1591TIP3    H2 4659   2.693   4.502   1.811
 1592TIP3   OH2 4660   3.168   4.185   1.569
 1592TIP3    H1 4661   3.234   4.113   1.565
 1592TIP3    H2 4662   3.128   4.177   1.480
 1593TIP3   OH2 4663   3.235   4.400   1.727
 1593TIP3    H1 4664   3.213   4.327   1.664
 1593TIP3    H2 4665   3.155   4.457   1.721
 1594TIP3   OH2 4666   2.447   5.617  -0.167
 1594TIP3    H1 4667   2.540   5.623  -0.197
 1594TIP3    H2 4668   2.401   5.670  -0.233
 1595TIP3   OH2 4669   1.945   5.005   0.060
 1595TIP3    H1 4670   2.033   5.039   0.031
 1595TIP3    H2 4671   1.934   4.928   0.004
 1596TIP3   OH2 4672   3.713   5.869   0.447
 1596TIP3    H1 4673   3.738   5.905   0.533
 1596TIP3    H2 4674   3.772   5.916   0.386
 1597TIP3   OH2 4675   3.741   5.893   0.729
 1597TIP3    H1 4676   3.695   5.807   0.722
 1597TIP3    H2 4677   3.814   5.867   0.787
 1598TIP3   OH2 4678   3.787   5.570   1.300
 1598TIP3    H1 4679   3.714   5.577   1.365
 1598TIP3    H2 4680   3.828   5.659   1.306
 1599TIP3   OH2 4681   3.605   5.084  -0.071
 1599TIP3    H1 4682   3.682   5.139  -0.094
 1599TIP3    H2 4683   3.638   5.041   0.011
 1600TIP3   OH2 4684   3.730   4.950   0.127
 1600TIP3    H1 4685   3.665   4.905   0.186
 1600TIP3    H2 4686   3.795   4.986   0.190
 1601TIP3   OH2 4687   3.787   5.343   0.558
 1601TIP3    H1 4688   3.839   5.277   0.508
 1601TIP3    H2 4689   3.780   5.416   0.493
 1602TIP3   OH2 4690   3.616   5.643   0.751
 1602TIP3    H1 4691   3.544   5.684   0.801
 1602TIP3    H2 4692   3.567   5.595   0.680
 1603TIP3   OH2 4693   3.675   4.853  -0.206
 1603TIP3    H1 4694   3.597   4.856  -0.265
 1603TIP3    H2 4695   3.654   4.930  -0.150
 1604TIP3   OH2 4696   3.552   4.537  -0.289
 1604TIP3    H1 4697   3.470   4.572  -0.326
 1604TIP3    H2 4698   3.528   4.442  -0.279
 1605TIP3   OH2 4699   3.545   4.805   0.269
 1605TIP3    H1 4700   3.551   4.708   0.264
 1605TIP3    H2 4701   3.531   4.819   0.366
 1606TIP3   OH2 4702   2.171   4.879   1.017
 1606TIP3    H1 4703   2.169   4.849   0.924
 1606TIP3    H2 4704   2.268   4.881   1.033
 1607TIP3   OH2 4705   3.835   5.231   1.128
 1607TIP3    H1 4706   3.906   5.164   1.118
 1607TIP3    H2 4707   3.859   5.298   1.063
 1608TIP3   OH2 4708   4.021   5.036   1.141
 1608TIP3    H1 4709   3.945   4.987   1.179
 1608TIP3    H2 4710   4.093   4.972   1.157
 1609TIP3   OH2 4711   3.481   4.280  -0.260
 1609TIP3    H1 4712   3.566   4.237  -0.236
 1609TIP3    H2 4713   3.415   4.216  -0.231
 1610TIP3   OH2 4714   3.541   4.522   0.164
 1610TIP3    H1 4715   3.580   4.433   0.180
 1610TIP3    H2 4716   3.601   4.553   0.093
 1611TIP3   OH2 4717   3.702   4.696   0.660
 1611TIP3    H1 4718   3.788   4.722   0.620
 1611TIP3    H2 4719   3.715   4.732   0.749
 1612TIP3   OH2 4720   3.772   4.841   0.891
 1612TIP3    H1 4721   3.694   4.873   0.940
 1612TIP3    H2 4722   3.804   4.923   0.847
 1613TIP3   OH2 4723   2.390   4.568   1.696
 1613TIP3    H1 4724   2.488   4.559   1.696
 1613TIP3    H2 4725   2.365   4.481   1.733
 1614TIP3   OH2 4726   4.223   4.433   1.447
 1614TIP3    H1 4727   4.282   4.366   1.406
 1614TIP3    H2 4728   4.196   4.486   1.369
 1615TIP3   OH2 4729   3.650   4.273   0.202
 1615TIP3    H1 4730   3.697   4.256   0.286
 1615TIP3    H2 4731   3.589   4.196   0.200
 1616TIP3   OH2 4732   2.351   4.258   1.019
 1616TIP3    H1 4733   2.412   4.183   1.031
 1616TIP3    H2 4734   2.414   4.332   1.015
 1617TIP3   OH2 4735   2.152   4.532   1.095
 1617TIP3    H1 4736   2.202   4.527   1.011
 1617TIP3    H2 4737   2.181   4.617   1.130
 1618TIP3   OH2 4738   4.094   4.571   1.250
 1618TIP3    H1 4739   4.007   4.611   1.272
 1618TIP3    H2 4740   4.065   4.497   1.194
 1619TIP3   OH2 4741   3.739   4.208  -0.180
 1619TIP3    H1 4742   3.801   4.145  -0.220
 1619TIP3    H2 4743   3.796   4.287  -0.172
 1620TIP3   OH2 4744   2.141   4.053   0.606
 1620TIP3    H1 4745   2.047   4.036   0.622
 1620TIP3    H2 4746   2.140   4.104   0.522
 1621TIP3   OH2 4747   3.311   5.729   0.109
 1621TIP3    H1 4748   3.357   5.726   0.024
 1621TIP3    H2 4749   3.344   5.811   0.148
 1622TIP3   OH2 4750   2.357   4.119   1.411
 1622TIP3    H1 4751   2.305   4.108   1.493
 1622TIP3    H2 4752   2.289   4.154   1.351
 1623TIP3   OH2 4753   2.397   5.542   1.488
 1623TIP3    H1 4754   2.304   5.517   1.470
 1623TIP3    H2 4755   2.404   5.524   1.582
 1624TIP3   OH2 4756   2.576   5.575   1.036
 1624TIP3    H1 4757   2.525   5.650   0.998
 1624TIP3    H2 4758   2.661   5.592   0.989
 1625TIP3   OH2 4759   3.019   5.819   1.173
 1625TIP3    H1 4760   3.060   5.820   1.262
 1625TIP3    H2 4761   3.084   5.870   1.121
 1626TIP3   OH2 4762   3.197   5.972   1.033
 1626TIP3    H1 4763   3.267   5.921   0.989
 1626TIP3    H2 4764   3.249   6.029   1.093
 1627TIP3   OH2 4765   3.993   4.332   1.132
 1627TIP3    H1 4766   3.902   4.321   1.100
 1627TIP3    H2 4767   4.027   4.240   1.122
 1628TIP3   OH2 4768   2.253   5.833   1.061
 1628TIP3    H1 4769   2.163   5.864   1.035
 1628TIP3    H2 4770   2.260   5.872   1.148
 1629TIP3   OH2 4771   2.488   5.811   0.917
 1629TIP3    H1 4772   2.401   5.823   0.962
 1629TIP3    H2 4773   2.467   5.845   0.828
 1630TIP3   OH2 4774   2.913   5.839   0.714
 1630TIP3    H1 4775   2.844   5.859   0.648
 1630TIP3    H2 4776   2.924   5.927   0.756
 1631TIP3   OH2 4777   3.181   5.780   0.766
 1631TIP3    H1 4778   3.087   5.796   0.747
 1631TIP3    H2 4779   3.223   5.856   0.722
 1632TIP3   OH2 4780   3.392   5.972   0.681
 1632TIP3    H1 4781   3.375   6.056   0.633
 1632TIP3    H2 4782   3.415   5.911   0.607
 1633TIP3   OH2 4783   2.168   5.634   0.809
 1633TIP3    H1 4784   2.194   5.601   0.898
 1633TIP3    H2 4785   2.229   5.581   0.754
 1634TIP3   OH2 4786   2.356   5.497   0.657
 1634TIP3    H1 4787   2.370   5.414   0.709
 1634TIP3    H2 4788   2.447   5.534   0.658
 1635TIP3   OH2 4789   2.622   5.591   0.665
 1635TIP3    H1 4790   2.654   5.499   0.656
 1635TIP3    H2 4791   2.666   5.615   0.748
 1636TIP3   OH2 4792   3.194   4.246   0.747
 1636TIP3    H1 4793   3.154   4.177   0.802
 1636TIP3    H2 4794   3.270   4.199   0.707
 1637TIP3   OH2 4795   3.720   4.133   0.657
 1637TIP3    H1 4796   3.755   4.183   0.580
 1637TIP3    H2 4797   3.624   4.147   0.648
 1638TIP3   OH2 4798   3.816   4.231   0.419
 1638TIP3    H1 4799   3.889   4.179   0.380
 1638TIP3    H2 4800   3.850   4.322   0.404
 1639TIP3   OH2 4801   2.446   3.957   0.766
 1639TIP3    H1 4802   2.354   3.924   0.765
 1639TIP3    H2 4803   2.495   3.872   0.763
 1640TIP3   OH2 4804   2.261   3.815   0.420
 1640TIP3    H1 4805   2.290   3.876   0.349
 1640TIP3    H2 4806   2.211   3.875   0.478
 1641TIP3   OH2 4807   2.888   3.992   0.647
 1641TIP3    H1 4808   2.950   4.039   0.588
 1641TIP3    H2 4809   2.913   4.025   0.734
 1642TIP3   OH2 4810   3.437   4.136   0.630
 1642TIP3    H1 4811   3.437   4.095   0.543
 1642TIP3    H2 4812   3.424   4.057   0.688
 1643TIP3   OH2 4813   3.470   4.058   0.195
 1643TIP3    H1 4814   3.380   4.094   0.197
 1643TIP3    H2 4815   3.456   3.973   0.243
 1644TIP3   OH2 4816   1.886   5.398   0.245
 1644TIP3    H1 4817   1.845   5.368   0.160
 1644TIP3    H2 4818   1.922   5.483   0.210
 1645TIP3   OH2 4819   2.352   3.982   0.210
 1645TIP3    H1 4820   2.393   3.910   0.160
 1645TIP3    H2 4821   2.428   4.042   0.224
 1646TIP3   OH2 4822   2.865   4.161   0.277
 1646TIP3    H1 4823   2.924   4.115   0.339
 1646TIP3    H2 4824   2.885   4.254   0.303
 1647TIP3   OH2 4825   2.712   5.605  -0.233
 1647TIP3    H1 4826   2.804   5.621  -0.263
 1647TIP3    H2 4827   2.697   5.520  -0.280
 1648TIP3   OH2 4828   3.440   5.705  -0.141
 1648TIP3    H1 4829   3.434   5.607  -0.151
 1648TIP3    H2 4830   3.361   5.735  -0.186
 1649TIP3   OH2 4831   2.654   4.241   1.660
 1649TIP3    H1 4832   2.619   4.169   1.715
 1649TIP3    H2 4833   2.749   4.239   1.687
 1650TIP3   OH2 4834   2.904   4.236   1.778
 1650TIP3    H1 4835   2.988   4.207   1.739
 1650TIP3    H2 4836   2.890   4.167   1.846
 1651TIP3   OH2 4837   2.024   5.411  -0.120
 1651TIP3    H1 4838   2.029   5.490  -0.065
 1651TIP3    H2 4839   2.113   5.404  -0.157
 1652TIP3   OH2 4840   3.729   4.298   1.565
 1652TIP3    H1 4841   3.747   4.266   1.656
 1652TIP3    H2 4842   3.817   4.291   1.524
 1653TIP3   OH2 4843   3.667   5.848   1.058
 1653TIP3    H1 4844   3.589   5.816   1.008
 1653TIP3    H2 4845   3.646   5.944   1.061
 1654TIP3   OH2 4846   4.921   5.233   0.219
 1654TIP3    H1 4847   4.965   5.197   0.299
 1654TIP3    H2 4848   4.893   5.152   0.175
 1655TIP3   OH2 4849   4.230   5.114   0.569
 1655TIP3    H1 4850   4.260   5.045   0.632
 1655TIP3    H2 4851   4.308   5.171   0.568
 1656TIP3   OH2 4852   4.204   5.528   0.298
 1656TIP3    H1 4853   4.192   5.430   0.298
 1656TIP3    H2 4854   4.300   5.533   0.287
 1657TIP3   OH2 4855   3.912   4.733   0.076
 1657TIP3    H1 4856   3.860   4.814   0.094
 1657TIP3    H2 4857   3.842   4.674   0.044
 1658TIP3   OH2 4858   3.970   5.016   0.251
 1658TIP3    H1 4859   4.017   4.939   0.289
 1658TIP3    H2 4860   4.030   5.044   0.181
 1659TIP3   OH2 4861   4.765   5.460   0.257
 1659TIP3    H1 4862   4.704   5.396   0.217
 1659TIP3    H2 4863   4.846   5.404   0.250
 1660TIP3   OH2 4864   5.742   4.764   0.255
 1660TIP3    H1 4865   5.770   4.845   0.304
 1660TIP3    H2 4866   5.789   4.777   0.170
 1661TIP3   OH2 4867   5.141   4.952   0.294
 1661TIP3    H1 4868   5.184   4.866   0.308
 1661TIP3    H2 4869   5.118   4.946   0.199
 1662TIP3   OH2 4870   4.481   4.609   0.251
 1662TIP3    H1 4871   4.463   4.680   0.186
 1662TIP3    H2 4872   4.435   4.534   0.207
 1663TIP3   OH2 4873   5.123   4.680  -0.057
 1663TIP3    H1 4874   5.184   4.662   0.017
 1663TIP3    H2 4875   5.191   4.677  -0.129
 1664TIP3   OH2 4876   4.116   4.811   0.356
 1664TIP3    H1 4877   4.198   4.790   0.405
 1664TIP3    H2 4878   4.128   4.753   0.277
 1665TIP3   OH2 4879   4.556   5.008   0.152
 1665TIP3    H1 4880   4.650   4.981   0.167
 1665TIP3    H2 4881   4.518   4.924   0.119
 1666TIP3   OH2 4882   5.816   4.970   0.421
 1666TIP3    H1 4883   5.732   5.017   0.406
 1666TIP3    H2 4884   5.839   5.002   0.510
 1667TIP3   OH2 4885   4.479   4.592   0.684
 1667TIP3    H1 4886   4.417   4.627   0.618
 1667TIP3    H2 4887   4.427   4.607   0.766
 1668TIP3   OH2 4888   4.581   5.367   0.475
 1668TIP3    H1 4889   4.516   5.417   0.529
 1668TIP3    H2 4890   4.600   5.433   0.407
 1669TIP3   OH2 4891   5.393   4.712   0.062
 1669TIP3    H1 4892   5.394   4.657   0.141
 1669TIP3    H2 4893   5.435   4.794   0.092
 1670TIP3   OH2 4894   4.349   4.707   0.469
 1670TIP3    H1 4895   4.413   4.777   0.493
 1670TIP3    H2 4896   4.398   4.665   0.394
 1671TIP3   OH2 4897   4.413   5.559   0.578
 1671TIP3    H1 4898   4.385   5.644   0.539
 1671TIP3    H2 4899   4.334   5.542   0.634
 1672TIP3   OH2 4900   3.804   5.251  -0.182
 1672TIP3    H1 4901   3.723   5.280  -0.226
 1672TIP3    H2 4902   3.820   5.324  -0.118
 1673TIP3   OH2 4903   5.194   5.808   0.101
 1673TIP3    H1 4904   5.114   5.756   0.087
 1673TIP3    H2 4905   5.222   5.823   0.008
 1674TIP3   OH2 4906   5.534   4.670   0.418
 1674TIP3    H1 4907   5.447   4.697   0.386
 1674TIP3    H2 4908   5.594   4.700   0.347
 1675TIP3   OH2 4909   4.832   4.308   0.396
 1675TIP3    H1 4910   4.822   4.213   0.418
 1675TIP3    H2 4911   4.756   4.345   0.445
 1676TIP3   OH2 4912   5.466   5.675   0.404
 1676TIP3    H1 4913   5.475   5.601   0.340
 1676TIP3    H2 4914   5.449   5.751   0.345
 1677TIP3   OH2 4915   5.669   5.311   0.272
 1677TIP3    H1 4916   5.590   5.370   0.270
 1677TIP3    H2 4917   5.689   5.306   0.177
 1678TIP3   OH2 4918   5.346   5.194   0.538
 1678TIP3    H1 4919   5.342   5.274   0.594
 1678TIP3    H2 4920   5.262   5.201   0.488
 1679TIP3   OH2 4921   4.346   5.155   0.044
 1679TIP3    H1 4922   4.299   5.097  -0.020
 1679TIP3    H2 4923   4.421   5.098   0.072
 1680TIP3   OH2 4924   4.466   5.558   0.187
 1680TIP3    H1 4925   4.422   5.541   0.101
 1680TIP3    H2 4926   4.557   5.534   0.169
 1681TIP3   OH2 4927   4.481   5.120   0.398
 1681TIP3    H1 4928   4.512   5.096   0.308
 1681TIP3    H2 4929   4.523   5.206   0.414
 1682TIP3   OH2 4930   4.939   5.753   0.252
 1682TIP3    H1 4931   4.953   5.849   0.237
 1682TIP3    H2 4932   5.030   5.726   0.273
 1683TIP3   OH2 4933   4.619   5.686   0.714
 1683TIP3    H1 4934   4.561   5.746   0.765
 1683TIP3    H2 4935   4.551   5.631   0.669
 1684TIP3   OH2 4936   4.372   5.241   0.818
 1684TIP3    H1 4937   4.375   5.326   0.867
 1684TIP3    H2 4938   4.278   5.217   0.832
 1685TIP3   OH2 4939   4.413   5.850   0.809
 1685TIP3    H1 4940   4.377   5.848   0.718
 1685TIP3    H2 4941   4.333   5.827   0.863
 1686TIP3   OH2 4942   4.203   4.996  -0.130
 1686TIP3    H1 4943   4.144   5.035  -0.197
 1686TIP3    H2 4944   4.159   4.912  -0.111
 1687TIP3   OH2 4945   3.992   5.381   0.754
 1687TIP3    H1 4946   3.924   5.359   0.687
 1687TIP3    H2 4947   4.028   5.292   0.777
 1688TIP3   OH2 4948   3.845   5.572   0.388
 1688TIP3    H1 4949   3.941   5.571   0.378
 1688TIP3    H2 4950   3.830   5.653   0.438
 1689TIP3   OH2 4951   5.705   6.017   0.445
 1689TIP3    H1 4952   5.706   5.922   0.466
 1689TIP3    H2 4953   5.624   6.046   0.493
 1690TIP3   OH2 4954   4.805   5.818   0.560
 1690TIP3    H1 4955   4.809   5.906   0.602
 1690TIP3    H2 4956   4.740   5.773   0.619
 1691TIP3   OH2 4957   4.005   5.780  -0.087
 1691TIP3    H1 4958   4.070   5.781  -0.014
 1691TIP3    H2 4959   3.953   5.702  -0.060
 1692TIP3   OH2 4960   5.595   5.153   0.718
 1692TIP3    H1 4961   5.515   5.160   0.664
 1692TIP3    H2 4962   5.615   5.057   0.710
 1693TIP3   OH2 4963   4.197   5.563   0.743
 1693TIP3    H1 4964   4.246   5.545   0.826
 1693TIP3    H2 4965   4.123   5.499   0.749
 1694TIP3   OH2 4966   4.595   4.387   0.527
 1694TIP3    H1 4967   4.506   4.355   0.500
 1694TIP3    H2 4968   4.568   4.467   0.576
 1695TIP3   OH2 4969   5.130   4.503   0.722
 1695TIP3    H1 4970   5.199   4.472   0.784
 1695TIP3    H2 4971   5.047   4.480   0.769
 1696TIP3   OH2 4972   5.367   4.930   0.640
 1696TIP3    H1 4973   5.318   4.926   0.726
 1696TIP3    H2 4974   5.341   5.016   0.605
 1697TIP3   OH2 4975   4.529   4.900   0.550
 1697TIP3    H1 4976   4.476   4.920   0.630
 1697TIP3    H2 4977   4.511   4.981   0.495
 1698TIP3   OH2 4978   4.411   4.788   0.058
 1698TIP3    H1 4979   4.319   4.761   0.079
 1698TIP3    H2 4980   4.420   4.748  -0.032
 1699TIP3   OH2 4981   5.076   5.154   0.875
 1699TIP3    H1 4982   5.053   5.080   0.936
 1699TIP3    H2 4983   5.171   5.164   0.896
 1700TIP3   OH2 4984   5.050   4.933   0.031
 1700TIP3    H1 4985   5.024   4.978  -0.052
 1700TIP3    H2 4986   5.070   4.843  -0.003
 1701TIP3   OH2 4987   4.346   4.930   0.755
 1701TIP3    H1 4988   4.371   4.990   0.827
 1701TIP3    H2 4989   4.333   4.846   0.804
 1702TIP3   OH2 4990   3.940   4.456   0.332
 1702TIP3    H1 4991   4.015   4.484   0.387
 1702TIP3    H2 4992   3.981   4.416   0.254
 1703TIP3   OH2 4993   3.907   4.434  -0.146
 1703TIP3    H1 4994   3.960   4.469  -0.221
 1703TIP3    H2 4995   3.850   4.511  -0.126
 1704TIP3   OH2 4996   5.059   5.153   0.451
 1704TIP3    H1 4997   5.097   5.081   0.394
 1704TIP3    H2 4998   5.036   5.098   0.529
 1705TIP3   OH2 4999   4.742   4.611   0.130
 1705TIP3    H1 5000   4.661   4.606   0.184
 1705TIP3    H2 5001   4.813   4.600   0.196
 1706TIP3   OH2 5002   4.174   4.666   0.127
 1706TIP3    H1 5003   4.079   4.672   0.101
 1706TIP3    H2 5004   4.196   4.574   0.107
 1707TIP3   OH2 5005   4.437   4.670  -0.193
 1707TIP3    H1 5006   4.535   4.674  -0.179
 1707TIP3    H2 5007   4.427   4.719  -0.275
 1708TIP3   OH2 5008   5.229   4.689   0.328
 1708TIP3    H1 5009   5.193   4.700   0.419
 1708TIP3    H2 5010   5.168   4.624   0.291
 1709TIP3   OH2 5011   5.400   6.371   0.575
 1709TIP3    H1 5012   5.394   6.380   0.477
 1709TIP3    H2 5013   5.469   6.437   0.595
 1710TIP3   OH2 5014   4.358   5.487   0.964
 1710TIP3    H1 5015   4.437   5.515   1.014
 1710TIP3    H2 5016   4.293   5.482   1.036
 1711TIP3   OH2 5017   4.819   4.943   0.222
 1711TIP3    H1 5018   4.895   4.912   0.171
 1711TIP3    H2 5019   4.828   4.894   0.306
 1712TIP3   OH2 5020   4.345   4.425   0.098
 1712TIP3    H1 5021   4.308   4.348   0.147
 1712TIP3    H2 5022   4.406   4.381   0.037
 1713TIP3   OH2 5023   4.798   4.837   0.502
 1713TIP3    H1 5024   4.708   4.869   0.522
 1713TIP3    H2 5025   4.855   4.894   0.558
 1714TIP3   OH2 5026   5.441   5.455   0.232
 1714TIP3    H1 5027   5.433   5.527   0.166
 1714TIP3    H2 5028   5.353   5.410   0.225
 1715TIP3   OH2 5029   4.908   5.551   0.592
 1715TIP3    H1 5030   4.937   5.493   0.664
 1715TIP3    H2 5031   4.898   5.635   0.639
 1716TIP3   OH2 5032   4.230   5.251   0.280
 1716TIP3    H1 5033   4.266   5.221   0.194
 1716TIP3    H2 5034   4.264   5.183   0.341
 1717TIP3   OH2 5035   4.109   5.167   0.891
 1717TIP3    H1 5036   4.125   5.152   0.986
 1717TIP3    H2 5037   4.039   5.102   0.873
 1718TIP3   OH2 5038   4.834   5.285   0.911
 1718TIP3    H1 5039   4.773   5.223   0.867
 1718TIP3    H2 5040   4.921   5.247   0.885
 1719TIP3   OH2 5041   5.087   5.796   0.499
 1719TIP3    H1 5042   4.993   5.814   0.516
 1719TIP3    H2 5043   5.127   5.851   0.570
 1720TIP3   OH2 5044   5.718   5.738   0.491
 1720TIP3    H1 5045   5.621   5.730   0.494
 1720TIP3    H2 5046   5.735   5.706   0.400
 1721TIP3   OH2 5047   5.201   5.322   0.204
 1721TIP3    H1 5048   5.110   5.302   0.176
 1721TIP3    H2 5049   5.245   5.249   0.154
 1722TIP3   OH2 5050   4.344   5.566  -0.071
 1722TIP3    H1 5051   4.353   5.656  -0.110
 1722TIP3    H2 5052   4.270   5.532  -0.126
 1723TIP3   OH2 5053   3.878   4.852  -0.390
 1723TIP3    H1 5054   3.920   4.937  -0.362
 1723TIP3    H2 5055   3.801   4.850  -0.329
 1724TIP3   OH2 5056   4.499   5.335  -0.110
 1724TIP3    H1 5057   4.445   5.415  -0.112
 1724TIP3    H2 5058   4.440   5.273  -0.063
 1725TIP3   OH2 5059   4.600   5.892   0.370
 1725TIP3    H1 5060   4.638   5.964   0.315
 1725TIP3    H2 5061   4.672   5.879   0.434
 1726TIP3   OH2 5062   5.030   5.506   0.346
 1726TIP3    H1 5063   5.050   5.497   0.442
 1726TIP3    H2 5064   5.101   5.449   0.309
 1727TIP3   OH2 5065   5.229   6.066   0.386
 1727TIP3    H1 5066   5.147   6.018   0.361
 1727TIP3    H2 5067   5.227   6.140   0.324
 1728TIP3   OH2 5068   4.318   4.675   0.899
 1728TIP3    H1 5069   4.221   4.678   0.912
 1728TIP3    H2 5070   4.346   4.615   0.970
 1729TIP3   OH2 5071   4.037   5.759   0.531
 1729TIP3    H1 5072   4.087   5.682   0.564
 1729TIP3    H2 5073   4.062   5.826   0.595
 1730TIP3   OH2 5074   3.998   5.080  -0.300
 1730TIP3    H1 5075   3.938   5.138  -0.249
 1730TIP3    H2 5076   4.040   5.144  -0.361
 1731TIP3   OH2 5077   5.151   4.742   0.588
 1731TIP3    H1 5078   5.236   4.776   0.621
 1731TIP3    H2 5079   5.139   4.660   0.640
 1732TIP3   OH2 5080   4.702   4.682  -0.134
 1732TIP3    H1 5081   4.783   4.718  -0.174
 1732TIP3    H2 5082   4.725   4.673  -0.040
 1733TIP3   OH2 5083   4.995   4.987   0.656
 1733TIP3    H1 5084   5.019   5.034   0.738
 1733TIP3    H2 5085   5.048   4.906   0.662
 1734TIP3   OH2 5086   4.889   4.422  -0.054
 1734TIP3    H1 5087   4.860   4.478   0.021
 1734TIP3    H2 5088   4.977   4.459  -0.069
 1735TIP3   OH2 5089   4.371   4.393  -0.245
 1735TIP3    H1 5090   4.371   4.485  -0.210
 1735TIP3    H2 5091   4.460   4.364  -0.214
 1736TIP3   OH2 5092   5.634   4.887   0.640
 1736TIP3    H1 5093   5.536   4.886   0.645
 1736TIP3    H2 5094   5.646   4.841   0.556
 1737TIP3   OH2 5095   5.295   5.107   0.062
 1737TIP3    H1 5096   5.223   5.050   0.031
 1737TIP3    H2 5097   5.366   5.042   0.080
 1738TIP3   OH2 5098   3.948   4.588  -0.384
 1738TIP3    H1 5099   3.921   4.683  -0.388
 1738TIP3    H2 5100   3.871   4.546  -0.424
 1739TIP3   OH2 5101   4.330   4.307   0.502
 1739TIP3    H1 5102   4.300   4.271   0.416
 1739TIP3    H2 5103   4.321   4.228   0.561
 1740TIP3   OH2 5104   3.852   5.534  -0.075
 1740TIP3    H1 5105   3.776   5.592  -0.058
 1740TIP3    H2 5106   3.863   5.538  -0.172
 1741TIP3   OH2 5107   4.026   6.067   0.955
 1741TIP3    H1 5108   4.113   6.063   1.000
 1741TIP3    H2 5109   4.002   5.972   0.952
 1742TIP3   OH2 5110   4.510   6.032   0.998
 1742TIP3    H1 5111   4.603   6.006   1.005
 1742TIP3    H2 5112   4.481   5.973   0.925
 1743TIP3   OH2 5113   5.153   5.932   0.725
 1743TIP3    H1 5114   5.142   5.866   0.798
 1743TIP3    H2 5115   5.227   5.986   0.759
 1744TIP3   OH2 5116   4.157   5.475   1.154
 1744TIP3    H1 5117   4.173   5.379   1.162
 1744TIP3    H2 5118   4.069   5.476   1.110
 1745TIP3   OH2 5119   4.764   5.559   0.927
 1745TIP3    H1 5120   4.721   5.570   0.840
 1745TIP3    H2 5121   4.797   5.466   0.923
 1746TIP3   OH2 5122   5.248   5.570   0.534
 1746TIP3    H1 5123   5.331   5.603   0.492
 1746TIP3    H2 5124   5.191   5.649   0.524
 1747TIP3   OH2 5125   4.278   5.211   1.135
 1747TIP3    H1 5126   4.348   5.147   1.117
 1747TIP3    H2 5127   4.304   5.242   1.225
 1748TIP3   OH2 5128   4.611   5.095   0.801
 1748TIP3    H1 5129   4.532   5.152   0.801
 1748TIP3    H2 5130   4.661   5.129   0.723
 1749TIP3   OH2 5131   5.131   5.494   0.929
 1749TIP3    H1 5132   5.215   5.469   0.890
 1749TIP3    H2 5133   5.121   5.429   1.000
 1750TIP3   OH2 5134   4.734   4.880   0.925
 1750TIP3    H1 5135   4.734   4.800   0.869
 1750TIP3    H2 5136   4.689   4.945   0.867
 1751TIP3   OH2 5137   4.737   4.669   0.732
 1751TIP3    H1 5138   4.765   4.704   0.645
 1751TIP3    H2 5139   4.643   4.644   0.714
 1752TIP3   OH2 5140   4.764   5.207   0.608
 1752TIP3    H1 5141   4.843   5.196   0.554
 1752TIP3    H2 5142   4.710   5.270   0.557
 1753TIP3   OH2 5143   5.346   5.169   0.985
 1753TIP3    H1 5144   5.388   5.082   0.998
 1753TIP3    H2 5145   5.420   5.221   0.951
 1754TIP3   OH2 5146   5.386   5.424   0.719
 1754TIP3    H1 5147   5.328   5.479   0.661
 1754TIP3    H2 5148   5.474   5.443   0.679
 1755TIP3   OH2 5149   4.611   4.992   1.154
 1755TIP3    H1 5150   4.544   4.923   1.170
 1755TIP3    H2 5151   4.647   4.965   1.068
 1756TIP3   OH2 5152   4.869   4.431   0.799
 1756TIP3    H1 5153   4.819   4.512   0.777
 1756TIP3    H2 5154   4.801   4.362   0.788
 1757TIP3   OH2 5155   4.993   4.937   1.015
 1757TIP3    H1 5156   4.982   4.920   1.111
 1757TIP3    H2 5157   4.904   4.910   0.985
 1758TIP3   OH2 5158   5.235   4.889   0.872
 1758TIP3    H1 5159   5.160   4.884   0.934
 1758TIP3    H2 5160   5.309   4.854   0.927
 1759TIP3   OH2 5161   5.463   4.825   1.020
 1759TIP3    H1 5162   5.476   4.729   1.037
 1759TIP3    H2 5163   5.460   4.862   1.111
 1760TIP3   OH2 5164   4.453   4.772   1.208
 1760TIP3    H1 5165   4.456   4.680   1.175
 1760TIP3    H2 5166   4.490   4.758   1.298
 1761TIP3   OH2 5167   4.964   4.441   1.057
 1761TIP3    H1 5168   5.031   4.370   1.052
 1761TIP3    H2 5169   4.924   4.434   0.967
 1762TIP3   OH2 5170   5.031   4.656   1.214
 1762TIP3    H1 5171   5.009   4.584   1.151
 1762TIP3    H2 5172   4.951   4.713   1.208
 1763TIP3   OH2 5173   3.638   5.882  -0.057
 1763TIP3    H1 5174   3.575   5.818  -0.095
 1763TIP3    H2 5175   3.681   5.828   0.013
 1764TIP3   OH2 5176   3.770   5.738   0.136
 1764TIP3    H1 5177   3.766   5.660   0.192
 1764TIP3    H2 5178   3.826   5.797   0.191
 1765TIP3   OH2 5179   5.558   6.123   0.214
 1765TIP3    H1 5180   5.520   6.034   0.224
 1765TIP3    H2 5181   5.625   6.120   0.285
 1766TIP3   OH2 5182   5.580   5.827   0.784
 1766TIP3    H1 5183   5.509   5.834   0.852
 1766TIP3    H2 5184   5.623   5.914   0.791
 1767TIP3   OH2 5185   5.404   5.896   0.251
 1767TIP3    H1 5186   5.354   5.952   0.314
 1767TIP3    H2 5187   5.329   5.864   0.195
 1768TIP3   OH2 5188   3.966   5.136   0.503
 1768TIP3    H1 5189   3.964   5.105   0.410
 1768TIP3    H2 5190   4.063   5.137   0.520
 1769TIP3   OH2 5191   5.630   5.488   0.612
 1769TIP3    H1 5192   5.700   5.418   0.608
 1769TIP3    H2 5193   5.666   5.554   0.550
 1770TIP3   OH2 5194   5.812   5.293   0.640
 1770TIP3    H1 5195   5.738   5.238   0.674
 1770TIP3    H2 5196   5.886   5.230   0.648
 1771TIP3   OH2 5197   5.509   4.952   0.145
 1771TIP3    H1 5198   5.593   4.981   0.103
 1771TIP3    H2 5199   5.523   4.987   0.236
 1772TIP3   OH2 5200   5.563   5.087   0.384
 1772TIP3    H1 5201   5.485   5.120   0.431
 1772TIP3    H2 5202   5.602   5.171   0.350
 1773TIP3   OH2 5203   4.187   4.826   1.184
 1773TIP3    H1 5204   4.285   4.816   1.184
 1773TIP3    H2 5205   4.161   4.739   1.220
 1774TIP3   OH2 5206   6.018   4.688   0.934
 1774TIP3    H1 5207   6.078   4.622   0.893
 1774TIP3    H2 5208   5.991   4.742   0.857
 1775TIP3   OH2 5209   4.146   4.515   0.507
 1775TIP3    H1 5210   4.206   4.439   0.518
 1775TIP3    H2 5211   4.209   4.588   0.502
 1776TIP3   OH2 5212   3.948   4.789   0.581
 1776TIP3    H1 5213   3.998   4.782   0.497
 1776TIP3    H2 5214   3.980   4.874   0.615
 1777TIP3   OH2 5215   5.890   4.827   0.737
 1777TIP3    H1 5216   5.802   4.866   0.756
 1777TIP3    H2 5217   5.863   4.753   0.680
 1778TIP3   OH2 5218   3.933   4.294   0.085
 1778TIP3    H1 5219   3.840   4.288   0.113
 1778TIP3    H2 5220   3.927   4.351   0.005
 1779TIP3   OH2 5221   4.153   4.377   0.899
 1779TIP3    H1 5222   4.101   4.366   0.981
 1779TIP3    H2 5223   4.085   4.411   0.838
 1780TIP3   OH2 5224   4.192   5.802   0.975
 1780TIP3    H1 5225   4.101   5.774   0.956
 1780TIP3    H2 5226   4.201   5.777   1.067
 1781TIP3   OH2 5227   4.373   5.831   0.522
 1781TIP3    H1 5228   4.321   5.905   0.484
 1781TIP3    H2 5229   4.457   5.846   0.474
 1782TIP3   OH2 5230   4.816   6.072   0.658
 1782TIP3    H1 5231   4.857   6.073   0.747
 1782TIP3    H2 5232   4.882   6.126   0.608
 1783TIP3   OH2 5233   4.996   6.227   0.522
 1783TIP3    H1 5234   5.072   6.177   0.488
 1783TIP3    H2 5235   5.042   6.288   0.584
 1784TIP3   OH2 5236   5.790   4.587   0.618
 1784TIP3    H1 5237   5.698   4.576   0.586
 1784TIP3    H2 5238   5.823   4.495   0.608
 1785TIP3   OH2 5239   4.049   6.091   0.545
 1785TIP3    H1 5240   3.960   6.123   0.519
 1785TIP3    H2 5241   4.053   6.125   0.635
 1786TIP3   OH2 5242   4.285   6.065   0.402
 1786TIP3    H1 5243   4.199   6.080   0.447
 1786TIP3    H2 5244   4.266   6.100   0.313
 1787TIP3   OH2 5245   4.716   6.092   0.203
 1787TIP3    H1 5246   4.638   6.107   0.145
 1787TIP3    H2 5247   4.726   6.180   0.244
 1788TIP3   OH2 5248   4.987   6.032   0.233
 1788TIP3    H1 5249   4.891   6.053   0.229
 1788TIP3    H2 5250   5.022   6.097   0.170
 1789TIP3   OH2 5251   3.957   5.884   0.292
 1789TIP3    H1 5252   3.985   5.855   0.381
 1789TIP3    H2 5253   4.028   5.840   0.239
 1790TIP3   OH2 5254   4.150   5.758   0.147
 1790TIP3    H1 5255   4.165   5.671   0.192
 1790TIP3    H2 5256   4.241   5.793   0.142
 1791TIP3   OH2 5257   4.415   5.854   0.147
 1791TIP3    H1 5258   4.445   5.765   0.122
 1791TIP3    H2 5259   4.459   5.865   0.234
 1792TIP3   OH2 5260   4.990   4.497   0.232
 1792TIP3    H1 5261   4.950   4.426   0.287
 1792TIP3    H2 5262   5.067   4.452   0.192
 1793TIP3   OH2 5263   5.509   4.392   0.151
 1793TIP3    H1 5264   5.546   4.429   0.068
 1793TIP3    H2 5265   5.414   4.402   0.137
 1794TIP3   OH2 5266   5.632   4.456  -0.089
 1794TIP3    H1 5267   5.722   4.420  -0.078
 1794TIP3    H2 5268   5.653   4.550  -0.101
 1795TIP3   OH2 5269   4.242   4.214   0.253
 1795TIP3    H1 5270   4.150   4.180   0.256
 1795TIP3    H2 5271   4.292   4.130   0.251
 1796TIP3   OH2 5272   4.010   4.085  -0.103
 1796TIP3    H1 5273   4.054   4.144  -0.168
 1796TIP3    H2 5274   3.994   4.148  -0.030
 1797TIP3   OH2 5275   4.675   4.252   0.141
 1797TIP3    H1 5276   4.748   4.277   0.083
 1797TIP3    H2 5277   4.708   4.280   0.228
 1798TIP3   OH2 5278   5.227   4.390   0.112
 1798TIP3    H1 5279   5.247   4.342   0.030
 1798TIP3    H2 5280   5.217   4.313   0.174
 1799TIP3   OH2 5281   4.140   4.256  -0.311
 1799TIP3    H1 5282   4.182   4.175  -0.341
 1799TIP3    H2 5283   4.217   4.312  -0.289
 1800TIP3   OH2 5284   4.631   4.409  -0.173
 1800TIP3    H1 5285   4.705   4.366  -0.129
 1800TIP3    H2 5286   4.662   4.502  -0.173
 1801TIP3   OH2 5287   4.450   4.498   1.148
 1801TIP3    H1 5288   4.416   4.425   1.202
 1801TIP3    H2 5289   4.545   4.496   1.174
 1802TIP3   OH2 5290   4.701   4.493   1.264
 1802TIP3    H1 5291   4.784   4.464   1.225
 1802TIP3    H2 5292   4.687   4.423   1.332
 1803TIP3   OH2 5293   5.525   4.555   1.052
 1803TIP3    H1 5294   5.544   4.523   1.142
 1803TIP3    H2 5295   5.614   4.549   1.010
 1804TIP3   OH2 5296   5.464   6.105   0.545
 1804TIP3    H1 5297   5.380   6.082   0.502
 1804TIP3    H2 5298   5.453   6.202   0.556
 1805TIP3   OH2 5299   6.249   4.841   0.163
 1805TIP3    H1 5300   6.283   4.923   0.121
 1805TIP3    H2 5301   6.200   4.876   0.242
 1806TIP3   OH2 5302   6.178   5.485   0.325
 1806TIP3    H1 5303   6.184   5.575   0.360
 1806TIP3    H2 5304   6.082   5.470   0.322
 1807TIP3   OH2 5305   5.759   5.633   0.246
 1807TIP3    H1 5306   5.766   5.636   0.149
 1807TIP3    H2 5307   5.804   5.549   0.271
 1808TIP3   OH2 5308   6.009   5.765   0.261
 1808TIP3    H1 5309   6.073   5.759   0.334
 1808TIP3    H2 5310   5.938   5.705   0.290
 1809TIP3   OH2 5311   6.918   4.776   0.231
 1809TIP3    H1 5312   6.994   4.747   0.285
 1809TIP3    H2 5313   6.842   4.754   0.287
 1810TIP3   OH2 5314   6.883   5.422   0.414
 1810TIP3    H1 5315   6.863   5.329   0.441
 1810TIP3    H2 5316   6.970   5.411   0.373
 1811TIP3   OH2 5317   6.095   5.192   0.271
 1811TIP3    H1 5318   6.171   5.250   0.278
 1811TIP3    H2 5319   6.125   5.110   0.311
 1812TIP3   OH2 5320   6.169   5.736   0.479
 1812TIP3    H1 5321   6.244   5.769   0.531
 1812TIP3    H2 5322   6.099   5.735   0.547
 1813TIP3   OH2 5323   5.901   5.443   0.384
 1813TIP3    H1 5324   5.938   5.425   0.473
 1813TIP3    H2 5325   5.846   5.363   0.370
 1814TIP3   OH2 5326   6.624   5.509   0.440
 1814TIP3    H1 5327   6.569   5.488   0.363
 1814TIP3    H2 5328   6.713   5.480   0.410
 1815TIP3   OH2 5329   6.122   4.928   0.392
 1815TIP3    H1 5330   6.025   4.938   0.402
 1815TIP3    H2 5331   6.143   4.866   0.463
 1816TIP3   OH2 5332   6.082   4.543  -0.015
 1816TIP3    H1 5333   6.079   4.491  -0.097
 1816TIP3    H2 5334   6.094   4.474   0.052
 1817TIP3   OH2 5335   5.812   6.296   0.442
 1817TIP3    H1 5336   5.904   6.305   0.474
 1817TIP3    H2 5337   5.798   6.201   0.454
 1818TIP3   OH2 5338   5.950   5.728   0.648
 1818TIP3    H1 5339   5.966   5.632   0.651
 1818TIP3    H2 5340   5.863   5.731   0.602
 1819TIP3   OH2 5341   6.566   5.776   0.463
 1819TIP3    H1 5342   6.524   5.788   0.375
 1819TIP3    H2 5343   6.585   5.679   0.462
 1820TIP3   OH2 5344   6.066   5.467   0.622
 1820TIP3    H1 5345   6.142   5.417   0.588
 1820TIP3    H2 5346   6.097   5.493   0.711
 1821TIP3   OH2 5347   6.394   5.331   0.275
 1821TIP3    H1 5348   6.321   5.392   0.302
 1821TIP3    H2 5349   6.431   5.384   0.202
 1822TIP3   OH2 5350   6.978   5.756   0.462
 1822TIP3    H1 5351   7.015   5.711   0.384
 1822TIP3    H2 5352   6.953   5.679   0.517
 1823TIP3   OH2 5353   6.528   5.149   0.426
 1823TIP3    H1 5354   6.521   5.062   0.381
 1823TIP3    H2 5355   6.483   5.208   0.362
 1824TIP3   OH2 5356   6.513   4.913   0.276
 1824TIP3    H1 5357   6.538   4.953   0.191
 1824TIP3    H2 5358   6.422   4.887   0.255
 1825TIP3   OH2 5359   7.170   5.434   0.489
 1825TIP3    H1 5360   7.188   5.339   0.484
 1825TIP3    H2 5361   7.217   5.467   0.411
 1826TIP3   OH2 5362   6.404   5.253   0.651
 1826TIP3    H1 5363   6.337   5.182   0.660
 1826TIP3    H2 5364   6.443   5.231   0.564
 1827TIP3   OH2 5365   6.653   4.679   0.298
 1827TIP3    H1 5366   6.608   4.767   0.301
 1827TIP3    H2 5367   6.575   4.619   0.290
 1828TIP3   OH2 5368   6.794   5.176   0.500
 1828TIP3    H1 5369   6.781   5.167   0.596
 1828TIP3    H2 5370   6.702   5.164   0.470
 1829TIP3   OH2 5371   7.033   5.152   0.357
 1829TIP3    H1 5372   6.956   5.140   0.415
 1829TIP3    H2 5373   7.104   5.104   0.403
 1830TIP3   OH2 5374   7.282   5.090   0.512
 1830TIP3    H1 5375   7.277   4.992   0.521
 1830TIP3    H2 5376   7.262   5.120   0.604
 1831TIP3   OH2 5377   6.246   5.028   0.696
 1831TIP3    H1 5378   6.253   4.938   0.660
 1831TIP3    H2 5379   6.284   5.015   0.786
 1832TIP3   OH2 5380   6.761   4.698   0.549
 1832TIP3    H1 5381   6.828   4.627   0.548
 1832TIP3    H2 5382   6.717   4.682   0.463
 1833TIP3   OH2 5383   6.826   4.914   0.703
 1833TIP3    H1 5384   6.804   4.841   0.641
 1833TIP3    H2 5385   6.747   4.972   0.696
 1834TIP3   OH2 5386   5.979   5.080   0.666
 1834TIP3    H1 5387   6.077   5.074   0.666
 1834TIP3    H2 5388   5.957   4.994   0.706
 1835TIP3   OH2 5389   5.938   4.809   0.059
 1835TIP3    H1 5390   6.006   4.749   0.092
 1835TIP3    H2 5391   5.992   4.883   0.024
 1836TIP3   OH2 5392   5.756   5.051   0.060
 1836TIP3    H1 5393   5.826   4.983   0.053
 1836TIP3    H2 5394   5.811   5.131   0.067
 1837TIP3   OH2 5395   5.952   4.634   0.387
 1837TIP3    H1 5396   5.903   4.621   0.469
 1837TIP3    H2 5397   5.880   4.664   0.328
 1838TIP3   OH2 5398   5.976   6.062   0.480
 1838TIP3    H1 5399   5.892   6.023   0.452
 1838TIP3    H2 5400   5.992   6.018   0.564
 1839TIP3   OH2 5401   6.246   4.750   0.633
 1839TIP3    H1 5402   6.212   4.680   0.690
 1839TIP3    H2 5403   6.340   4.751   0.660
 1840TIP3   OH2 5404   6.496   4.748   0.751
 1840TIP3    H1 5405   6.583   4.724   0.716
 1840TIP3    H2 5406   6.482   4.678   0.819
 1841TIP3   OH2 5407   7.308   4.808   0.548
 1841TIP3    H1 5408   7.332   4.777   0.638
 1841TIP3    H2 5409   7.393   4.806   0.502
 1842TIP3   OH2 5410  -0.228   5.873   2.231
 1842TIP3    H1 5411  -0.255   5.779   2.233
 1842TIP3    H2 5412  -0.282   5.915   2.300
 1843TIP3   OH2 5413   0.269   5.733   2.112
 1843TIP3    H1 5414   0.327   5.665   2.071
 1843TIP3    H2 5415   0.244   5.786   2.034
 1844TIP3   OH2 5416   0.129   5.879   1.928
 1844TIP3    H1 5417   0.065   5.916   1.993
 1844TIP3    H2 5418   0.084   5.798   1.896
 1845TIP3   OH2 5419   0.045   5.632   1.828
 1845TIP3    H1 5420  -0.002   5.635   1.742
 1845TIP3    H2 5421   0.085   5.543   1.820
 1846TIP3   OH2 5422  -0.238   5.594   2.233
 1846TIP3    H1 5423  -0.218   5.564   2.324
 1846TIP3    H2 5424  -0.149   5.596   2.193
 1847TIP3   OH2 5425   1.796   6.067   0.918
 1847TIP3    H1 5426   1.823   6.147   0.967
 1847TIP3    H2 5427   1.806   6.097   0.826
 1848TIP3   OH2 5428   1.129   6.240   0.962
 1848TIP3    H1 5429   1.174   6.158   0.990
 1848TIP3    H2 5430   1.190   6.270   0.891
 1849TIP3   OH2 5431   1.860   6.276   1.087
 1849TIP3    H1 5432   1.777   6.324   1.066
 1849TIP3    H2 5433   1.871   6.301   1.180
 1850TIP3   OH2 5434   0.535   5.884   1.365
 1850TIP3    H1 5435   0.460   5.860   1.309
 1850TIP3    H2 5436   0.491   5.906   1.450
 1851TIP3   OH2 5437   1.452   5.991   0.715
 1851TIP3    H1 5438   1.411   5.961   0.798
 1851TIP3    H2 5439   1.493   6.075   0.742
 1852TIP3   OH2 5440   1.582   5.966   1.077
 1852TIP3    H1 5441   1.496   5.998   1.048
 1852TIP3    H2 5442   1.642   5.998   1.007
 1853TIP3   OH2 5443   0.898   5.625   1.094
 1853TIP3    H1 5444   0.862   5.567   1.023
 1853TIP3    H2 5445   0.813   5.657   1.130
 1854TIP3   OH2 5446   1.516   6.988   1.067
 1854TIP3    H1 5447   1.513   6.918   0.998
 1854TIP3    H2 5448   1.475   7.064   1.020
 1855TIP3   OH2 5449   1.715   6.616   0.904
 1855TIP3    H1 5450   1.637   6.675   0.913
 1855TIP3    H2 5451   1.744   6.643   0.814
 1856TIP3   OH2 5452   1.399   6.497   1.194
 1856TIP3    H1 5453   1.393   6.559   1.268
 1856TIP3    H2 5454   1.305   6.496   1.165
 1857TIP3   OH2 5455   1.768   7.324   1.123
 1857TIP3    H1 5456   1.759   7.227   1.129
 1857TIP3    H2 5457   1.679   7.352   1.151
 1858TIP3   OH2 5458   1.651   6.460   1.371
 1858TIP3    H1 5459   1.556   6.478   1.387
 1858TIP3    H2 5460   1.655   6.365   1.391
 1859TIP3   OH2 5461   0.636   5.685   1.189
 1859TIP3    H1 5462   0.551   5.665   1.148
 1859TIP3    H2 5463   0.619   5.773   1.226
 1860TIP3   OH2 5464   1.176   5.811   1.385
 1860TIP3    H1 5465   1.244   5.779   1.448
 1860TIP3    H2 5466   1.093   5.784   1.428
 1861TIP3   OH2 5467   1.404   6.230   1.322
 1861TIP3    H1 5468   1.388   6.266   1.413
 1861TIP3    H2 5469   1.392   6.311   1.271
 1862TIP3   OH2 5470   1.136   6.457   1.129
 1862TIP3    H1 5471   1.126   6.381   1.068
 1862TIP3    H2 5472   1.097   6.419   1.211
 1863TIP3   OH2 5473   1.270   5.991   0.983
 1863TIP3    H1 5474   1.246   5.999   1.078
 1863TIP3    H2 5475   1.205   5.922   0.955
 1864TIP3   OH2 5476   0.880   6.052   1.182
 1864TIP3    H1 5477   0.827   6.133   1.199
 1864TIP3    H2 5478   0.970   6.086   1.179
 1865TIP3   OH2 5479   1.488   6.778   0.885
 1865TIP3    H1 5480   1.498   6.805   0.792
 1865TIP3    H2 5481   1.425   6.705   0.879
 1866TIP3   OH2 5482   0.887   6.579   1.567
 1866TIP3    H1 5483   0.844   6.498   1.537
 1866TIP3    H2 5484   0.980   6.553   1.562
 1867TIP3   OH2 5485   1.770   7.031   1.145
 1867TIP3    H1 5486   1.672   7.029   1.139
 1867TIP3    H2 5487   1.792   7.002   1.054
 1868TIP3   OH2 5488   0.407   5.944   1.598
 1868TIP3    H1 5489   0.313   5.919   1.607
 1868TIP3    H2 5490   0.445   5.886   1.667
 1869TIP3   OH2 5491   1.198   6.051   1.245
 1869TIP3    H1 5492   1.278   6.092   1.284
 1869TIP3    H2 5493   1.190   5.968   1.298
 1870TIP3   OH2 5494   1.056   6.304   1.344
 1870TIP3    H1 5495   1.082   6.320   1.437
 1870TIP3    H2 5496   1.101   6.220   1.326
 1871TIP3   OH2 5497   1.675   6.174   1.303
 1871TIP3    H1 5498   1.578   6.177   1.320
 1871TIP3    H2 5499   1.676   6.148   1.210
 1872TIP3   OH2 5500   1.310   6.306   0.761
 1872TIP3    H1 5501   1.334   6.346   0.674
 1872TIP3    H2 5502   1.401   6.288   0.794
 1873TIP3   OH2 5503   1.204   7.261   1.412
 1873TIP3    H1 5504   1.183   7.184   1.469
 1873TIP3    H2 5505   1.282   7.299   1.453
 1874TIP3   OH2 5506   0.805   6.857   1.597
 1874TIP3    H1 5507   0.768   6.863   1.507
 1874TIP3    H2 5508   0.851   6.771   1.593
 1875TIP3   OH2 5509   1.300   6.879   1.197
 1875TIP3    H1 5510   1.384   6.924   1.171
 1875TIP3    H2 5511   1.258   6.944   1.255
 1876TIP3   OH2 5512   0.358   6.597   1.819
 1876TIP3    H1 5513   0.344   6.505   1.790
 1876TIP3    H2 5514   0.386   6.589   1.912
 1877TIP3   OH2 5515   1.178   6.785   1.600
 1877TIP3    H1 5516   1.252   6.754   1.547
 1877TIP3    H2 5517   1.176   6.718   1.670
 1878TIP3   OH2 5518   0.751   6.174   1.578
 1878TIP3    H1 5519   0.769   6.082   1.552
 1878TIP3    H2 5520   0.760   6.216   1.491
 1879TIP3   OH2 5521   0.791   5.953   1.420
 1879TIP3    H1 5522   0.826   5.983   1.333
 1879TIP3    H2 5523   0.697   5.935   1.396
 1880TIP3   OH2 5524   1.435   6.728   1.384
 1880TIP3    H1 5525   1.377   6.771   1.318
 1880TIP3    H2 5526   1.523   6.745   1.344
 1881TIP3   OH2 5527   0.665   6.293   1.815
 1881TIP3    H1 5528   0.589   6.235   1.836
 1881TIP3    H2 5529   0.691   6.257   1.727
 1882TIP3   OH2 5530   0.922   5.721   1.465
 1882TIP3    H1 5531   0.872   5.804   1.449
 1882TIP3    H2 5532   0.852   5.654   1.448
 1883TIP3   OH2 5533   0.997   6.298   1.659
 1883TIP3    H1 5534   1.062   6.272   1.727
 1883TIP3    H2 5535   0.929   6.229   1.668
 1884TIP3   OH2 5536   1.580   6.116   1.710
 1884TIP3    H1 5537   1.531   6.032   1.713
 1884TIP3    H2 5538   1.526   6.174   1.767
 1885TIP3   OH2 5539   0.500   6.077   1.881
 1885TIP3    H1 5540   0.516   5.993   1.837
 1885TIP3    H2 5541   0.540   6.061   1.969
 1886TIP3   OH2 5542   1.006   5.738   1.723
 1886TIP3    H1 5543   1.075   5.669   1.717
 1886TIP3    H2 5544   0.969   5.732   1.633
 1887TIP3   OH2 5545   1.071   5.952   1.883
 1887TIP3    H1 5546   1.049   5.883   1.817
 1887TIP3    H2 5547   0.993   6.012   1.875
 1888TIP3   OH2 5548   1.628   7.127   1.448
 1888TIP3    H1 5549   1.557   7.133   1.515
 1888TIP3    H2 5550   1.670   7.215   1.455
 1889TIP3   OH2 5551   1.679   6.791   1.275
 1889TIP3    H1 5552   1.748   6.723   1.267
 1889TIP3    H2 5553   1.710   6.861   1.215
 1890TIP3   OH2 5554   1.866   6.597   1.286
 1890TIP3    H1 5555   1.788   6.547   1.320
 1890TIP3    H2 5556   1.936   6.532   1.307
 1891TIP3   OH2 5557   1.566   6.236   0.815
 1891TIP3    H1 5558   1.648   6.269   0.770
 1891TIP3    H2 5559   1.579   6.280   0.902
 1892TIP3   OH2 5560   1.611   6.393   1.035
 1892TIP3    H1 5561   1.543   6.429   1.096
 1892TIP3    H2 5562   1.645   6.476   0.994
 1893TIP3   OH2 5563   0.241   6.100   1.803
 1893TIP3    H1 5564   0.335   6.107   1.828
 1893TIP3    H2 5565   0.207   6.043   1.875
 1894TIP3   OH2 5566   2.074   5.997   1.598
 1894TIP3    H1 5567   2.125   5.927   1.553
 1894TIP3    H2 5568   2.036   6.046   1.522
 1895TIP3   OH2 5569   1.507   5.801   0.340
 1895TIP3    H1 5570   1.543   5.808   0.431
 1895TIP3    H2 5571   1.420   5.766   0.355
 1896TIP3   OH2 5572   1.936   6.129   1.406
 1896TIP3    H1 5573   1.854   6.171   1.440
 1896TIP3    H2 5574   1.896   6.063   1.346
 1897TIP3   OH2 5575   0.218   5.725   1.572
 1897TIP3    H1 5576   0.192   5.658   1.637
 1897TIP3    H2 5577   0.151   5.709   1.504
 1898TIP3   OH2 5578   1.836   5.892   1.280
 1898TIP3    H1 5579   1.744   5.892   1.249
 1898TIP3    H2 5580   1.862   5.798   1.269
 1899TIP3   OH2 5581   1.075   5.810   0.923
 1899TIP3    H1 5582   0.999   5.778   0.975
 1899TIP3    H2 5583   1.076   5.746   0.851
 1900TIP3   OH2 5584   1.570   5.687   0.805
 1900TIP3    H1 5585   1.603   5.752   0.739
 1900TIP3    H2 5586   1.474   5.706   0.804
 1901TIP3   OH2 5587   1.667   5.789   0.564
 1901TIP3    H1 5588   1.755   5.770   0.531
 1901TIP3    H2 5589   1.672   5.887   0.571
 1902TIP3   OH2 5590   1.304   5.681   0.767
 1902TIP3    H1 5591   1.270   5.637   0.689
 1902TIP3    H2 5592   1.272   5.621   0.838
 1903TIP3   OH2 5593   0.496   5.783   1.806
 1903TIP3    H1 5594   0.462   5.718   1.870
 1903TIP3    H2 5595   0.589   5.790   1.837
 1904TIP3   OH2 5596   0.741   5.793   1.925
 1904TIP3    H1 5597   0.828   5.773   1.886
 1904TIP3    H2 5598   0.733   5.722   1.992
 1905TIP3   OH2 5599   1.563   5.833   1.713
 1905TIP3    H1 5600   1.585   5.816   1.807
 1905TIP3    H2 5601   1.651   5.848   1.674
 1906TIP3   OH2 5602   1.513   7.406   1.205
 1906TIP3    H1 5603   1.442   7.353   1.166
 1906TIP3    H2 5604   1.475   7.495   1.203
 1907TIP3   OH2 5605   2.764   6.785   0.012
 1907TIP3    H1 5606   2.739   6.879   0.001
 1907TIP3    H2 5607   2.689   6.741  -0.032
 1908TIP3   OH2 5608   2.775   6.785   0.357
 1908TIP3    H1 5609   2.804   6.744   0.441
 1908TIP3    H2 5610   2.733   6.710   0.311
 1909TIP3   OH2 5611   2.092   6.664   0.715
 1909TIP3    H1 5612   2.118   6.599   0.783
 1909TIP3    H2 5613   2.164   6.729   0.722
 1910TIP3   OH2 5614   3.042   7.053   0.034
 1910TIP3    H1 5615   3.007   7.000   0.108
 1910TIP3    H2 5616   3.050   7.140   0.076
 1911TIP3   OH2 5617   2.050   7.062   0.488
 1911TIP3    H1 5618   2.079   6.968   0.497
 1911TIP3    H2 5619   2.131   7.099   0.450
 1912TIP3   OH2 5620   1.846   6.607   0.416
 1912TIP3    H1 5621   1.881   6.521   0.447
 1912TIP3    H2 5622   1.854   6.599   0.320
 1913TIP3   OH2 5623   2.698   7.541   0.045
 1913TIP3    H1 5624   2.719   7.448   0.031
 1913TIP3    H2 5625   2.662   7.538   0.134
 1914TIP3   OH2 5626   2.577   7.006   0.406
 1914TIP3    H1 5627   2.611   6.930   0.356
 1914TIP3    H2 5628   2.663   7.048   0.429
 1915TIP3   OH2 5629   3.589   6.324   0.405
 1915TIP3    H1 5630   3.616   6.408   0.448
 1915TIP3    H2 5631   3.604   6.347   0.312
 1916TIP3   OH2 5632   2.971   6.498   0.444
 1916TIP3    H1 5633   3.020   6.415   0.458
 1916TIP3    H2 5634   2.955   6.495   0.348
 1917TIP3   OH2 5635   2.324   6.166   0.402
 1917TIP3    H1 5636   2.305   6.240   0.341
 1917TIP3    H2 5637   2.277   6.094   0.356
 1918TIP3   OH2 5638   3.016   6.255   0.028
 1918TIP3    H1 5639   3.092   6.237   0.088
 1918TIP3    H2 5640   3.065   6.292  -0.049
 1919TIP3   OH2 5641   1.957   6.365   0.501
 1919TIP3    H1 5642   2.038   6.351   0.554
 1919TIP3    H2 5643   1.977   6.310   0.422
 1920TIP3   OH2 5644   2.406   6.562   0.302
 1920TIP3    H1 5645   2.499   6.535   0.315
 1920TIP3    H2 5646   2.365   6.481   0.266
 1921TIP3   OH2 5647   3.661   6.535   0.571
 1921TIP3    H1 5648   3.577   6.581   0.547
 1921TIP3    H2 5649   3.666   6.557   0.665
 1922TIP3   OH2 5650   2.319   6.149   0.836
 1922TIP3    H1 5651   2.260   6.188   0.768
 1922TIP3    H2 5652   2.266   6.166   0.916
 1923TIP3   OH2 5653   2.679   7.023  -0.100
 1923TIP3    H1 5654   2.676   6.968  -0.179
 1923TIP3    H2 5655   2.608   7.088  -0.114
 1924TIP3   OH2 5656   2.428   6.926   0.632
 1924TIP3    H1 5657   2.363   6.990   0.667
 1924TIP3    H2 5658   2.463   6.974   0.555
 1925TIP3   OH2 5659   3.232   6.256   0.197
 1925TIP3    H1 5660   3.210   6.220   0.284
 1925TIP3    H2 5661   3.275   6.341   0.220
 1926TIP3   OH2 5662   2.189   6.265   0.620
 1926TIP3    H1 5663   2.251   6.338   0.644
 1926TIP3    H2 5664   2.240   6.225   0.546
 1927TIP3   OH2 5665   2.257   7.116   0.735
 1927TIP3    H1 5666   2.227   7.193   0.683
 1927TIP3    H2 5667   2.176   7.102   0.789
 1928TIP3   OH2 5668   3.092   7.328   0.201
 1928TIP3    H1 5669   3.005   7.309   0.243
 1928TIP3    H2 5670   3.076   7.419   0.170
 1929TIP3   OH2 5671   3.378   6.227   0.568
 1929TIP3    H1 5672   3.289   6.251   0.536
 1929TIP3    H2 5673   3.436   6.258   0.495
 1930TIP3   OH2 5674   2.675   5.867   0.549
 1930TIP3    H1 5675   2.659   5.773   0.567
 1930TIP3    H2 5676   2.598   5.907   0.596
 1931TIP3   OH2 5677   3.316   7.235   0.549
 1931TIP3    H1 5678   3.300   7.158   0.490
 1931TIP3    H2 5679   3.295   7.310   0.488
 1932TIP3   OH2 5680   2.611   6.633  -0.184
 1932TIP3    H1 5681   2.516   6.652  -0.180
 1932TIP3    H2 5682   2.623   6.620  -0.280
 1933TIP3   OH2 5683   3.509   6.877   0.393
 1933TIP3    H1 5684   3.423   6.926   0.399
 1933TIP3    H2 5685   3.535   6.899   0.302
 1934TIP3   OH2 5686   2.914   6.641  -0.164
 1934TIP3    H1 5687   2.888   6.694  -0.086
 1934TIP3    H2 5688   3.005   6.670  -0.185
 1935TIP3   OH2 5689   3.188   6.753   0.688
 1935TIP3    H1 5690   3.182   6.838   0.734
 1935TIP3    H2 5691   3.101   6.752   0.643
 1936TIP3   OH2 5692   2.189   6.703   0.208
 1936TIP3    H1 5693   2.164   6.658   0.125
 1936TIP3    H2 5694   2.274   6.657   0.227
 1937TIP3   OH2 5695   2.312   7.086   0.379
 1937TIP3    H1 5696   2.298   7.094   0.284
 1937TIP3    H2 5697   2.407   7.063   0.383
 1938TIP3   OH2 5698   2.345   6.675   0.551
 1938TIP3    H1 5699   2.365   6.658   0.457
 1938TIP3    H2 5700   2.372   6.768   0.563
 1939TIP3   OH2 5701   2.851   7.319   0.321
 1939TIP3    H1 5702   2.836   7.399   0.374
 1939TIP3    H2 5703   2.835   7.246   0.384
 1940TIP3   OH2 5704   2.460   7.240   0.873
 1940TIP3    H1 5705   2.398   7.302   0.917
 1940TIP3    H2 5706   2.395   7.186   0.822
 1941TIP3   OH2 5707   2.213   6.793   0.972
 1941TIP3    H1 5708   2.218   6.881   1.015
 1941TIP3    H2 5709   2.118   6.773   0.987
 1942TIP3   OH2 5710   2.254   7.409   0.960
 1942TIP3    H1 5711   2.219   7.404   0.869
 1942TIP3    H2 5712   2.175   7.384   1.014
 1943TIP3   OH2 5713   1.837   6.929   0.900
 1943TIP3    H1 5714   1.811   6.895   0.812
 1943TIP3    H2 5715   1.878   6.848   0.938
 1944TIP3   OH2 5716   3.553   7.584   0.597
 1944TIP3    H1 5717   3.550   7.487   0.607
 1944TIP3    H2 5718   3.468   7.609   0.640
 1945TIP3   OH2 5719   2.662   7.366   0.735
 1945TIP3    H1 5720   2.658   7.459   0.766
 1945TIP3    H2 5721   2.587   7.327   0.785
 1946TIP3   OH2 5722   3.440   6.713   0.868
 1946TIP3    H1 5723   3.358   6.728   0.818
 1946TIP3    H2 5724   3.454   6.617   0.855
 1947TIP3   OH2 5725   2.037   7.120   0.896
 1947TIP3    H1 5726   2.086   7.101   0.979
 1947TIP3    H2 5727   1.962   7.058   0.902
 1948TIP3   OH2 5728   2.438   5.946   0.678
 1948TIP3    H1 5729   2.348   5.915   0.654
 1948TIP3    H2 5730   2.414   6.028   0.725
 1949TIP3   OH2 5731   2.970   6.059   0.873
 1949TIP3    H1 5732   3.037   6.031   0.938
 1949TIP3    H2 5733   2.885   6.040   0.918
 1950TIP3   OH2 5734   3.214   6.491   0.795
 1950TIP3    H1 5735   3.160   6.487   0.877
 1950TIP3    H2 5736   3.185   6.575   0.755
 1951TIP3   OH2 5737   2.615   5.985  -0.359
 1951TIP3    H1 5738   2.582   6.009  -0.272
 1951TIP3    H2 5739   2.554   5.915  -0.384
 1952TIP3   OH2 5740   2.370   6.455   0.701
 1952TIP3    H1 5741   2.318   6.479   0.780
 1952TIP3    H2 5742   2.360   6.536   0.646
 1953TIP3   OH2 5743   2.253   6.345   0.215
 1953TIP3    H1 5744   2.157   6.328   0.224
 1953TIP3    H2 5745   2.269   6.311   0.124
 1954TIP3   OH2 5746   2.741   6.426  -0.062
 1954TIP3    H1 5747   2.689   6.502  -0.095
 1954TIP3    H2 5748   2.817   6.433  -0.122
 1955TIP3   OH2 5749   2.917   6.710   1.025
 1955TIP3    H1 5750   2.893   6.637   1.087
 1955TIP3    H2 5751   3.011   6.722   1.047
 1956TIP3   OH2 5752   2.903   6.461   0.175
 1956TIP3    H1 5753   2.838   6.487   0.107
 1956TIP3    H2 5754   2.936   6.379   0.133
 1957TIP3   OH2 5755   2.192   6.487   0.910
 1957TIP3    H1 5756   2.208   6.551   0.980
 1957TIP3    H2 5757   2.177   6.404   0.960
 1958TIP3   OH2 5758   2.258   5.995  -0.372
 1958TIP3    H1 5759   2.255   5.947  -0.287
 1958TIP3    H2 5760   2.163   6.001  -0.390
 1959TIP3   OH2 5761   1.776   6.028   0.475
 1959TIP3    H1 5762   1.848   6.052   0.537
 1959TIP3    H2 5763   1.823   5.982   0.404
 1960TIP3   OH2 5764   2.918   6.706   0.604
 1960TIP3    H1 5765   2.943   6.632   0.544
 1960TIP3    H2 5766   2.882   6.655   0.679
 1961TIP3   OH2 5767   2.581   6.162   0.273
 1961TIP3    H1 5768   2.499   6.165   0.326
 1961TIP3    H2 5769   2.649   6.170   0.341
 1962TIP3   OH2 5770   2.010   6.212   0.276
 1962TIP3    H1 5771   1.924   6.187   0.241
 1962TIP3    H2 5772   2.063   6.131   0.260
 1963TIP3   OH2 5773   2.289   6.209  -0.020
 1963TIP3    H1 5774   2.386   6.224  -0.026
 1963TIP3    H2 5775   2.257   6.258  -0.100
 1964TIP3   OH2 5776   3.076   6.240   0.474
 1964TIP3    H1 5777   3.040   6.255   0.565
 1964TIP3    H2 5778   3.007   6.182   0.437
 1965TIP3   OH2 5779   3.242   7.932   0.694
 1965TIP3    H1 5780   3.237   7.958   0.600
 1965TIP3    H2 5781   3.322   7.980   0.723
 1966TIP3   OH2 5782   2.199   7.042   1.114
 1966TIP3    H1 5783   2.278   7.073   1.162
 1966TIP3    H2 5784   2.134   7.039   1.186
 1967TIP3   OH2 5785   2.666   6.490   0.368
 1967TIP3    H1 5786   2.744   6.459   0.320
 1967TIP3    H2 5787   2.678   6.451   0.456
 1968TIP3   OH2 5788   2.179   5.993   0.242
 1968TIP3    H1 5789   2.167   5.909   0.288
 1968TIP3    H2 5790   2.218   5.966   0.157
 1969TIP3   OH2 5791   2.639   6.391   0.662
 1969TIP3    H1 5792   2.549   6.427   0.672
 1969TIP3    H2 5793   2.695   6.455   0.709
 1970TIP3   OH2 5794   3.272   7.017   0.387
 1970TIP3    H1 5795   3.297   7.064   0.304
 1970TIP3    H2 5796   3.184   6.979   0.364
 1971TIP3   OH2 5797   2.783   7.106   0.749
 1971TIP3    H1 5798   2.792   7.079   0.841
 1971TIP3    H2 5799   2.737   7.192   0.757
 1972TIP3   OH2 5800   2.100   6.799   0.450
 1972TIP3    H1 5801   2.127   6.767   0.361
 1972TIP3    H2 5802   2.122   6.723   0.506
 1973TIP3   OH2 5803   1.950   6.723   1.042
 1973TIP3    H1 5804   1.961   6.707   1.138
 1973TIP3    H2 5805   1.880   6.659   1.021
 1974TIP3   OH2 5806   2.673   6.841   1.063
 1974TIP3    H1 5807   2.611   6.783   1.016
 1974TIP3    H2 5808   2.759   6.805   1.032
 1975TIP3   OH2 5809   2.937   7.366   0.645
 1975TIP3    H1 5810   2.842   7.358   0.659
 1975TIP3    H2 5811   2.963   7.416   0.725
 1976TIP3   OH2 5812   3.565   7.292   0.636
 1976TIP3    H1 5813   3.467   7.287   0.629
 1976TIP3    H2 5814   3.590   7.261   0.546
 1977TIP3   OH2 5815   3.030   6.898   0.313
 1977TIP3    H1 5816   2.936   6.871   0.321
 1977TIP3    H2 5817   3.067   6.813   0.281
 1978TIP3   OH2 5818   2.340   6.887   0.054
 1978TIP3    H1 5819   2.292   6.964   0.022
 1978TIP3    H2 5820   2.275   6.841   0.111
 1979TIP3   OH2 5821   2.452   7.455   0.571
 1979TIP3    H1 5822   2.482   7.510   0.496
 1979TIP3    H2 5823   2.536   7.420   0.605
 1980TIP3   OH2 5824   2.831   7.090   0.481
 1980TIP3    H1 5825   2.821   7.087   0.579
 1980TIP3    H2 5826   2.906   7.030   0.467
 1981TIP3   OH2 5827   3.077   7.619   0.534
 1981TIP3    H1 5828   2.999   7.561   0.528
 1981TIP3    H2 5829   3.058   7.685   0.465
 1982TIP3   OH2 5830   2.158   6.231   1.051
 1982TIP3    H1 5831   2.061   6.237   1.066
 1982TIP3    H2 5832   2.185   6.171   1.123
 1983TIP3   OH2 5833   1.858   7.305   0.693
 1983TIP3    H1 5834   1.917   7.229   0.695
 1983TIP3    H2 5835   1.896   7.358   0.764
 1984TIP3   OH2 5836   2.999   6.296   0.733
 1984TIP3    H1 5837   3.079   6.331   0.775
 1984TIP3    H2 5838   2.982   6.215   0.786
 1985TIP3   OH2 5839   2.853   6.068  -0.103
 1985TIP3    H1 5840   2.849   6.094  -0.196
 1985TIP3    H2 5841   2.912   6.136  -0.065
 1986TIP3   OH2 5842   2.562   6.224   0.002
 1986TIP3    H1 5843   2.628   6.292  -0.023
 1986TIP3    H2 5844   2.574   6.219   0.099
 1987TIP3   OH2 5845   2.834   6.545   0.806
 1987TIP3    H1 5846   2.855   6.598   0.886
 1987TIP3    H2 5847   2.888   6.466   0.818
 1988TIP3   OH2 5848   2.712   5.952   0.100
 1988TIP3    H1 5849   2.700   6.030   0.157
 1988TIP3    H2 5850   2.768   5.992   0.029
 1989TIP3   OH2 5851   2.231   5.948  -0.073
 1989TIP3    H1 5852   2.232   6.044  -0.057
 1989TIP3    H2 5853   2.328   5.933  -0.079
 1990TIP3   OH2 5854   3.478   6.444   0.786
 1990TIP3    H1 5855   3.381   6.446   0.798
 1990TIP3    H2 5856   3.483   6.401   0.699
 1991TIP3   OH2 5857   3.111   6.654   0.221
 1991TIP3    H1 5858   3.043   6.587   0.201
 1991TIP3    H2 5859   3.192   6.599   0.227
 1992TIP3   OH2 5860   3.105   7.603   0.148
 1992TIP3    H1 5861   3.063   7.582   0.061
 1992TIP3    H2 5862   3.195   7.632   0.120
 1993TIP3   OH2 5863   2.174   5.866   0.657
 1993TIP3    H1 5864   2.141   5.830   0.572
 1993TIP3    H2 5865   2.165   5.789   0.717
 1994TIP3   OH2 5866   1.869   7.606   1.111
 1994TIP3    H1 5867   1.952   7.597   1.161
 1994TIP3    H2 5868   1.837   7.514   1.107
 1995TIP3   OH2 5869   2.351   7.589   1.149
 1995TIP3    H1 5870   2.444   7.565   1.153
 1995TIP3    H2 5871   2.321   7.530   1.077
 1996TIP3   OH2 5872   2.987   7.497   0.883
 1996TIP3    H1 5873   2.979   7.426   0.951
 1996TIP3    H2 5874   3.064   7.547   0.914
 1997TIP3   OH2 5875   1.998   7.032   1.305
 1997TIP3    H1 5876   2.015   6.936   1.309
 1997TIP3    H2 5877   1.910   7.034   1.260
 1998TIP3   OH2 5878   2.605   7.117   1.078
 1998TIP3    H1 5879   2.561   7.134   0.992
 1998TIP3    H2 5880   2.634   7.023   1.069
 1999TIP3   OH2 5881   3.100   7.124   0.689
 1999TIP3    H1 5882   3.171   7.172   0.642
 1999TIP3    H2 5883   3.024   7.184   0.674
 2000TIP3   OH2 5884   2.120   6.773   1.287
 2000TIP3    H1 5885   2.188   6.708   1.267
 2000TIP3    H2 5886   2.146   6.802   1.377
 2001TIP3   OH2 5887   2.455   6.654   0.952
 2001TIP3    H1 5888   2.374   6.708   0.951
 2001TIP3    H2 5889   2.502   6.687   0.872
 2002TIP3   OH2 5890   2.971   7.053   1.085
 2002TIP3    H1 5891   3.045   7.023   1.031
 2002TIP3    H2 5892   2.964   6.984   1.153
 2003TIP3   OH2 5893   2.578   6.439   1.072
 2003TIP3    H1 5894   2.574   6.359   1.016
 2003TIP3    H2 5895   2.533   6.506   1.016
 2004TIP3   OH2 5896   2.578   6.223   0.883
 2004TIP3    H1 5897   2.605   6.267   0.799
 2004TIP3    H2 5898   2.484   6.202   0.864
 2005TIP3   OH2 5899   2.607   6.765   0.758
 2005TIP3    H1 5900   2.686   6.771   0.703
 2005TIP3    H2 5901   2.546   6.827   0.713
 2006TIP3   OH2 5902   3.187   6.727   1.137
 2006TIP3    H1 5903   3.235   6.643   1.141
 2006TIP3    H2 5904   3.253   6.786   1.098
 2007TIP3   OH2 5905   3.228   6.980   0.876
 2007TIP3    H1 5906   3.170   7.033   0.816
 2007TIP3    H2 5907   3.315   7.000   0.835
 2008TIP3   OH2 5908   2.458   6.547   1.308
 2008TIP3    H1 5909   2.387   6.480   1.321
 2008TIP3    H2 5910   2.488   6.524   1.217
 2009TIP3   OH2 5911   2.710   5.988   0.950
 2009TIP3    H1 5912   2.661   6.069   0.927
 2009TIP3    H2 5913   2.640   5.920   0.938
 2010TIP3   OH2 5914   2.836   6.491   1.165
 2010TIP3    H1 5915   2.818   6.478   1.260
 2010TIP3    H2 5916   2.747   6.468   1.130
 2011TIP3   OH2 5917   3.076   6.443   1.022
 2011TIP3    H1 5918   2.998   6.444   1.081
 2011TIP3    H2 5919   3.147   6.410   1.080
 2012TIP3   OH2 5920   3.313   6.385   1.172
 2012TIP3    H1 5921   3.320   6.288   1.189
 2012TIP3    H2 5922   3.303   6.421   1.263
 2013TIP3   OH2 5923   2.294   6.329   1.358
 2013TIP3    H1 5924   2.297   6.237   1.324
 2013TIP3    H2 5925   2.328   6.315   1.449
 2014TIP3   OH2 5926   2.806   5.998   1.207
 2014TIP3    H1 5927   2.871   5.926   1.200
 2014TIP3    H2 5928   2.764   5.993   1.118
 2015TIP3   OH2 5929   2.871   6.213   1.365
 2015TIP3    H1 5930   2.849   6.142   1.301
 2015TIP3    H2 5931   2.793   6.272   1.359
 2016TIP3   OH2 5932   3.356   7.698   0.089
 2016TIP3    H1 5933   3.382   7.711   0.182
 2016TIP3    H2 5934   3.439   7.720   0.043
 2017TIP3   OH2 5935   3.376   7.706   0.366
 2017TIP3    H1 5936   3.333   7.618   0.368
 2017TIP3    H2 5937   3.456   7.686   0.418
 2018TIP3   OH2 5938   3.426   7.383   0.939
 2018TIP3    H1 5939   3.352   7.392   1.002
 2018TIP3    H2 5940   3.466   7.472   0.942
 2019TIP3   OH2 5941   3.424   7.145   0.200
 2019TIP3    H1 5942   3.472   7.082   0.143
 2019TIP3    H2 5943   3.439   7.230   0.153
 2020TIP3   OH2 5944   3.254   7.455   0.392
 2020TIP3    H1 5945   3.183   7.500   0.442
 2020TIP3    H2 5946   3.205   7.410   0.321
 2021TIP3   OH2 5947   3.250   6.560  -0.012
 2021TIP3    H1 5948   3.205   6.489  -0.062
 2021TIP3    H2 5949   3.180   6.623   0.005
 2022TIP3   OH2 5950   1.831   6.733   0.679
 2022TIP3    H1 5951   1.806   6.695   0.593
 2022TIP3    H2 5952   1.928   6.713   0.680
 2023TIP3   OH2 5953   3.471   7.045   0.766
 2023TIP3    H1 5954   3.544   6.980   0.754
 2023TIP3    H2 5955   3.493   7.114   0.701
 2024TIP3   OH2 5956   3.657   6.849   0.778
 2024TIP3    H1 5957   3.580   6.801   0.817
 2024TIP3    H2 5958   3.728   6.784   0.796
 2025TIP3   OH2 5959   3.181   6.340  -0.169
 2025TIP3    H1 5960   3.220   6.250  -0.169
 2025TIP3    H2 5961   3.223   6.378  -0.248
 2026TIP3   OH2 5962   3.342   6.500   0.300
 2026TIP3    H1 5963   3.423   6.531   0.255
 2026TIP3    H2 5964   3.354   6.544   0.386
 2027TIP3   OH2 5965   3.410   6.655   0.529
 2027TIP3    H1 5966   3.331   6.687   0.576
 2027TIP3    H2 5967   3.440   6.737   0.483
 2028TIP3   OH2 5968   2.028   6.382   1.329
 2028TIP3    H1 5969   2.125   6.372   1.332
 2028TIP3    H2 5970   2.000   6.297   1.369
 2029TIP3   OH2 5971   3.867   6.250   1.085
 2029TIP3    H1 5972   3.922   6.182   1.041
 2029TIP3    H2 5973   3.832   6.301   1.009
 2030TIP3   OH2 5974   3.285   6.090  -0.156
 2030TIP3    H1 5975   3.336   6.076  -0.074
 2030TIP3    H2 5976   3.225   6.013  -0.151
 2031TIP3   OH2 5977   1.986   6.069   0.646
 2031TIP3    H1 5978   2.051   5.999   0.667
 2031TIP3    H2 5979   2.043   6.147   0.649
 2032TIP3   OH2 5980   1.803   6.345   0.734
 2032TIP3    H1 5981   1.849   6.351   0.648
 2032TIP3    H2 5982   1.807   6.436   0.764
 2033TIP3   OH2 5983   3.730   6.384   0.892
 2033TIP3    H1 5984   3.644   6.426   0.910
 2033TIP3    H2 5985   3.701   6.312   0.832
 2034TIP3   OH2 5986   1.769   5.849   0.240
 2034TIP3    H1 5987   1.674   5.840   0.263
 2034TIP3    H2 5988   1.765   5.887   0.152
 2035TIP3   OH2 5989   1.997   5.928   1.049
 2035TIP3    H1 5990   1.946   5.924   1.132
 2035TIP3    H2 5991   1.930   5.967   0.988
 2036TIP3   OH2 5992   2.039   7.358   1.129
 2036TIP3    H1 5993   1.946   7.334   1.109
 2036TIP3    H2 5994   2.045   7.334   1.222
 2037TIP3   OH2 5995   2.206   7.393   0.681
 2037TIP3    H1 5996   2.158   7.455   0.623
 2037TIP3    H2 5997   2.298   7.412   0.653
 2038TIP3   OH2 5998   2.655   7.634   0.812
 2038TIP3    H1 5999   2.697   7.635   0.901
 2038TIP3    H2 6000   2.722   7.683   0.760
 2039TIP3   OH2 6001   2.837   7.783   0.673
 2039TIP3    H1 6002   2.908   7.733   0.629
 2039TIP3    H2 6003   2.889   7.842   0.732
 2040TIP3   OH2 6004   3.630   6.148   0.769
 2040TIP3    H1 6005   3.539   6.143   0.733
 2040TIP3    H2 6006   3.660   6.055   0.757
 2041TIP3   OH2 6007   2.566   7.654   0.353
 2041TIP3    H1 6008   2.481   7.647   0.307
 2041TIP3    H2 6009   2.565   7.749   0.381
 2042TIP3   OH2 6010   2.825   7.590   0.405
 2042TIP3    H1 6011   2.730   7.608   0.391
 2042TIP3    H2 6012   2.865   7.669   0.366
 2043TIP3   OH2 6013   3.020   7.789   0.329
 2043TIP3    H1 6014   3.020   7.876   0.284
 2043TIP3    H2 6015   3.050   7.729   0.257
 2044TIP3   OH2 6016   2.331   7.481   0.329
 2044TIP3    H1 6017   2.341   7.412   0.261
 2044TIP3    H2 6018   2.327   7.425   0.409
 2045TIP3   OH2 6019   2.840   6.065   0.393
 2045TIP3    H1 6020   2.793   5.994   0.441
 2045TIP3    H2 6021   2.908   6.016   0.344
 2046TIP3   OH2 6022   3.353   5.943   0.300
 2046TIP3    H1 6023   3.388   5.994   0.224
 2046TIP3    H2 6024   3.257   5.962   0.294
 2047TIP3   OH2 6025   3.445   6.036   0.063
 2047TIP3    H1 6026   3.518   5.986   0.020
 2047TIP3    H2 6027   3.481   6.127   0.056
 2048TIP3   OH2 6028   2.086   5.774   0.406
 2048TIP3    H1 6029   2.010   5.755   0.349
 2048TIP3    H2 6030   2.133   5.688   0.409
 2049TIP3   OH2 6031   1.900   5.625   0.086
 2049TIP3    H1 6032   1.909   5.683   0.008
 2049TIP3    H2 6033   1.820   5.666   0.123
 2050TIP3   OH2 6034   2.528   5.802   0.288
 2050TIP3    H1 6035   2.582   5.852   0.224
 2050TIP3    H2 6036   2.554   5.844   0.371
 2051TIP3   OH2 6037   3.075   5.951   0.267
 2051TIP3    H1 6038   3.069   5.920   0.175
 2051TIP3    H2 6039   3.059   5.868   0.318
 2052TIP3   OH2 6040   3.128   5.872  -0.122
 2052TIP3    H1 6041   3.071   5.884  -0.201
 2052TIP3    H2 6042   3.094   5.788  -0.086
 2053TIP3   OH2 6043   2.103   5.777  -0.274
 2053TIP3    H1 6044   2.022   5.726  -0.263
 2053TIP3    H2 6045   2.103   5.832  -0.194
 2054TIP3   OH2 6046   2.506   5.972  -0.088
 2054TIP3    H1 6047   2.572   5.931  -0.028
 2054TIP3    H2 6048   2.521   6.066  -0.066
 2055TIP3   OH2 6049   2.292   6.054   1.295
 2055TIP3    H1 6050   2.255   5.985   1.352
 2055TIP3    H2 6051   2.386   6.053   1.324
 2056TIP3   OH2 6052   2.541   6.051   1.416
 2056TIP3    H1 6053   2.625   6.022   1.376
 2056TIP3    H2 6054   2.526   5.980   1.482
 2057TIP3   OH2 6055   3.366   6.112   1.202
 2057TIP3    H1 6056   3.384   6.081   1.293
 2057TIP3    H2 6057   3.454   6.105   1.160
 2058TIP3   OH2 6058   3.304   7.663   0.696
 2058TIP3    H1 6059   3.226   7.631   0.646
 2058TIP3    H2 6060   3.285   7.759   0.698
 2059TIP3   OH2 6061   3.871   6.929   0.207
 2059TIP3    H1 6062   3.910   6.872   0.276
 2059TIP3    H2 6063   3.932   7.004   0.204
 2060TIP3   OH2 6064   3.741   6.609  -0.011
 2060TIP3    H1 6065   3.829   6.602   0.031
 2060TIP3    H2 6066   3.756   6.563  -0.095
 2061TIP3   OH2 6067   4.111   6.402   0.323
 2061TIP3    H1 6068   4.056   6.440   0.252
 2061TIP3    H2 6069   4.056   6.424   0.402
 2062TIP3   OH2 6070   3.992   6.515   0.094
 2062TIP3    H1 6071   4.052   6.586   0.125
 2062TIP3    H2 6072   4.026   6.502   0.003
 2063TIP3   OH2 6073   4.056   7.311   0.259
 2063TIP3    H1 6074   4.038   7.375   0.187
 2063TIP3    H2 6075   3.973   7.322   0.310
 2064TIP3   OH2 6076   4.482   6.113   0.059
 2064TIP3    H1 6077   4.449   6.023   0.078
 2064TIP3    H2 6078   4.402   6.166   0.078
 2065TIP3   OH2 6079   4.234   7.455   0.423
 2065TIP3    H1 6080   4.205   7.546   0.407
 2065TIP3    H2 6081   4.182   7.406   0.355
 2066TIP3   OH2 6082   4.006   7.045   0.465
 2066TIP3    H1 6083   4.014   7.138   0.496
 2066TIP3    H2 6084   3.910   7.030   0.478
 2067TIP3   OH2 6085   4.038   7.679   0.443
 2067TIP3    H1 6086   4.001   7.653   0.358
 2067TIP3    H2 6087   3.966   7.651   0.505
 2068TIP3   OH2 6088   3.627   7.191   0.393
 2068TIP3    H1 6089   3.560   7.167   0.326
 2068TIP3    H2 6090   3.664   7.104   0.418
 2069TIP3   OH2 6091   3.528   7.375   0.084
 2069TIP3    H1 6092   3.615   7.361   0.046
 2069TIP3    H2 6093   3.550   7.451   0.143
 2070TIP3   OH2 6094   5.261   6.994   0.367
 2070TIP3    H1 6095   5.176   7.006   0.322
 2070TIP3    H2 6096   5.279   6.901   0.349
 2071TIP3   OH2 6097   3.822   7.385   0.387
 2071TIP3    H1 6098   3.870   7.369   0.471
 2071TIP3    H2 6099   3.749   7.319   0.392
 2072TIP3   OH2 6100   4.231   6.202   0.166
 2072TIP3    H1 6101   4.141   6.170   0.142
 2072TIP3    H2 6102   4.205   6.283   0.216
 2073TIP3   OH2 6103   4.767   6.312   0.356
 2073TIP3    H1 6104   4.834   6.291   0.424
 2073TIP3    H2 6105   4.682   6.294   0.403
 2074TIP3   OH2 6106   5.002   6.715   0.284
 2074TIP3    H1 6107   4.973   6.701   0.376
 2074TIP3    H2 6108   4.919   6.743   0.243
 2075TIP3   OH2 6109   4.177   6.697   0.221
 2075TIP3    H1 6110   4.117   6.725   0.293
 2075TIP3    H2 6111   4.142   6.746   0.145
 2076TIP3   OH2 6112   4.715   6.971   0.519
 2076TIP3    H1 6113   4.694   6.890   0.571
 2076TIP3    H2 6114   4.812   6.973   0.526
 2077TIP3   OH2 6115   3.977   6.747   0.402
 2077TIP3    H1 6116   3.996   6.813   0.470
 2077TIP3    H2 6117   3.963   6.666   0.455
 2078TIP3   OH2 6118   3.604   6.246  -0.001
 2078TIP3    H1 6119   3.647   6.301   0.068
 2078TIP3    H2 6120   3.681   6.201  -0.037
 2079TIP3   OH2 6121   3.988   7.296   0.597
 2079TIP3    H1 6122   4.069   7.335   0.634
 2079TIP3    H2 6123   3.929   7.298   0.675
 2080TIP3   OH2 6124   4.447   6.617   0.178
 2080TIP3    H1 6125   4.362   6.664   0.180
 2080TIP3    H2 6126   4.510   6.688   0.202
 2081TIP3   OH2 6127   4.531   7.298   0.278
 2081TIP3    H1 6128   4.563   7.299   0.369
 2081TIP3    H2 6129   4.545   7.392   0.255
 2082TIP3   OH2 6130   3.744   6.979   0.530
 2082TIP3    H1 6131   3.758   6.964   0.626
 2082TIP3    H2 6132   3.673   6.915   0.510
 2083TIP3   OH2 6133   4.469   7.086   0.566
 2083TIP3    H1 6134   4.411   7.048   0.498
 2083TIP3    H2 6135   4.556   7.057   0.531
 2084TIP3   OH2 6136   3.952   6.490   0.539
 2084TIP3    H1 6137   3.855   6.492   0.548
 2084TIP3    H2 6138   3.977   6.426   0.608
 2085TIP3   OH2 6139   3.670   7.568   0.209
 2085TIP3    H1 6140   3.741   7.518   0.253
 2085TIP3    H2 6141   3.703   7.659   0.210
 2086TIP3   OH2 6142   4.775   6.565   0.247
 2086TIP3    H1 6143   4.871   6.568   0.236
 2086TIP3    H2 6144   4.763   6.473   0.277
 2087TIP3   OH2 6145   4.638   6.804   0.279
 2087TIP3    H1 6146   4.656   6.859   0.358
 2087TIP3    H2 6147   4.683   6.720   0.301
 2088TIP3   OH2 6148   3.969   6.121   0.143
 2088TIP3    H1 6149   3.934   6.088   0.057
 2088TIP3    H2 6150   3.957   6.042   0.200
 2089TIP3   OH2 6151   3.664   7.880   0.598
 2089TIP3    H1 6152   3.751   7.879   0.643
 2089TIP3    H2 6153   3.643   7.786   0.592
 2090TIP3   OH2 6154   4.145   7.842   0.642
 2090TIP3    H1 6155   4.241   7.832   0.636
 2090TIP3    H2 6156   4.116   7.791   0.563
 2091TIP3   OH2 6157   4.784   7.713   0.350
 2091TIP3    H1 6158   4.768   7.677   0.440
 2091TIP3    H2 6159   4.846   7.786   0.366
 2092TIP3   OH2 6160   3.793   7.287   0.795
 2092TIP3    H1 6161   3.809   7.191   0.794
 2092TIP3    H2 6162   3.706   7.292   0.750
 2093TIP3   OH2 6163   4.421   7.363   0.585
 2093TIP3    H1 6164   4.362   7.390   0.510
 2093TIP3    H2 6165   4.437   7.269   0.565
 2094TIP3   OH2 6166   3.910   7.025   0.777
 2094TIP3    H1 6167   3.984   6.969   0.750
 2094TIP3    H2 6168   3.939   7.056   0.865
 2095TIP3   OH2 6169   4.238   6.901   0.450
 2095TIP3    H1 6170   4.160   6.960   0.449
 2095TIP3    H2 6171   4.292   6.939   0.378
 2096TIP3   OH2 6172   4.765   7.297   0.568
 2096TIP3    H1 6173   4.849   7.292   0.522
 2096TIP3    H2 6174   4.768   7.219   0.625
 2097TIP3   OH2 6175   4.375   6.694   0.562
 2097TIP3    H1 6176   4.368   6.611   0.511
 2097TIP3    H2 6177   4.324   6.758   0.506
 2098TIP3   OH2 6178   4.366   6.469   0.394
 2098TIP3    H1 6179   4.399   6.514   0.313
 2098TIP3    H2 6180   4.274   6.450   0.368
 2099TIP3   OH2 6181   4.408   7.021   0.283
 2099TIP3    H1 6182   4.447   6.964   0.215
 2099TIP3    H2 6183   4.415   7.110   0.243
 2100TIP3   OH2 6184   4.981   6.989   0.633
 2100TIP3    H1 6185   5.029   6.904   0.629
 2100TIP3    H2 6186   5.043   7.047   0.586
 2101TIP3   OH2 6187   5.017   7.221   0.374
 2101TIP3    H1 6188   4.955   7.218   0.300
 2101TIP3    H2 6189   5.081   7.287   0.340
 2102TIP3   OH2 6190   4.257   6.805   0.797
 2102TIP3    H1 6191   4.186   6.739   0.809
 2102TIP3    H2 6192   4.284   6.787   0.704
 2103TIP3   OH2 6193   4.508   6.238   0.438
 2103TIP3    H1 6194   4.457   6.321   0.422
 2103TIP3    H2 6195   4.439   6.170   0.424
 2104TIP3   OH2 6196   4.629   6.751   0.654
 2104TIP3    H1 6197   4.608   6.731   0.748
 2104TIP3    H2 6198   4.542   6.726   0.614
 2105TIP3   OH2 6199   4.873   6.706   0.523
 2105TIP3    H1 6200   4.794   6.701   0.580
 2105TIP3    H2 6201   4.944   6.672   0.580
 2106TIP3   OH2 6202   5.097   6.635   0.663
 2106TIP3    H1 6203   5.112   6.540   0.681
 2106TIP3    H2 6204   5.101   6.675   0.753
 2107TIP3   OH2 6205   4.091   6.587   0.845
 2107TIP3    H1 6206   4.092   6.497   0.807
 2107TIP3    H2 6207   4.124   6.570   0.935
 2108TIP3   OH2 6208   4.604   6.254   0.694
 2108TIP3    H1 6209   4.669   6.181   0.687
 2108TIP3    H2 6210   4.562   6.248   0.606
 2109TIP3   OH2 6211   4.666   6.469   0.853
 2109TIP3    H1 6212   4.646   6.398   0.788
 2109TIP3    H2 6213   4.589   6.528   0.842
 2110TIP3   OH2 6214   5.211   7.656   0.471
 2110TIP3    H1 6215   5.134   7.673   0.530
 2110TIP3    H2 6216   5.224   7.741   0.429
 2111TIP3   OH2 6217   3.611   6.943   0.140
 2111TIP3    H1 6218   3.616   6.927   0.045
 2111TIP3    H2 6219   3.707   6.941   0.164
 2112TIP3   OH2 6220   3.823   6.639   0.823
 2112TIP3    H1 6221   3.920   6.629   0.819
 2112TIP3    H2 6222   3.797   6.551   0.858
 2113TIP3   OH2 6223   5.689   6.492   0.590
 2113TIP3    H1 6224   5.731   6.430   0.527
 2113TIP3    H2 6225   5.630   6.544   0.531
 2114TIP3   OH2 6226   3.794   6.335   0.171
 2114TIP3    H1 6227   3.856   6.259   0.172
 2114TIP3    H2 6228   3.855   6.407   0.147
 2115TIP3   OH2 6229   3.589   6.602   0.222
 2115TIP3    H1 6230   3.634   6.600   0.135
 2115TIP3    H2 6231   3.614   6.689   0.254
 2116TIP3   OH2 6232   5.503   6.628   0.455
 2116TIP3    H1 6233   5.413   6.656   0.428
 2116TIP3    H2 6234   5.546   6.635   0.367
 2117TIP3   OH2 6235   3.792   6.187   0.536
 2117TIP3    H1 6236   3.738   6.181   0.617
 2117TIP3    H2 6237   3.727   6.226   0.474
 2118TIP3   OH2 6238   3.832   7.609   0.615
 2118TIP3    H1 6239   3.739   7.587   0.593
 2118TIP3    H2 6240   3.831   7.601   0.711
 2119TIP3   OH2 6241   5.400   6.368   0.307
 2119TIP3    H1 6242   5.369   6.447   0.259
 2119TIP3    H2 6243   5.476   6.340   0.253
 2120TIP3   OH2 6244   3.661   7.893   0.166
 2120TIP3    H1 6245   3.575   7.941   0.164
 2120TIP3    H2 6246   3.706   7.942   0.237
 2121TIP3   OH2 6247   3.873   6.025  -0.092
 2121TIP3    H1 6248   3.783   5.989  -0.108
 2121TIP3    H2 6249   3.927   5.946  -0.110
 2122TIP3   OH2 6250   4.087   6.312   0.786
 2122TIP3    H1 6251   4.052   6.239   0.840
 2122TIP3    H2 6252   4.181   6.310   0.811
 2123TIP3   OH2 6253   4.338   6.308   0.903
 2123TIP3    H1 6254   4.421   6.280   0.862
 2123TIP3    H2 6255   4.324   6.237   0.969
 2124TIP3   OH2 6256   5.156   6.367   0.696
 2124TIP3    H1 6257   5.176   6.336   0.787
 2124TIP3    H2 6258   5.246   6.365   0.656
 2125TIP3   OH2 6259   6.132   6.585   0.412
 2125TIP3    H1 6260   6.171   6.563   0.327
 2125TIP3    H2 6261   6.114   6.499   0.453
 2126TIP3   OH2 6262   1.715   7.808   1.224
 2126TIP3    H1 6263   1.759   7.725   1.196
 2126TIP3    H2 6264   1.715   7.857   1.139
 2127TIP3   OH2 6265   3.224   8.337   0.251
 2127TIP3    H1 6266   3.252   8.404   0.186
 2127TIP3    H2 6267   3.289   8.354   0.320
 2128TIP3   OH2 6268   3.042   8.049   0.236
 2128TIP3    H1 6269   2.964   8.102   0.258
 2128TIP3    H2 6270   3.026   8.033   0.139
 2129TIP3   OH2 6271   3.084   8.528   0.556
 2129TIP3    H1 6272   3.052   8.531   0.463
 2129TIP3    H2 6273   3.095   8.431   0.568
 2130TIP3   OH2 6274   2.615   7.877   0.524
 2130TIP3    H1 6275   2.684   7.842   0.583
 2130TIP3    H2 6276   2.532   7.853   0.569
 2131TIP3   OH2 6277   2.855   8.332   0.436
 2131TIP3    H1 6278   2.816   8.304   0.522
 2131TIP3    H2 6279   2.776   8.365   0.393
 2132TIP3   OH2 6280   2.601   8.563   0.752
 2132TIP3    H1 6281   2.556   8.476   0.750
 2132TIP3    H2 6282   2.694   8.538   0.737
 2133TIP3   OH2 6283   2.660   8.108   0.365
 2133TIP3    H1 6284   2.697   8.135   0.450
 2133TIP3    H2 6285   2.618   8.024   0.390
 2134TIP3   OH2 6286   3.106   8.241   0.481
 2134TIP3    H1 6287   3.009   8.257   0.472
 2134TIP3    H2 6288   3.132   8.245   0.387
 2135TIP3   OH2 6289   2.885   8.550   0.764
 2135TIP3    H1 6290   2.897   8.462   0.799
 2135TIP3    H2 6291   2.962   8.558   0.705
 2136TIP3   OH2 6292   2.341   7.817   0.588
 2136TIP3    H1 6293   2.309   7.877   0.519
 2136TIP3    H2 6294   2.280   7.741   0.575
 2137TIP3   OH2 6295   2.489   8.307   0.802
 2137TIP3    H1 6296   2.485   8.302   0.900
 2137TIP3    H2 6297   2.397   8.292   0.780
 2138TIP3   OH2 6298   2.723   8.258   0.656
 2138TIP3    H1 6299   2.640   8.263   0.708
 2138TIP3    H2 6300   2.788   8.227   0.723
 2139TIP3   OH2 6301   2.947   8.200   0.815
 2139TIP3    H1 6302   2.958   8.103   0.829
 2139TIP3    H2 6303   2.942   8.235   0.906
 2140TIP3   OH2 6304   2.039   8.223   1.000
 2140TIP3    H1 6305   1.995   8.171   0.931
 2140TIP3    H2 6306   2.014   8.173   1.081
 2141TIP3   OH2 6307   2.442   7.815   0.845
 2141TIP3    H1 6308   2.507   7.741   0.838
 2141TIP3    H2 6309   2.400   7.812   0.757
 2142TIP3   OH2 6310   2.507   8.027   1.005
 2142TIP3    H1 6311   2.488   7.955   0.941
 2142TIP3    H2 6312   2.428   8.085   0.995
 2143TIP3   OH2 6313   3.287   8.673   0.431
 2143TIP3    H1 6314   3.212   8.625   0.468
 2143TIP3    H2 6315   3.360   8.609   0.447
 2144TIP3   OH2 6316   3.044   8.577   0.291
 2144TIP3    H1 6317   2.973   8.539   0.237
 2144TIP3    H2 6318   3.093   8.627   0.224
 2145TIP3   OH2 6319   3.497   8.061   0.721
 2145TIP3    H1 6320   3.557   7.995   0.679
 2145TIP3    H2 6321   3.472   8.117   0.644
 2146TIP3   OH2 6322   3.369   8.202   0.526
 2146TIP3    H1 6323   3.276   8.229   0.545
 2146TIP3    H2 6324   3.351   8.123   0.472
 2147TIP3   OH2 6325   3.275   7.967   0.409
 2147TIP3    H1 6326   3.186   7.977   0.370
 2147TIP3    H2 6327   3.293   7.871   0.397
 2148TIP3   OH2 6328   1.962   7.797   0.937
 2148TIP3    H1 6329   1.933   7.724   0.996
 2148TIP3    H2 6330   2.051   7.818   0.972
 2149TIP3   OH2 6331   2.192   7.875   1.068
 2149TIP3    H1 6332   2.274   7.844   1.026
 2149TIP3    H2 6333   2.176   7.804   1.134
 2150TIP3   OH2 6334   3.004   7.928   0.840
 2150TIP3    H1 6335   3.023   7.896   0.930
 2150TIP3    H2 6336   3.092   7.922   0.798
 2151TIP3   OH2 6337   3.569   8.807   0.423
 2151TIP3    H1 6338   3.619   8.737   0.466
 2151TIP3    H2 6339   3.561   8.876   0.493
 2152TIP3   OH2 6340   3.847   8.634   0.395
 2152TIP3    H1 6341   3.798   8.554   0.424
 2152TIP3    H2 6342   3.904   8.598   0.326
 2153TIP3   OH2 6343   3.725   8.406   0.490
 2153TIP3    H1 6344   3.730   8.328   0.432
 2153TIP3    H2 6345   3.761   8.372   0.574
 2154TIP3   OH2 6346   4.273   8.263   0.468
 2154TIP3    H1 6347   4.241   8.241   0.379
 2154TIP3    H2 6348   4.219   8.343   0.485
 2155TIP3   OH2 6349   3.454   8.460   0.464
 2155TIP3    H1 6350   3.551   8.451   0.450
 2155TIP3    H2 6351   3.434   8.371   0.499
 2156TIP3   OH2 6352   3.409   8.005   0.162
 2156TIP3    H1 6353   3.372   7.989   0.250
 2156TIP3    H2 6354   3.352   8.075   0.129
 2157TIP3   OH2 6355   3.721   8.110   0.427
 2157TIP3    H1 6356   3.696   8.038   0.487
 2157TIP3    H2 6357   3.814   8.124   0.452
 2158TIP3   OH2 6358   3.968   8.130   0.548
 2158TIP3    H1 6359   4.045   8.113   0.492
 2158TIP3    H2 6360   3.966   8.050   0.605
 2159TIP3   OH2 6361   1.638  -0.095   4.788
 2159TIP3    H1 6362   1.566  -0.156   4.768
 2159TIP3    H2 6363   1.608  -0.013   4.744
 2160TIP3   OH2 6364   1.855   0.257   4.851
 2160TIP3    H1 6365   1.855   0.161   4.866
 2160TIP3    H2 6366   1.772   0.283   4.897
 2161TIP3   OH2 6367   1.543   0.606   4.948
 2161TIP3    H1 6368   1.542   0.630   4.854
 2161TIP3    H2 6369   1.622   0.654   4.980
 2162TIP3   OH2 6370   1.877  -0.029   4.892
 2162TIP3    H1 6371   1.779  -0.038   4.885
 2162TIP3    H2 6372   1.901  -0.061   4.802
 2163TIP3   OH2 6373   1.386   0.293   4.781
 2163TIP3    H1 6374   1.301   0.250   4.800
 2163TIP3    H2 6375   1.362   0.362   4.715
 2164TIP3   OH2 6376   1.360   0.151   5.100
 2164TIP3    H1 6377   1.270   0.146   5.137
 2164TIP3    H2 6378   1.401   0.216   5.158
 2165TIP3   OH2 6379   1.641   0.362   4.329
 2165TIP3    H1 6380   1.670   0.395   4.416
 2165TIP3    H2 6381   1.712   0.394   4.271
 2166TIP3   OH2 6382   1.683   0.381   4.619
 2166TIP3    H1 6383   1.644   0.292   4.613
 2166TIP3    H2 6384   1.759   0.362   4.675
 2167TIP3   OH2 6385   1.744   0.052   5.184
 2167TIP3    H1 6386   1.667   0.058   5.244
 2167TIP3    H2 6387   1.779   0.143   5.190
 2168TIP3   OH2 6388   1.554   0.129   4.647
 2168TIP3    H1 6389   1.496   0.184   4.704
 2168TIP3    H2 6390   1.496   0.105   4.574
 2169TIP3   OH2 6391   1.783  -0.278   5.019
 2169TIP3    H1 6392   1.845  -0.352   5.005
 2169TIP3    H2 6393   1.806  -0.215   4.949
 2170TIP3   OH2 6394   1.949  -0.498   5.027
 2170TIP3    H1 6395   1.895  -0.566   5.069
 2170TIP3    H2 6396   2.038  -0.519   5.058
 2171TIP3   OH2 6397   1.140   0.470   4.909
 2171TIP3    H1 6398   1.205   0.400   4.912
 2171TIP3    H2 6399   1.175   0.529   4.979
 2172TIP3   OH2 6400   1.347   0.462   4.569
 2172TIP3    H1 6401   1.315   0.550   4.540
 2172TIP3    H2 6402   1.371   0.423   4.484
 2173TIP3   OH2 6403   1.612   0.338   4.954
 2173TIP3    H1 6404   1.532   0.299   4.913
 2173TIP3    H2 6405   1.587   0.433   4.954
 2174TIP3   OH2 6406   2.912  -0.261   3.770
 2174TIP3    H1 6407   2.894  -0.166   3.759
 2174TIP3    H2 6408   2.834  -0.299   3.727
 2175TIP3   OH2 6409   2.860  -0.296   4.107
 2175TIP3    H1 6410   2.908  -0.301   4.191
 2175TIP3    H2 6411   2.831  -0.389   4.099
 2176TIP3   OH2 6412   2.168  -0.404   4.448
 2176TIP3    H1 6413   2.199  -0.462   4.520
 2176TIP3    H2 6414   2.246  -0.349   4.433
 2177TIP3   OH2 6415   3.115   0.008   3.783
 2177TIP3    H1 6416   3.108  -0.060   3.851
 2177TIP3    H2 6417   3.143   0.086   3.834
 2178TIP3   OH2 6418   2.171   0.026   4.225
 2178TIP3    H1 6419   2.129  -0.041   4.169
 2178TIP3    H2 6420   2.265   0.022   4.198
 2179TIP3   OH2 6421   2.765   0.476   3.797
 2179TIP3    H1 6422   2.812   0.405   3.749
 2179TIP3    H2 6423   2.757   0.439   3.885
 2180TIP3   OH2 6424   2.675  -0.069   4.141
 2180TIP3    H1 6425   2.721  -0.149   4.109
 2180TIP3    H2 6426   2.754  -0.017   4.165
 2181TIP3   OH2 6427   3.095  -0.554   4.178
 2181TIP3    H1 6428   3.116  -0.640   4.216
 2181TIP3    H2 6429   3.051  -0.578   4.095
 2182TIP3   OH2 6430   3.733  -0.562   4.333
 2182TIP3    H1 6431   3.670  -0.491   4.311
 2182TIP3    H2 6432   3.778  -0.528   4.412
 2183TIP3   OH2 6433   2.777  -0.018   3.642
 2183TIP3    H1 6434   2.801  -0.042   3.551
 2183TIP3    H2 6435   2.726   0.064   3.627
 2184TIP3   OH2 6436   2.524  -0.147   4.373
 2184TIP3    H1 6437   2.463  -0.083   4.416
 2184TIP3    H2 6438   2.566  -0.092   4.304
 2185TIP3   OH2 6439   2.358   0.047   4.475
 2185TIP3    H1 6440   2.328   0.128   4.429
 2185TIP3    H2 6441   2.279   0.031   4.530
 2186TIP3   OH2 6442   3.187   0.255   3.945
 2186TIP3    H1 6443   3.098   0.246   3.986
 2186TIP3    H2 6444   3.178   0.341   3.901
 2187TIP3   OH2 6445   2.885   0.305   3.620
 2187TIP3    H1 6446   2.935   0.223   3.602
 2187TIP3    H2 6447   2.944   0.370   3.575
 2188TIP3   OH2 6448   3.042   0.101   3.533
 2188TIP3    H1 6449   3.057   0.025   3.472
 2188TIP3    H2 6450   3.071   0.062   3.617
 2189TIP3   OH2 6451   3.413   0.167   4.290
 2189TIP3    H1 6452   3.401   0.090   4.230
 2189TIP3    H2 6453   3.395   0.242   4.230
 2190TIP3   OH2 6454   3.608  -0.198   4.137
 2190TIP3    H1 6455   3.525  -0.146   4.141
 2190TIP3    H2 6456   3.638  -0.174   4.047
 2191TIP3   OH2 6457   3.060  -0.329   3.548
 2191TIP3    H1 6458   3.048  -0.305   3.642
 2191TIP3    H2 6459   3.146  -0.375   3.550
 2192TIP3   OH2 6460   3.282  -0.312   4.426
 2192TIP3    H1 6461   3.282  -0.228   4.476
 2192TIP3    H2 6462   3.199  -0.303   4.375
 2193TIP3   OH2 6463   2.417   0.046   4.085
 2193TIP3    H1 6464   2.404   0.003   4.000
 2193TIP3    H2 6465   2.508   0.019   4.107
 2194TIP3   OH2 6466   2.427  -0.395   4.295
 2194TIP3    H1 6467   2.463  -0.414   4.207
 2194TIP3    H2 6468   2.465  -0.308   4.316
 2195TIP3   OH2 6469   2.947   0.250   4.067
 2195TIP3    H1 6470   2.933   0.331   4.119
 2195TIP3    H2 6471   2.931   0.178   4.132
 2196TIP3   OH2 6472   2.561   0.171   4.614
 2196TIP3    H1 6473   2.502   0.233   4.661
 2196TIP3    H2 6474   2.494   0.118   4.565
 2197TIP3   OH2 6475   2.306  -0.267   4.710
 2197TIP3    H1 6476   2.311  -0.183   4.760
 2197TIP3    H2 6477   2.211  -0.287   4.716
 2198TIP3   OH2 6478   2.622   0.210   3.619
 2198TIP3    H1 6479   2.703   0.261   3.636
 2198TIP3    H2 6480   2.564   0.275   3.578
 2199TIP3   OH2 6481   2.354   0.337   4.701
 2199TIP3    H1 6482   2.319   0.335   4.609
 2199TIP3    H2 6483   2.274   0.315   4.753
 2200TIP3   OH2 6484   3.226   0.117   2.948
 2200TIP3    H1 6485   3.239   0.213   2.962
 2200TIP3    H2 6486   3.315   0.080   2.952
 2201TIP3   OH2 6487   1.942  -0.134   4.650
 2201TIP3    H1 6488   1.894  -0.155   4.568
 2201TIP3    H2 6489   1.973  -0.222   4.680
 2202TIP3   OH2 6490   7.461   5.697   9.958
 2202TIP3    H1 6491   7.546   5.729   9.926
 2202TIP3    H2 6492   7.419   5.778   9.987
 2203TIP3   OH2 6493   3.651   0.513   4.336
 2203TIP3    H1 6494   3.649   0.416   4.351
 2203TIP3    H2 6495   3.568   0.539   4.382
 2204TIP3   OH2 6496   2.756   0.298   4.470
 2204TIP3    H1 6497   2.755   0.391   4.503
 2204TIP3    H2 6498   2.685   0.258   4.525
 2205TIP3   OH2 6499   2.512   0.435   3.416
 2205TIP3    H1 6500   2.431   0.406   3.373
 2205TIP3    H2 6501   2.487   0.521   3.453
 2206TIP3   OH2 6502   2.772   0.397   3.334
 2206TIP3    H1 6503   2.680   0.394   3.366
 2206TIP3    H2 6504   2.816   0.335   3.394
 2207TIP3   OH2 6505   3.544  -0.362   4.628
 2207TIP3    H1 6506   3.470  -0.327   4.578
 2207TIP3    H2 6507   3.559  -0.448   4.587
 2208TIP3   OH2 6508   2.140   0.053   4.638
 2208TIP3    H1 6509   2.189   0.036   4.721
 2208TIP3    H2 6510   2.065  -0.009   4.645
 2209TIP3   OH2 6511   3.208  -0.496   4.623
 2209TIP3    H1 6512   3.255  -0.578   4.603
 2209TIP3    H2 6513   3.229  -0.439   4.546
 2210TIP3   OH2 6514   2.482  -0.617   4.453
 2210TIP3    H1 6515   2.410  -0.600   4.517
 2210TIP3    H2 6516   2.461  -0.547   4.387
 2211TIP3   OH2 6517   3.015  -0.308   4.727
 2211TIP3    H1 6518   3.009  -0.359   4.811
 2211TIP3    H2 6519   3.111  -0.312   4.714
 2212TIP3   OH2 6520   3.004  -0.615   3.917
 2212TIP3    H1 6521   2.963  -0.561   3.849
 2212TIP3    H2 6522   3.056  -0.678   3.865
 2213TIP3   OH2 6523   2.286  -0.572   4.644
 2213TIP3    H1 6524   2.320  -0.515   4.714
 2213TIP3    H2 6525   2.260  -0.652   4.692
 2214TIP3   OH2 6526   3.007  -0.357   4.343
 2214TIP3    H1 6527   3.039  -0.429   4.284
 2214TIP3    H2 6528   2.977  -0.409   4.420
 2215TIP3   OH2 6529   3.343   0.862   4.436
 2215TIP3    H1 6530   3.340   0.888   4.342
 2215TIP3    H2 6531   3.420   0.911   4.468
 2216TIP3   OH2 6532   2.300  -0.030   4.857
 2216TIP3    H1 6533   2.380   0.001   4.904
 2216TIP3    H2 6534   2.235  -0.025   4.930
 2217TIP3   OH2 6535   2.791  -0.561   4.132
 2217TIP3    H1 6536   2.826  -0.626   4.070
 2217TIP3    H2 6537   2.771  -0.616   4.210
 2218TIP3   OH2 6538   2.746  -0.685   4.413
 2218TIP3    H1 6539   2.655  -0.651   4.425
 2218TIP3    H2 6540   2.798  -0.625   4.470
 2219TIP3   OH2 6541   3.376  -0.051   4.125
 2219TIP3    H1 6542   3.401  -0.001   4.044
 2219TIP3    H2 6543   3.291  -0.093   4.099
 2220TIP3   OH2 6544   2.876   0.033   4.492
 2220TIP3    H1 6545   2.899   0.010   4.583
 2220TIP3    H2 6546   2.836   0.121   4.503
 2221TIP3   OH2 6547   2.044  -0.346   4.794
 2221TIP3    H1 6548   2.088  -0.339   4.882
 2221TIP3    H2 6549   1.993  -0.427   4.805
 2222TIP3   OH2 6550   2.766  -0.223   4.807
 2222TIP3    H1 6551   2.701  -0.281   4.762
 2222TIP3    H2 6552   2.850  -0.247   4.761
 2223TIP3   OH2 6553   3.034   0.290   4.389
 2223TIP3    H1 6554   2.938   0.290   4.403
 2223TIP3    H2 6555   3.064   0.342   4.467
 2224TIP3   OH2 6556   3.663   0.219   4.380
 2224TIP3    H1 6557   3.565   0.216   4.370
 2224TIP3    H2 6558   3.689   0.191   4.289
 2225TIP3   OH2 6559   3.145   0.179   3.207
 2225TIP3    H1 6560   3.125   0.109   3.272
 2225TIP3    H2 6561   3.145   0.129   3.124
 2226TIP3   OH2 6562   3.141  -0.188   4.043
 2226TIP3    H1 6563   3.048  -0.213   4.050
 2226TIP3    H2 6564   3.177  -0.268   3.998
 2227TIP3   OH2 6565   2.540   0.382   4.265
 2227TIP3    H1 6566   2.580   0.456   4.217
 2227TIP3    H2 6567   2.615   0.350   4.318
 2228TIP3   OH2 6568   2.925   0.016   4.225
 2228TIP3    H1 6569   2.914   0.018   4.323
 2228TIP3    H2 6570   3.009  -0.030   4.215
 2229TIP3   OH2 6571   3.175   0.549   4.274
 2229TIP3    H1 6572   3.095   0.494   4.268
 2229TIP3    H2 6573   3.159   0.615   4.203
 2230TIP3   OH2 6574   3.246   0.392   2.925
 2230TIP3    H1 6575   3.291   0.472   2.893
 2230TIP3    H2 6576   3.162   0.431   2.956
 2231TIP3   OH2 6577   3.078  -0.115   3.375
 2231TIP3    H1 6578   3.091  -0.197   3.426
 2231TIP3    H2 6579   3.147  -0.128   3.306
 2232TIP3   OH2 6580   1.977   0.253   4.430
 2232TIP3    H1 6581   2.027   0.172   4.450
 2232TIP3    H2 6582   2.014   0.315   4.494
 2233TIP3   OH2 6583   2.929  -0.529   4.571
 2233TIP3    H1 6584   2.937  -0.452   4.630
 2233TIP3    H2 6585   3.017  -0.568   4.581
 2234TIP3   OH2 6586   3.226  -0.427   3.918
 2234TIP3    H1 6587   3.158  -0.491   3.946
 2234TIP3    H2 6588   3.305  -0.465   3.964
 2235TIP3   OH2 6589   3.196   0.527   3.867
 2235TIP3    H1 6590   3.154   0.573   3.791
 2235TIP3    H2 6591   3.290   0.544   3.846
 2236TIP3   OH2 6592   1.967   0.556   4.848
 2236TIP3    H1 6593   2.054   0.555   4.894
 2236TIP3    H2 6594   1.947   0.461   4.846
 2237TIP3   OH2 6595   2.447   0.520   4.891
 2237TIP3    H1 6596   2.541   0.501   4.901
 2237TIP3    H2 6597   2.423   0.459   4.818
 2238TIP3   OH2 6598   3.092   0.423   4.621
 2238TIP3    H1 6599   3.079   0.356   4.692
 2238TIP3    H2 6600   3.165   0.477   4.656
 2239TIP3   OH2 6601   2.103  -0.032   5.048
 2239TIP3    H1 6602   2.110  -0.126   5.069
 2239TIP3    H2 6603   2.015  -0.028   5.004
 2240TIP3   OH2 6604   2.706   0.050   4.822
 2240TIP3    H1 6605   2.663   0.065   4.736
 2240TIP3    H2 6606   2.734  -0.044   4.816
 2241TIP3   OH2 6607   3.197   0.054   4.426
 2241TIP3    H1 6608   3.271   0.101   4.383
 2241TIP3    H2 6609   3.126   0.120   4.416
 2242TIP3   OH2 6610   2.208  -0.322   5.029
 2242TIP3    H1 6611   2.292  -0.364   5.006
 2242TIP3    H2 6612   2.232  -0.283   5.116
 2243TIP3   OH2 6613   2.558  -0.372   4.681
 2243TIP3    H1 6614   2.471  -0.325   4.676
 2243TIP3    H2 6615   2.600  -0.350   4.594
 2244TIP3   OH2 6616   3.070  -0.013   4.829
 2244TIP3    H1 6617   3.147  -0.046   4.782
 2244TIP3    H2 6618   3.060  -0.079   4.900
 2245TIP3   OH2 6619   2.573  -0.602   4.812
 2245TIP3    H1 6620   2.647  -0.651   4.773
 2245TIP3    H2 6621   2.568  -0.521   4.756
 2246TIP3   OH2 6622   2.723  -0.304   4.474
 2246TIP3    H1 6623   2.803  -0.290   4.421
 2246TIP3    H2 6624   2.661  -0.238   4.436
 2247TIP3   OH2 6625   3.289  -0.329   4.886
 2247TIP3    H1 6626   3.326  -0.418   4.879
 2247TIP3    H2 6627   3.358  -0.273   4.849
 2248TIP3   OH2 6628   3.331  -0.094   4.609
 2248TIP3    H1 6629   3.270  -0.038   4.555
 2248TIP3    H2 6630   3.417  -0.067   4.570
 2249TIP3   OH2 6631   2.521  -0.495   5.058
 2249TIP3    H1 6632   2.452  -0.564   5.065
 2249TIP3    H2 6633   2.558  -0.521   4.972
 2250TIP3   OH2 6634   2.994  -0.473   4.935
 2250TIP3    H1 6635   2.963  -0.492   5.025
 2250TIP3    H2 6636   3.033  -0.559   4.909
 2251TIP3   OH2 6637   3.452   0.616   3.825
 2251TIP3    H1 6638   3.471   0.643   3.917
 2251TIP3    H2 6639   3.496   0.685   3.774
 2252TIP3   OH2 6640   3.477   0.636   4.104
 2252TIP3    H1 6641   3.433   0.547   4.104
 2252TIP3    H2 6642   3.551   0.617   4.164
 2253TIP3   OH2 6643   3.525   0.312   4.682
 2253TIP3    H1 6644   3.451   0.322   4.745
 2253TIP3    H2 6645   3.565   0.401   4.684
 2254TIP3   OH2 6646   3.352  -0.148   3.312
 2254TIP3    H1 6647   3.431  -0.099   3.286
 2254TIP3    H2 6648   3.388  -0.214   3.375
 2255TIP3   OH2 6649   3.477  -0.311   3.499
 2255TIP3    H1 6650   3.405  -0.353   3.551
 2255TIP3    H2 6651   3.531  -0.268   3.569
 2256TIP3   OH2 6652   3.523   0.087   3.936
 2256TIP3    H1 6653   3.576   0.020   3.887
 2256TIP3    H2 6654   3.512   0.157   3.869
 2257TIP3   OH2 6655   3.353   0.386   4.131
 2257TIP3    H1 6656   3.282   0.429   4.183
 2257TIP3    H2 6657   3.302   0.339   4.061
 2258TIP3   OH2 6658   3.293  -0.453   3.653
 2258TIP3    H1 6659   3.283  -0.549   3.648
 2258TIP3    H2 6660   3.276  -0.435   3.748
 2259TIP3   OH2 6661   3.577  -0.030   4.506
 2259TIP3    H1 6662   3.649  -0.094   4.490
 2259TIP3    H2 6663   3.600   0.043   4.445
 2260TIP3   OH2 6664   3.761  -0.234   4.514
 2260TIP3    H1 6665   3.693  -0.281   4.567
 2260TIP3    H2 6666   3.843  -0.270   4.551
 2261TIP3   OH2 6667   3.445  -0.523   4.044
 2261TIP3    H1 6668   3.535  -0.515   4.004
 2261TIP3    H2 6669   3.465  -0.506   4.137
 2262TIP3   OH2 6670   3.508  -0.406   4.293
 2262TIP3    H1 6671   3.425  -0.364   4.323
 2262TIP3    H2 6672   3.544  -0.335   4.235
 2263TIP3   OH2 6673   3.033   0.487   3.482
 2263TIP3    H1 6674   3.088   0.469   3.403
 2263TIP3    H2 6675   3.088   0.548   3.533
 2264TIP3   OH2 6676   2.133   0.287   4.866
 2264TIP3    H1 6677   2.040   0.261   4.850
 2264TIP3    H2 6678   2.143   0.269   4.960
 2265TIP3   OH2 6679   2.312   0.321   4.416
 2265TIP3    H1 6680   2.262   0.395   4.376
 2265TIP3    H2 6681   2.397   0.336   4.371
 2266TIP3   OH2 6682   2.755   0.564   4.550
 2266TIP3    H1 6683   2.796   0.564   4.640
 2266TIP3    H2 6684   2.821   0.616   4.500
 2267TIP3   OH2 6685   2.935   0.717   4.411
 2267TIP3    H1 6686   3.008   0.666   4.373
 2267TIP3    H2 6687   2.985   0.775   4.473
 2268TIP3   OH2 6688   1.990   0.582   4.437
 2268TIP3    H1 6689   1.900   0.612   4.414
 2268TIP3    H2 6690   1.997   0.617   4.527
 2269TIP3   OH2 6691   2.225   0.556   4.296
 2269TIP3    H1 6692   2.139   0.569   4.341
 2269TIP3    H2 6693   2.204   0.589   4.206
 2270TIP3   OH2 6694   2.650   0.584   4.094
 2270TIP3    H1 6695   2.580   0.603   4.029
 2270TIP3    H2 6696   2.662   0.671   4.137
 2271TIP3   OH2 6697   2.919   0.522   4.144
 2271TIP3    H1 6698   2.824   0.540   4.127
 2271TIP3    H2 6699   2.960   0.601   4.105
 2272TIP3   OH2 6700   3.127   0.716   4.061
 2272TIP3    H1 6701   3.112   0.800   4.013
 2272TIP3    H2 6702   3.151   0.655   3.988
 2273TIP3   OH2 6703   1.910   0.378   4.194
 2273TIP3    H1 6704   1.924   0.350   4.287
 2273TIP3    H2 6705   1.989   0.334   4.155
 2274TIP3   OH2 6706   2.108   0.247   4.067
 2274TIP3    H1 6707   2.129   0.162   4.111
 2274TIP3    H2 6708   2.197   0.282   4.047
 2275TIP3   OH2 6709   2.373   0.344   4.040
 2275TIP3    H1 6710   2.403   0.253   4.025
 2275TIP3    H2 6711   2.413   0.362   4.127
 2276TIP3   OH2 6712   3.182   0.446   3.250
 2276TIP3    H1 6713   3.171   0.348   3.241
 2276TIP3    H2 6714   3.137   0.476   3.169
 2277TIP3   OH2 6715   3.405   0.594   4.435
 2277TIP3    H1 6716   3.325   0.562   4.388
 2277TIP3    H2 6717   3.385   0.689   4.441
 2278TIP3   OH2 6718   4.671  -0.035   3.204
 2278TIP3    H1 6719   4.641   0.057   3.183
 2278TIP3    H2 6720   4.596  -0.085   3.167
 2279TIP3   OH2 6721   4.671  -0.033   3.584
 2279TIP3    H1 6722   4.700  -0.065   3.671
 2279TIP3    H2 6723   4.626  -0.112   3.548
 2280TIP3   OH2 6724   3.967  -0.135   3.949
 2280TIP3    H1 6725   4.004  -0.201   4.011
 2280TIP3    H2 6726   4.046  -0.081   3.932
 2281TIP3   OH2 6727   4.915   0.267   3.266
 2281TIP3    H1 6728   4.898   0.199   3.334
 2281TIP3    H2 6729   4.944   0.343   3.319
 2282TIP3   OH2 6730   3.934   0.270   3.692
 2282TIP3    H1 6731   3.933   0.172   3.685
 2282TIP3    H2 6732   4.027   0.287   3.665
 2283TIP3   OH2 6733   3.639  -0.532   3.456
 2283TIP3    H1 6734   3.605  -0.441   3.465
 2283TIP3    H2 6735   3.558  -0.581   3.470
 2284TIP3   OH2 6736   3.713  -0.239   3.635
 2284TIP3    H1 6737   3.763  -0.316   3.670
 2284TIP3    H2 6738   3.770  -0.209   3.564
 2285TIP3   OH2 6739   4.561   0.729   3.287
 2285TIP3    H1 6740   4.601   0.664   3.226
 2285TIP3    H2 6741   4.569   0.681   3.371
 2286TIP3   OH2 6742   4.468   0.192   3.636
 2286TIP3    H1 6743   4.503   0.117   3.586
 2286TIP3    H2 6744   4.552   0.237   3.658
 2287TIP3   OH2 6745   4.880  -0.300   3.666
 2287TIP3    H1 6746   4.918  -0.386   3.688
 2287TIP3    H2 6747   4.849  -0.314   3.575
 2288TIP3   OH2 6748   3.855  -0.451   3.738
 2288TIP3    H1 6749   3.935  -0.476   3.789
 2288TIP3    H2 6750   3.872  -0.504   3.657
 2289TIP3   OH2 6751   4.293  -0.246   3.538
 2289TIP3    H1 6752   4.385  -0.278   3.549
 2289TIP3    H2 6753   4.248  -0.327   3.506
 2290TIP3   OH2 6754   5.529  -0.306   3.820
 2290TIP3    H1 6755   5.466  -0.235   3.797
 2290TIP3    H2 6756   5.573  -0.272   3.900
 2291TIP3   OH2 6757   4.556   0.184   3.076
 2291TIP3    H1 6758   4.522   0.170   2.987
 2291TIP3    H2 6759   4.514   0.269   3.099
 2292TIP3   OH2 6760   4.324   0.111   3.861
 2292TIP3    H1 6761   4.261   0.177   3.897
 2292TIP3    H2 6762   4.362   0.160   3.785
 2293TIP3   OH2 6763   4.098  -0.545   3.834
 2293TIP3    H1 6764   4.160  -0.472   3.857
 2293TIP3    H2 6765   4.136  -0.578   3.751
 2294TIP3   OH2 6766   4.152   0.302   3.961
 2294TIP3    H1 6767   4.126   0.385   3.917
 2294TIP3    H2 6768   4.071   0.287   4.014
 2295TIP3   OH2 6769   3.556   0.001   3.199
 2295TIP3    H1 6770   3.506   0.018   3.116
 2295TIP3    H2 6771   3.574   0.091   3.232
 2296TIP3   OH2 6772   4.983   0.511   3.434
 2296TIP3    H1 6773   4.892   0.504   3.471
 2296TIP3    H2 6774   4.977   0.597   3.387
 2297TIP3   OH2 6775   4.680   0.559   3.105
 2297TIP3    H1 6776   4.729   0.476   3.085
 2297TIP3    H2 6777   4.744   0.624   3.066
 2298TIP3   OH2 6778   4.822   0.342   3.017
 2298TIP3    H1 6779   4.801   0.262   2.967
 2298TIP3    H2 6780   4.860   0.305   3.100
 2299TIP3   OH2 6781   5.209   0.422   3.777
 2299TIP3    H1 6782   5.198   0.347   3.716
 2299TIP3    H2 6783   5.191   0.498   3.718
 2300TIP3   OH2 6784   4.503  -0.180   3.034
 2300TIP3    H1 6785   4.421  -0.130   3.014
 2300TIP3    H2 6786   4.544  -0.187   2.947
 2301TIP3   OH2 6787   4.457  -0.380   2.771
 2301TIP3    H1 6788   4.541  -0.345   2.805
 2301TIP3    H2 6789   4.487  -0.459   2.723
 2302TIP3   OH2 6790   5.405   0.059   3.624
 2302TIP3    H1 6791   5.321   0.110   3.627
 2302TIP3    H2 6792   5.435   0.082   3.533
 2303TIP3   OH2 6793   4.849  -0.100   3.006
 2303TIP3    H1 6794   4.795  -0.075   3.084
 2303TIP3    H2 6795   4.933  -0.126   3.049
 2304TIP3   OH2 6796   5.079  -0.055   3.913
 2304TIP3    H1 6797   5.078   0.031   3.959
 2304TIP3    H2 6798   4.994  -0.049   3.863
 2305TIP3   OH2 6799   4.083  -0.101   3.424
 2305TIP3    H1 6800   4.040  -0.160   3.359
 2305TIP3    H2 6801   4.158  -0.157   3.454
 2306TIP3   OH2 6802   4.198   0.297   3.585
 2306TIP3    H1 6803   4.182   0.279   3.491
 2306TIP3    H2 6804   4.293   0.275   3.594
 2307TIP3   OH2 6805   4.218  -0.134   3.782
 2307TIP3    H1 6806   4.248  -0.159   3.691
 2307TIP3    H2 6807   4.262  -0.048   3.796
 2308TIP3   OH2 6808   4.740   0.509   3.553
 2308TIP3    H1 6809   4.729   0.587   3.610
 2308TIP3    H2 6810   4.727   0.434   3.616
 2309TIP3   OH2 6811   4.356   0.427   4.101
 2309TIP3    H1 6812   4.295   0.488   4.148
 2309TIP3    H2 6813   4.291   0.372   4.052
 2310TIP3   OH2 6814   4.697  -0.252   2.834
 2310TIP3    H1 6815   4.753  -0.191   2.886
 2310TIP3    H2 6816   4.722  -0.225   2.742
 2311TIP3   OH2 6817   4.102  -0.008   4.199
 2311TIP3    H1 6818   4.106   0.076   4.248
 2311TIP3    H2 6819   4.007  -0.031   4.210
 2312TIP3   OH2 6820   4.430   0.441   3.111
 2312TIP3    H1 6821   4.514   0.490   3.120
 2312TIP3    H2 6822   4.374   0.505   3.065
 2313TIP3   OH2 6823   4.149   0.594   4.189
 2313TIP3    H1 6824   4.115   0.588   4.098
 2313TIP3    H2 6825   4.069   0.571   4.242
 2314TIP3   OH2 6826   3.950  -0.252   3.234
 2314TIP3    H1 6827   3.889  -0.201   3.176
 2314TIP3    H2 6828   3.916  -0.342   3.229
 2315TIP3   OH2 6829   4.999   0.368   2.434
 2315TIP3    H1 6830   5.003   0.463   2.411
 2315TIP3    H2 6831   5.093   0.343   2.422
 2316TIP3   OH2 6832   3.727   0.125   4.134
 2316TIP3    H1 6833   3.662   0.104   4.065
 2316TIP3    H2 6834   3.766   0.038   4.155
 2317TIP3   OH2 6835   3.584   0.321   3.761
 2317TIP3    H1 6836   3.680   0.306   3.763
 2317TIP3    H2 6837   3.574   0.395   3.822
 2318TIP3   OH2 6838   5.448   0.770   3.825
 2318TIP3    H1 6839   5.444   0.674   3.837
 2318TIP3    H2 6840   5.364   0.796   3.869
 2319TIP3   OH2 6841   4.552   0.555   3.957
 2319TIP3    H1 6842   4.551   0.647   3.990
 2319TIP3    H2 6843   4.481   0.514   4.012
 2320TIP3   OH2 6844   4.309   0.679   2.911
 2320TIP3    H1 6845   4.272   0.660   2.823
 2320TIP3    H2 6846   4.280   0.770   2.928
 2321TIP3   OH2 6847   3.746   0.531   3.295
 2321TIP3    H1 6848   3.782   0.487   3.373
 2321TIP3    H2 6849   3.684   0.462   3.265
 2322TIP3   OH2 6850   4.512   0.588   2.552
 2322TIP3    H1 6851   4.568   0.517   2.514
 2322TIP3    H2 6852   4.551   0.597   2.642
 2323TIP3   OH2 6853   4.565   0.636   2.822
 2323TIP3    H1 6854   4.477   0.640   2.866
 2323TIP3    H2 6855   4.620   0.597   2.892
 2324TIP3   OH2 6856   5.339  -0.106   4.114
 2324TIP3    H1 6857   5.266  -0.071   4.062
 2324TIP3    H2 6858   5.358  -0.190   4.070
 2325TIP3   OH2 6859   3.931   0.310   4.122
 2325TIP3    H1 6860   3.982   0.293   4.204
 2325TIP3    H2 6861   3.858   0.245   4.129
 2326TIP3   OH2 6862   5.011  -0.235   4.115
 2326TIP3    H1 6863   5.050  -0.320   4.089
 2326TIP3    H2 6864   5.025  -0.180   4.036
 2327TIP3   OH2 6865   4.768  -0.201   2.576
 2327TIP3    H1 6866   4.732  -0.223   2.488
 2327TIP3    H2 6867   4.841  -0.143   2.552
 2328TIP3   OH2 6868   4.272  -0.356   3.931
 2328TIP3    H1 6869   4.212  -0.333   4.006
 2328TIP3    H2 6870   4.259  -0.277   3.874
 2329TIP3   OH2 6871   4.134  -0.444   3.438
 2329TIP3    H1 6872   4.058  -0.496   3.465
 2329TIP3    H2 6873   4.159  -0.489   3.354
 2330TIP3   OH2 6874   4.645  -0.378   3.165
 2330TIP3    H1 6875   4.593  -0.306   3.124
 2330TIP3    H2 6876   4.690  -0.417   3.088
 2331TIP3   OH2 6877   4.810  -0.052   4.215
 2331TIP3    H1 6878   4.808  -0.101   4.301
 2331TIP3    H2 6879   4.905  -0.058   4.196
 2332TIP3   OH2 6880   4.800  -0.351   3.405
 2332TIP3    H1 6881   4.741  -0.321   3.333
 2332TIP3    H2 6882   4.832  -0.434   3.366
 2333TIP3   OH2 6883   4.088  -0.314   4.130
 2333TIP3    H1 6884   4.107  -0.257   4.206
 2333TIP3    H2 6885   4.044  -0.390   4.170
 2334TIP3   OH2 6886   4.807  -0.105   3.837
 2334TIP3    H1 6887   4.835  -0.176   3.775
 2334TIP3    H2 6888   4.771  -0.158   3.910
 2335TIP3   OH2 6889   3.903  -0.592   3.507
 2335TIP3    H1 6890   3.812  -0.573   3.477
 2335TIP3    H2 6891   3.912  -0.686   3.487
 2336TIP3   OH2 6892   4.198  -0.573   3.205
 2336TIP3    H1 6893   4.283  -0.598   3.166
 2336TIP3    H2 6894   4.138  -0.570   3.128
 2337TIP3   OH2 6895   4.025  -0.536   2.994
 2337TIP3    H1 6896   3.958  -0.593   2.954
 2337TIP3    H2 6897   4.078  -0.512   2.915
 2338TIP3   OH2 6898   5.138   1.119   3.922
 2338TIP3    H1 6899   5.136   1.143   3.827
 2338TIP3    H2 6900   5.217   1.167   3.952
 2339TIP3   OH2 6901   4.093   0.231   4.344
 2339TIP3    H1 6902   4.174   0.260   4.391
 2339TIP3    H2 6903   4.029   0.231   4.418
 2340TIP3   OH2 6904   4.561  -0.314   3.603
 2340TIP3    H1 6905   4.622  -0.364   3.547
 2340TIP3    H2 6906   4.556  -0.369   3.683
 2341TIP3   OH2 6907   4.539  -0.434   3.913
 2341TIP3    H1 6908   4.450  -0.393   3.913
 2341TIP3    H2 6909   4.592  -0.370   3.963
 2342TIP3   OH2 6910   4.269  -0.030   2.982
 2342TIP3    H1 6911   4.196  -0.094   2.972
 2342TIP3    H2 6912   4.251   0.005   3.073
 2343TIP3   OH2 6913   5.173   0.204   3.612
 2343TIP3    H1 6914   5.197   0.255   3.532
 2343TIP3    H2 6915   5.087   0.164   3.586
 2344TIP3   OH2 6916   4.673   0.289   3.980
 2344TIP3    H1 6917   4.695   0.268   4.071
 2344TIP3    H2 6918   4.632   0.377   3.986
 2345TIP3   OH2 6919   4.790  -0.493   2.944
 2345TIP3    H1 6920   4.887  -0.483   2.955
 2345TIP3    H2 6921   4.768  -0.415   2.891
 2346TIP3   OH2 6922   3.963  -0.008   3.657
 2346TIP3    H1 6923   4.003  -0.032   3.571
 2346TIP3    H2 6924   4.005  -0.071   3.717
 2347TIP3   OH2 6925   4.418   0.119   2.806
 2347TIP3    H1 6926   4.370   0.205   2.810
 2347TIP3    H2 6927   4.364   0.064   2.867
 2348TIP3   OH2 6928   3.844  -0.087   4.272
 2348TIP3    H1 6929   3.866  -0.102   4.366
 2348TIP3    H2 6930   3.773  -0.152   4.257
 2349TIP3   OH2 6931   4.561   0.033   4.293
 2349TIP3    H1 6932   4.496  -0.026   4.249
 2349TIP3    H2 6933   4.644   0.008   4.248
 2350TIP3   OH2 6934   4.831   0.546   3.877
 2350TIP3    H1 6935   4.734   0.546   3.890
 2350TIP3    H2 6936   4.859   0.599   3.955
 2351TIP3   OH2 6937   5.241  -0.382   2.784
 2351TIP3    H1 6938   5.183  -0.430   2.720
 2351TIP3    H2 6939   5.238  -0.294   2.741
 2352TIP3   OH2 6940   5.459   0.475   3.867
 2352TIP3    H1 6941   5.361   0.472   3.857
 2352TIP3    H2 6942   5.486   0.449   3.776
 2353TIP3   OH2 6943   4.943   0.439   2.696
 2353TIP3    H1 6944   4.916   0.362   2.748
 2353TIP3    H2 6945   4.956   0.401   2.606
 2354TIP3   OH2 6946   4.937   0.067   3.534
 2354TIP3    H1 6947   4.843   0.043   3.543
 2354TIP3    H2 6948   4.971  -0.011   3.486
 2355TIP3   OH2 6949   4.065   0.299   3.289
 2355TIP3    H1 6950   4.065   0.379   3.233
 2355TIP3    H2 6951   3.974   0.267   3.278
 2356TIP3   OH2 6952   3.679  -0.360   3.035
 2356TIP3    H1 6953   3.727  -0.275   3.048
 2356TIP3    H2 6954   3.596  -0.341   3.080
 2357TIP3   OH2 6955   4.200   0.062   3.227
 2357TIP3    H1 6956   4.171   0.152   3.251
 2357TIP3    H2 6957   4.166   0.010   3.302
 2358TIP3   OH2 6958   4.332   0.652   3.758
 2358TIP3    H1 6959   4.378   0.714   3.700
 2358TIP3    H2 6960   4.407   0.606   3.801
 2359TIP3   OH2 6961   3.985   0.540   3.139
 2359TIP3    H1 6962   3.899   0.552   3.183
 2359TIP3    H2 6963   4.020   0.631   3.141
 2360TIP3   OH2 6964   4.722   0.276   3.711
 2360TIP3    H1 6965   4.713   0.273   3.809
 2360TIP3    H2 6966   4.801   0.221   3.697
 2361TIP3   OH2 6967   4.694   0.156   2.599
 2361TIP3    H1 6968   4.748   0.137   2.679
 2361TIP3    H2 6969   4.605   0.143   2.632
 2362TIP3   OH2 6970   4.970   0.809   3.761
 2362TIP3    H1 6971   4.890   0.753   3.753
 2362TIP3    H2 6972   4.955   0.873   3.688
 2363TIP3   OH2 6973   5.034   0.640   2.416
 2363TIP3    H1 6974   5.061   0.695   2.340
 2363TIP3    H2 6975   4.959   0.693   2.448
 2364TIP3   OH2 6976   4.858   0.106   2.817
 2364TIP3    H1 6977   4.849   0.035   2.885
 2364TIP3    H2 6978   4.954   0.099   2.799
 2365TIP3   OH2 6979   3.773   0.502   3.915
 2365TIP3    H1 6980   3.829   0.428   3.945
 2365TIP3    H2 6981   3.797   0.570   3.979
 2366TIP3   OH2 6982   4.060   0.149   2.596
 2366TIP3    H1 6983   4.075   0.057   2.567
 2366TIP3    H2 6984   4.041   0.135   2.691
 2367TIP3   OH2 6985   4.007   0.154   2.870
 2367TIP3    H1 6986   4.084   0.125   2.921
 2367TIP3    H2 6987   4.014   0.252   2.877
 2368TIP3   OH2 6988   3.770  -0.113   3.079
 2368TIP3    H1 6989   3.702  -0.069   3.134
 2368TIP3    H2 6990   3.778  -0.049   3.005
 2369TIP3   OH2 6991   4.273   0.348   2.816
 2369TIP3    H1 6992   4.188   0.380   2.850
 2369TIP3    H2 6993   4.293   0.415   2.749
 2370TIP3   OH2 6994   4.487  -0.593   3.232
 2370TIP3    H1 6995   4.529  -0.508   3.209
 2370TIP3    H2 6996   4.442  -0.572   3.315
 2371TIP3   OH2 6997   4.728  -0.272   4.056
 2371TIP3    H1 6998   4.733  -0.196   4.118
 2371TIP3    H2 6999   4.815  -0.312   4.070
 2372TIP3   OH2 7000   4.016   0.427   2.883
 2372TIP3    H1 7001   3.989   0.496   2.819
 2372TIP3    H2 7002   4.004   0.474   2.969
 2373TIP3   OH2 7003   5.022  -0.169   3.405
 2373TIP3    H1 7004   4.951  -0.234   3.417
 2373TIP3    H2 7005   5.097  -0.212   3.453
 2374TIP3   OH2 7006   3.736   0.069   2.867
 2374TIP3    H1 7007   3.810   0.131   2.872
 2374TIP3    H2 7008   3.778   0.001   2.809
 2375TIP3   OH2 7009   4.992   0.781   3.356
 2375TIP3    H1 7010   4.950   0.829   3.281
 2375TIP3    H2 7011   5.086   0.800   3.335
 2376TIP3   OH2 7012   3.608   0.276   3.261
 2376TIP3    H1 7013   3.538   0.301   3.324
 2376TIP3    H2 7014   3.573   0.313   3.177
 2377TIP3   OH2 7015   3.764   0.813   4.334
 2377TIP3    H1 7016   3.850   0.814   4.381
 2377TIP3    H2 7017   3.744   0.718   4.333
 2378TIP3   OH2 7018   4.243   0.776   4.379
 2378TIP3    H1 7019   4.338   0.758   4.386
 2378TIP3    H2 7020   4.219   0.715   4.306
 2379TIP3   OH2 7021   4.227   0.352   2.508
 2379TIP3    H1 7022   4.176   0.276   2.542
 2379TIP3    H2 7023   4.303   0.306   2.465
 2380TIP3   OH2 7024   4.884   0.682   4.111
 2380TIP3    H1 7025   4.875   0.613   4.181
 2380TIP3    H2 7026   4.960   0.734   4.142
 2381TIP3   OH2 7027   4.655   0.393   2.430
 2381TIP3    H1 7028   4.718   0.336   2.476
 2381TIP3    H2 7029   4.693   0.398   2.339
 2382TIP3   OH2 7030   3.894   0.218   4.535
 2382TIP3    H1 7031   3.910   0.122   4.541
 2382TIP3    H2 7032   3.806   0.220   4.490
 2383TIP3   OH2 7033   3.874  -0.131   2.752
 2383TIP3    H1 7034   3.942  -0.158   2.817
 2383TIP3    H2 7035   3.927  -0.133   2.669
 2384TIP3   OH2 7036   4.502   0.306   4.308
 2384TIP3    H1 7037   4.460   0.321   4.221
 2384TIP3    H2 7038   4.530   0.212   4.302
 2385TIP3   OH2 7039   4.378   0.062   2.538
 2385TIP3    H1 7040   4.385   0.075   2.634
 2385TIP3    H2 7041   4.375  -0.035   2.531
 2386TIP3   OH2 7042   4.995   0.311   3.916
 2386TIP3    H1 7043   5.068   0.356   3.870
 2386TIP3    H2 7044   4.923   0.376   3.903
 2387TIP3   OH2 7045   4.010  -0.055   4.520
 2387TIP3    H1 7046   4.089  -0.105   4.496
 2387TIP3    H2 7047   4.037  -0.021   4.608
 2388TIP3   OH2 7048   4.074  -0.227   2.946
 2388TIP3    H1 7049   4.057  -0.271   3.031
 2388TIP3    H2 7050   4.114  -0.299   2.894
 2389TIP3   OH2 7051   4.350  -0.116   4.161
 2389TIP3    H1 7052   4.265  -0.067   4.159
 2389TIP3    H2 7053   4.395  -0.089   4.078
 2390TIP3   OH2 7054   4.184  -0.432   2.792
 2390TIP3    H1 7055   4.177  -0.484   2.711
 2390TIP3    H2 7056   4.280  -0.412   2.793
 2391TIP3   OH2 7057   4.866   0.244   4.317
 2391TIP3    H1 7058   4.940   0.211   4.265
 2391TIP3    H2 7059   4.858   0.176   4.387
 2392TIP3   OH2 7060   5.008  -0.108   2.452
 2392TIP3    H1 7061   4.988  -0.148   2.365
 2392TIP3    H2 7062   4.974  -0.017   2.433
 2393TIP3   OH2 7063   4.406  -0.330   4.309
 2393TIP3    H1 7064   4.427  -0.403   4.247
 2393TIP3    H2 7065   4.380  -0.257   4.247
 2394TIP3   OH2 7066   4.521  -0.047   3.959
 2394TIP3    H1 7067   4.601  -0.029   3.908
 2394TIP3    H2 7068   4.458   0.019   3.922
 2395TIP3   OH2 7069   5.098  -0.074   4.383
 2395TIP3    H1 7070   5.117  -0.162   4.349
 2395TIP3    H2 7071   5.153  -0.017   4.328
 2396TIP3   OH2 7072   5.127   0.163   4.099
 2396TIP3    H1 7073   5.067   0.219   4.044
 2396TIP3    H2 7074   5.213   0.189   4.060
 2397TIP3   OH2 7075   4.319  -0.234   4.548
 2397TIP3    H1 7076   4.252  -0.305   4.552
 2397TIP3    H2 7077   4.362  -0.258   4.464
 2398TIP3   OH2 7078   4.805  -0.214   4.426
 2398TIP3    H1 7079   4.748  -0.234   4.502
 2398TIP3    H2 7080   4.826  -0.304   4.392
 2399TIP3   OH2 7081   3.987   0.626   2.695
 2399TIP3    H1 7082   4.083   0.621   2.676
 2399TIP3    H2 7083   3.958   0.676   2.617
 2400TIP3   OH2 7084   3.477   0.005   2.927
 2400TIP3    H1 7085   3.566   0.039   2.902
 2400TIP3    H2 7086   3.451  -0.043   2.848
 2401TIP3   OH2 7087   3.382   0.622   3.327
 2401TIP3    H1 7088   3.315   0.559   3.291
 2401TIP3    H2 7089   3.426   0.564   3.393
 2402TIP3   OH2 7090   3.515   0.473   3.516
 2402TIP3    H1 7091   3.505   0.397   3.576
 2402TIP3    H2 7092   3.555   0.537   3.577
 2403TIP3   OH2 7093   5.245   0.871   3.313
 2403TIP3    H1 7094   5.274   0.910   3.397
 2403TIP3    H2 7095   5.305   0.913   3.249
 2404TIP3   OH2 7096   5.271   0.895   3.597
 2404TIP3    H1 7097   5.230   0.807   3.589
 2404TIP3    H2 7098   5.351   0.873   3.648
 2405TIP3   OH2 7099   5.323   0.567   4.171
 2405TIP3    H1 7100   5.248   0.579   4.233
 2405TIP3    H2 7101   5.363   0.656   4.171
 2406TIP3   OH2 7102   5.137   0.079   2.785
 2406TIP3    H1 7103   5.202   0.147   2.757
 2406TIP3    H2 7104   5.182   0.042   2.864
 2407TIP3   OH2 7105   5.267  -0.053   2.989
 2407TIP3    H1 7106   5.199  -0.092   3.049
 2407TIP3    H2 7107   5.330  -0.013   3.052
 2408TIP3   OH2 7108   5.320   0.343   3.424
 2408TIP3    H1 7109   5.369   0.278   3.371
 2408TIP3    H2 7110   5.315   0.419   3.363
 2409TIP3   OH2 7111   5.149   0.641   3.620
 2409TIP3    H1 7112   5.078   0.687   3.668
 2409TIP3    H2 7113   5.100   0.596   3.548
 2410TIP3   OH2 7114   5.205  -0.147   2.633
 2410TIP3    H1 7115   5.134  -0.138   2.565
 2410TIP3    H2 7116   5.181  -0.071   2.690
 2411TIP3   OH2 7117   5.080  -0.476   2.583
 2411TIP3    H1 7118   5.043  -0.400   2.535
 2411TIP3    H2 7119   5.039  -0.550   2.536
 2412TIP3   OH2 7120   5.079  -0.189   3.139
 2412TIP3    H1 7121   5.085  -0.286   3.136
 2412TIP3    H2 7122   5.064  -0.172   3.235
 2413TIP3   OH2 7123   3.703  -0.122   3.886
 2413TIP3    H1 7124   3.702  -0.152   3.793
 2413TIP3    H2 7125   3.800  -0.116   3.902
 2414TIP3   OH2 7126   5.373   0.226   3.994
 2414TIP3    H1 7127   5.446   0.163   3.979
 2414TIP3    H2 7128   5.393   0.298   3.932
 2415TIP3   OH2 7129   5.559   0.022   4.008
 2415TIP3    H1 7130   5.491  -0.027   4.059
 2415TIP3    H2 7131   5.640  -0.023   4.036
 2416TIP3   OH2 7132   5.060  -0.472   2.984
 2416TIP3    H1 7133   5.109  -0.509   3.061
 2416TIP3    H2 7134   5.133  -0.441   2.927
 2417TIP3   OH2 7135   5.241  -0.270   3.533
 2417TIP3    H1 7136   5.330  -0.262   3.491
 2417TIP3    H2 7137   5.263  -0.247   3.625
 2418TIP3   OH2 7138   5.305  -0.148   3.779
 2418TIP3    H1 7139   5.221  -0.107   3.809
 2418TIP3    H2 7140   5.341  -0.077   3.721
 2419TIP3   OH2 7141   3.700  -0.464   3.965
 2419TIP3    H1 7142   3.745  -0.473   3.879
 2419TIP3    H2 7143   3.720  -0.372   3.986
 2420TIP3   OH2 7144   4.831   0.738   2.971
 2420TIP3    H1 7145   4.878   0.723   2.886
 2420TIP3    H2 7146   4.884   0.809   3.010
 2421TIP3   OH2 7147   3.929   0.544   4.354
 2421TIP3    H1 7148   3.837   0.518   4.338
 2421TIP3    H2 7149   3.939   0.527   4.448
 2422TIP3   OH2 7150   4.111   0.573   3.907
 2422TIP3    H1 7151   4.059   0.641   3.861
 2422TIP3    H2 7152   4.197   0.586   3.861
 2423TIP3   OH2 7153   4.551   0.822   4.038
 2423TIP3    H1 7154   4.592   0.821   4.127
 2423TIP3    H2 7155   4.618   0.872   3.987
 2424TIP3   OH2 7156   4.731   0.973   3.899
 2424TIP3    H1 7157   4.803   0.924   3.856
 2424TIP3    H2 7158   4.783   1.030   3.960
 2425TIP3   OH2 7159   3.790   0.829   3.926
 2425TIP3    H1 7160   3.701   0.863   3.901
 2425TIP3    H2 7161   3.802   0.875   4.011
 2426TIP3   OH2 7162   4.001   0.780   3.752
 2426TIP3    H1 7163   3.931   0.783   3.821
 2426TIP3    H2 7164   3.971   0.860   3.701
 2427TIP3   OH2 7165   4.430   0.856   3.563
 2427TIP3    H1 7166   4.437   0.911   3.483
 2427TIP3    H2 7167   4.445   0.926   3.631
 2428TIP3   OH2 7168   4.710   0.782   3.632
 2428TIP3    H1 7169   4.618   0.804   3.609
 2428TIP3    H2 7170   4.759   0.854   3.590
 2429TIP3   OH2 7171   4.917   0.970   3.546
 2429TIP3    H1 7172   4.906   1.056   3.500
 2429TIP3    H2 7173   4.947   0.912   3.472
 2430TIP3   OH2 7174   3.709   0.624   3.671
 2430TIP3    H1 7175   3.713   0.616   3.768
 2430TIP3    H2 7176   3.761   0.546   3.648
 2431TIP3   OH2 7177   3.485   0.403   3.062
 2431TIP3    H1 7178   3.402   0.365   3.027
 2431TIP3    H2 7179   3.470   0.496   3.037
 2432TIP3   OH2 7180   4.255   0.588   2.645
 2432TIP3    H1 7181   4.343   0.611   2.608
 2432TIP3    H2 7182   4.234   0.513   2.584
 2433TIP3   OH2 7183   4.972   0.706   2.738
 2433TIP3    H1 7184   4.965   0.609   2.723
 2433TIP3    H2 7185   4.931   0.739   2.655
 2434TIP3   OH2 7186   3.562   0.423   2.697
 2434TIP3    H1 7187   3.566   0.449   2.790
 2434TIP3    H2 7188   3.649   0.378   2.685
 2435TIP3   OH2 7189   5.199   0.850   3.925
 2435TIP3    H1 7190   5.121   0.820   3.874
 2435TIP3    H2 7191   5.181   0.946   3.927
 2436TIP3   OH2 7192   6.463   0.224   2.698
 2436TIP3    H1 7193   6.436   0.315   2.674
 2436TIP3    H2 7194   6.389   0.175   2.657
 2437TIP3   OH2 7195   6.468   0.226   3.055
 2437TIP3    H1 7196   6.479   0.209   3.150
 2437TIP3    H2 7197   6.423   0.146   3.025
 2438TIP3   OH2 7198   5.765   0.131   3.431
 2438TIP3    H1 7199   5.797   0.064   3.493
 2438TIP3    H2 7200   5.846   0.181   3.415
 2439TIP3   OH2 7201   6.710   0.522   2.753
 2439TIP3    H1 7202   6.694   0.459   2.824
 2439TIP3    H2 7203   6.738   0.601   2.801
 2440TIP3   OH2 7204   5.738   0.528   3.163
 2440TIP3    H1 7205   5.729   0.431   3.162
 2440TIP3    H2 7206   5.834   0.538   3.151
 2441TIP3   OH2 7207   5.437  -0.281   2.952
 2441TIP3    H1 7208   5.390  -0.197   2.968
 2441TIP3    H2 7209   5.373  -0.326   2.893
 2442TIP3   OH2 7210   5.504   0.016   3.120
 2442TIP3    H1 7211   5.556  -0.060   3.154
 2442TIP3    H2 7212   5.563   0.051   3.051
 2443TIP3   OH2 7213   6.359   0.988   2.771
 2443TIP3    H1 7214   6.402   0.918   2.716
 2443TIP3    H2 7215   6.355   0.945   2.857
 2444TIP3   OH2 7216   6.262   0.446   3.122
 2444TIP3    H1 7217   6.300   0.380   3.063
 2444TIP3    H2 7218   6.346   0.491   3.149
 2445TIP3   OH2 7219   6.693  -0.049   3.162
 2445TIP3    H1 7220   6.769  -0.101   3.127
 2445TIP3    H2 7221   6.636  -0.048   3.082
 2446TIP3   OH2 7222   5.649  -0.193   3.225
 2446TIP3    H1 7223   5.727  -0.223   3.276
 2446TIP3    H2 7224   5.665  -0.246   3.144
 2447TIP3   OH2 7225   6.084   0.012   3.018
 2447TIP3    H1 7226   6.178  -0.014   3.019
 2447TIP3    H2 7227   6.040  -0.071   2.989
 2448TIP3   OH2 7228   7.360   0.100   3.339
 2448TIP3    H1 7229   7.283   0.073   3.284
 2448TIP3    H2 7230   7.395   0.012   3.365
 2449TIP3   OH2 7231   6.349   0.438   2.564
 2449TIP3    H1 7232   6.317   0.432   2.473
 2449TIP3    H2 7233   6.313   0.526   2.589
 2450TIP3   OH2 7234   6.121   0.368   3.352
 2450TIP3    H1 7235   6.059   0.436   3.386
 2450TIP3    H2 7236   6.163   0.416   3.277
 2451TIP3   OH2 7237   5.882  -0.295   3.321
 2451TIP3    H1 7238   5.944  -0.227   3.354
 2451TIP3    H2 7239   5.926  -0.325   3.240
 2452TIP3   OH2 7240   5.947   0.562   3.443
 2452TIP3    H1 7241   5.922   0.647   3.402
 2452TIP3    H2 7242   5.867   0.548   3.499
 2453TIP3   OH2 7243   5.340   0.252   2.685
 2453TIP3    H1 7244   5.299   0.275   2.599
 2453TIP3    H2 7245   5.368   0.340   2.718
 2454TIP3   OH2 7246   6.780   0.767   2.919
 2454TIP3    H1 7247   6.689   0.761   2.958
 2454TIP3    H2 7248   6.773   0.852   2.872
 2455TIP3   OH2 7249   6.481   0.814   2.597
 2455TIP3    H1 7250   6.530   0.732   2.572
 2455TIP3    H2 7251   6.539   0.880   2.554
 2456TIP3   OH2 7252   6.618   0.596   2.502
 2456TIP3    H1 7253   6.600   0.516   2.450
 2456TIP3    H2 7254   6.656   0.560   2.584
 2457TIP3   OH2 7255   7.006   0.680   3.263
 2457TIP3    H1 7256   6.994   0.606   3.199
 2457TIP3    H2 7257   6.988   0.758   3.206
 2458TIP3   OH2 7258   6.298   0.078   2.527
 2458TIP3    H1 7259   6.213   0.126   2.515
 2458TIP3    H2 7260   6.328   0.075   2.435
 2459TIP3   OH2 7261   6.251  -0.069   2.265
 2459TIP3    H1 7262   6.341  -0.075   2.300
 2459TIP3    H2 7263   6.249  -0.142   2.201
 2460TIP3   OH2 7264   7.198   0.311   3.104
 2460TIP3    H1 7265   7.117   0.365   3.110
 2460TIP3    H2 7266   7.230   0.340   3.015
 2461TIP3   OH2 7267   6.646   0.157   2.507
 2461TIP3    H1 7268   6.595   0.184   2.587
 2461TIP3    H2 7269   6.733   0.134   2.548
 2462TIP3   OH2 7270   6.866   0.265   3.298
 2462TIP3    H1 7271   6.897   0.344   3.250
 2462TIP3    H2 7272   6.780   0.298   3.324
 2463TIP3   OH2 7273   5.874   0.155   2.910
 2463TIP3    H1 7274   5.833   0.098   2.841
 2463TIP3    H2 7275   5.950   0.101   2.938
 2464TIP3   OH2 7276   6.002   0.560   3.060
 2464TIP3    H1 7277   5.984   0.529   2.970
 2464TIP3    H2 7278   6.092   0.528   3.076
 2465TIP3   OH2 7279   6.019   0.126   3.266
 2465TIP3    H1 7280   6.045   0.105   3.174
 2465TIP3    H2 7281   6.061   0.213   3.282
 2466TIP3   OH2 7282   6.539   0.763   3.042
 2466TIP3    H1 7283   6.524   0.846   3.091
 2466TIP3    H2 7284   6.519   0.694   3.107
 2467TIP3   OH2 7285   6.151   0.681   3.588
 2467TIP3    H1 7286   6.091   0.744   3.634
 2467TIP3    H2 7287   6.086   0.629   3.538
 2468TIP3   OH2 7288   6.505   0.044   2.312
 2468TIP3    H1 7289   6.556   0.080   2.388
 2468TIP3    H2 7290   6.485   0.127   2.266
 2469TIP3   OH2 7291   5.901   0.246   3.691
 2469TIP3    H1 7292   5.909   0.333   3.735
 2469TIP3    H2 7293   5.804   0.234   3.695
 2470TIP3   OH2 7294   6.229   0.696   2.597
 2470TIP3    H1 7295   6.310   0.750   2.606
 2470TIP3    H2 7296   6.169   0.757   2.550
 2471TIP3   OH2 7297   5.946   0.850   3.674
 2471TIP3    H1 7298   5.912   0.851   3.582
 2471TIP3    H2 7299   5.866   0.827   3.725
 2472TIP3   OH2 7300   5.744   0.002   2.712
 2472TIP3    H1 7301   5.674   0.043   2.656
 2472TIP3    H2 7302   5.710  -0.087   2.725
 2473TIP3   OH2 7303   6.803   0.625   1.921
 2473TIP3    H1 7304   6.805   0.721   1.901
 2473TIP3    H2 7305   6.876   0.592   1.866
 2474TIP3   OH2 7306   5.522   0.384   3.622
 2474TIP3    H1 7307   5.457   0.365   3.551
 2474TIP3    H2 7308   5.559   0.295   3.640
 2475TIP3   OH2 7309   5.379   0.571   3.260
 2475TIP3    H1 7310   5.474   0.569   3.243
 2475TIP3    H2 7311   5.369   0.655   3.308
 2476TIP3   OH2 7312   7.245   1.027   3.313
 2476TIP3    H1 7313   7.241   0.931   3.324
 2476TIP3    H2 7314   7.161   1.054   3.356
 2477TIP3   OH2 7315   6.349   0.810   3.445
 2477TIP3    H1 7316   6.348   0.903   3.476
 2477TIP3    H2 7317   6.278   0.771   3.500
 2478TIP3   OH2 7318   6.099   0.928   2.403
 2478TIP3    H1 7319   6.072   0.910   2.311
 2478TIP3    H2 7320   6.077   1.022   2.415
 2479TIP3   OH2 7321   5.546   0.790   2.780
 2479TIP3    H1 7322   5.595   0.780   2.865
 2479TIP3    H2 7323   5.488   0.712   2.783
 2480TIP3   OH2 7324   6.361   0.914   2.325
 2480TIP3    H1 7325   6.269   0.905   2.354
 2480TIP3    H2 7326   6.405   0.842   2.373
 2481TIP3   OH2 7327   7.176   0.053   3.687
 2481TIP3    H1 7328   7.082   0.081   3.669
 2481TIP3    H2 7329   7.217   0.070   3.599
 2482TIP3   OH2 7330   5.730   0.564   3.608
 2482TIP3    H1 7331   5.778   0.549   3.692
 2482TIP3    H2 7332   5.654   0.502   3.617
 2483TIP3   OH2 7333   6.842   0.010   3.431
 2483TIP3    H1 7334   6.852  -0.009   3.533
 2483TIP3    H2 7335   6.891   0.086   3.419
 2484TIP3   OH2 7336   6.050  -0.102   3.414
 2484TIP3    H1 7337   6.001  -0.069   3.492
 2484TIP3    H2 7338   6.046  -0.024   3.355
 2485TIP3   OH2 7339   5.937  -0.198   2.929
 2485TIP3    H1 7340   5.853  -0.243   2.952
 2485TIP3    H2 7341   5.955  -0.238   2.841
 2486TIP3   OH2 7342   6.433  -0.116   2.670
 2486TIP3    H1 7343   6.383  -0.045   2.625
 2486TIP3    H2 7344   6.484  -0.153   2.594
 2487TIP3   OH2 7345   6.592   0.196   3.697
 2487TIP3    H1 7346   6.599   0.152   3.785
 2487TIP3    H2 7347   6.688   0.209   3.681
 2488TIP3   OH2 7348   6.593  -0.094   2.901
 2488TIP3    H1 7349   6.538  -0.067   2.824
 2488TIP3    H2 7350   6.633  -0.174   2.866
 2489TIP3   OH2 7351   5.867  -0.050   3.627
 2489TIP3    H1 7352   5.869   0.022   3.693
 2489TIP3    H2 7353   5.805  -0.113   3.666
 2490TIP3   OH2 7354   6.559   0.160   3.304
 2490TIP3    H1 7355   6.641   0.142   3.253
 2490TIP3    H2 7356   6.584   0.150   3.397
 2491TIP3   OH2 7357   5.700  -0.335   2.993
 2491TIP3    H1 7358   5.605  -0.316   2.971
 2491TIP3    H2 7359   5.703  -0.430   2.977
 2492TIP3   OH2 7360   5.986  -0.314   2.686
 2492TIP3    H1 7361   6.073  -0.336   2.651
 2492TIP3    H2 7362   5.927  -0.321   2.608
 2493TIP3   OH2 7363   5.809  -0.308   2.468
 2493TIP3    H1 7364   5.736  -0.347   2.418
 2493TIP3    H2 7365   5.858  -0.260   2.398
 2494TIP3   OH2 7366   6.934   1.375   3.409
 2494TIP3    H1 7367   6.931   1.400   3.314
 2494TIP3    H2 7368   7.013   1.425   3.439
 2495TIP3   OH2 7369   5.890   0.487   3.833
 2495TIP3    H1 7370   5.971   0.517   3.879
 2495TIP3    H2 7371   5.826   0.492   3.907
 2496TIP3   OH2 7372   6.359  -0.058   3.084
 2496TIP3    H1 7373   6.418  -0.097   3.017
 2496TIP3    H2 7374   6.317  -0.137   3.122
 2497TIP3   OH2 7375   6.376  -0.171   3.351
 2497TIP3    H1 7376   6.391  -0.091   3.298
 2497TIP3    H2 7377   6.310  -0.139   3.414
 2498TIP3   OH2 7378   6.068   0.224   2.473
 2498TIP3    H1 7379   5.989   0.167   2.460
 2498TIP3    H2 7380   6.050   0.262   2.562
 2499TIP3   OH2 7381   6.964   0.462   3.097
 2499TIP3    H1 7382   6.998   0.514   3.021
 2499TIP3    H2 7383   6.881   0.426   3.059
 2500TIP3   OH2 7384   6.462   0.541   3.472
 2500TIP3    H1 7385   6.499   0.533   3.561
 2500TIP3    H2 7386   6.428   0.632   3.471
 2501TIP3   OH2 7387   6.582  -0.198   2.457
 2501TIP3    H1 7388   6.678  -0.212   2.475
 2501TIP3    H2 7389   6.583  -0.120   2.400
 2502TIP3   OH2 7390   5.757   0.250   3.144
 2502TIP3    H1 7391   5.797   0.222   3.058
 2502TIP3    H2 7392   5.795   0.186   3.205
 2503TIP3   OH2 7393   6.216   0.377   2.296
 2503TIP3    H1 7394   6.167   0.463   2.297
 2503TIP3    H2 7395   6.161   0.324   2.357
 2504TIP3   OH2 7396   5.641   0.169   3.759
 2504TIP3    H1 7397   5.662   0.156   3.854
 2504TIP3    H2 7398   5.567   0.107   3.746
 2505TIP3   OH2 7399   6.351   0.288   3.783
 2505TIP3    H1 7400   6.290   0.231   3.734
 2505TIP3    H2 7401   6.436   0.266   3.740
 2506TIP3   OH2 7402   6.625   0.796   3.370
 2506TIP3    H1 7403   6.529   0.805   3.379
 2506TIP3    H2 7404   6.655   0.853   3.444
 2507TIP3   OH2 7405   7.256   0.734   3.354
 2507TIP3    H1 7406   7.158   0.728   3.346
 2507TIP3    H2 7407   7.282   0.705   3.264
 2508TIP3   OH2 7408   6.728   0.696   2.177
 2508TIP3    H1 7409   6.729   0.624   2.241
 2508TIP3    H2 7410   6.765   0.655   2.096
 2509TIP3   OH2 7411   6.731   0.326   3.021
 2509TIP3    H1 7412   6.635   0.305   3.022
 2509TIP3    H2 7413   6.766   0.248   2.973
 2510TIP3   OH2 7414   5.863   0.554   2.773
 2510TIP3    H1 7415   5.866   0.635   2.718
 2510TIP3    H2 7416   5.768   0.540   2.779
 2511TIP3   OH2 7417   5.433  -0.138   2.469
 2511TIP3    H1 7418   5.475  -0.055   2.499
 2511TIP3    H2 7419   5.351  -0.138   2.522
 2512TIP3   OH2 7420   5.997   0.318   2.715
 2512TIP3    H1 7421   5.965   0.409   2.732
 2512TIP3    H2 7422   5.958   0.269   2.790
 2513TIP3   OH2 7423   6.130   0.896   3.239
 2513TIP3    H1 7424   6.169   0.970   3.187
 2513TIP3    H2 7425   6.208   0.864   3.287
 2514TIP3   OH2 7426   5.783   0.790   2.626
 2514TIP3    H1 7427   5.696   0.803   2.668
 2514TIP3    H2 7428   5.816   0.883   2.625
 2515TIP3   OH2 7429   6.513   0.528   3.201
 2515TIP3    H1 7430   6.507   0.528   3.299
 2515TIP3    H2 7431   6.604   0.496   3.188
 2516TIP3   OH2 7432   6.440   0.363   2.124
 2516TIP3    H1 7433   6.515   0.375   2.185
 2516TIP3    H2 7434   6.367   0.400   2.177
 2517TIP3   OH2 7435   6.766   1.064   3.246
 2517TIP3    H1 7436   6.684   1.013   3.235
 2517TIP3    H2 7437   6.755   1.132   3.175
 2518TIP3   OH2 7438   6.830   0.901   1.895
 2518TIP3    H1 7439   6.866   0.978   1.848
 2518TIP3    H2 7440   6.750   0.944   1.933
 2519TIP3   OH2 7441   6.641   0.354   2.311
 2519TIP3    H1 7442   6.649   0.292   2.386
 2519TIP3    H2 7443   6.735   0.356   2.282
 2520TIP3   OH2 7444   5.567   0.760   3.400
 2520TIP3    H1 7445   5.623   0.687   3.429
 2520TIP3    H2 7446   5.601   0.833   3.454
 2521TIP3   OH2 7447   5.844   0.397   2.078
 2521TIP3    H1 7448   5.898   0.320   2.055
 2521TIP3    H2 7449   5.840   0.391   2.176
 2522TIP3   OH2 7450   5.810   0.404   2.354
 2522TIP3    H1 7451   5.882   0.389   2.415
 2522TIP3    H2 7452   5.805   0.503   2.354
 2523TIP3   OH2 7453   5.537   0.106   2.556
 2523TIP3    H1 7454   5.472   0.150   2.615
 2523TIP3    H2 7455   5.554   0.179   2.493
 2524TIP3   OH2 7456   6.072   0.603   2.305
 2524TIP3    H1 7457   5.985   0.635   2.336
 2524TIP3    H2 7458   6.092   0.672   2.239
 2525TIP3   OH2 7459   6.275  -0.336   2.715
 2525TIP3    H1 7460   6.319  -0.250   2.698
 2525TIP3    H2 7461   6.237  -0.322   2.803
 2526TIP3   OH2 7462   6.579  -0.009   3.525
 2526TIP3    H1 7463   6.562   0.067   3.586
 2526TIP3    H2 7464   6.576  -0.082   3.587
 2527TIP3   OH2 7465   5.810   0.676   2.369
 2527TIP3    H1 7466   5.786   0.746   2.303
 2527TIP3    H2 7467   5.799   0.725   2.453
 2528TIP3   OH2 7468   6.817   0.086   2.898
 2528TIP3    H1 7469   6.749   0.017   2.905
 2528TIP3    H2 7470   6.894   0.043   2.943
 2529TIP3   OH2 7471   5.532   0.314   2.358
 2529TIP3    H1 7472   5.574   0.397   2.386
 2529TIP3    H2 7473   5.591   0.293   2.284
 2530TIP3   OH2 7474   5.449  -0.424   2.493
 2530TIP3    H1 7475   5.482  -0.333   2.480
 2530TIP3    H2 7476   5.358  -0.404   2.521
 2531TIP3   OH2 7477   6.788   1.038   2.842
 2531TIP3    H1 7478   6.744   1.086   2.767
 2531TIP3    H2 7479   6.882   1.058   2.820
 2532TIP3   OH2 7480   5.399   0.523   2.747
 2532TIP3    H1 7481   5.330   0.556   2.806
 2532TIP3    H2 7482   5.374   0.567   2.663
 2533TIP3   OH2 7483   5.560   1.070   3.823
 2533TIP3    H1 7484   5.646   1.070   3.869
 2533TIP3    H2 7485   5.541   0.975   3.820
 2534TIP3   OH2 7486   6.038   1.031   3.867
 2534TIP3    H1 7487   6.134   1.017   3.873
 2534TIP3    H2 7488   6.015   0.972   3.793
 2535TIP3   OH2 7489   6.013   0.611   2.007
 2535TIP3    H1 7490   5.969   0.526   2.026
 2535TIP3    H2 7491   6.093   0.582   1.957
 2536TIP3   OH2 7492   6.679   0.939   3.600
 2536TIP3    H1 7493   6.672   0.869   3.669
 2536TIP3    H2 7494   6.757   0.990   3.629
 2537TIP3   OH2 7495   6.481   0.605   1.907
 2537TIP3    H1 7496   6.533   0.658   1.969
 2537TIP3    H2 7497   6.503   0.646   1.821
 2538TIP3   OH2 7498   5.688   0.473   4.023
 2538TIP3    H1 7499   5.705   0.377   4.024
 2538TIP3    H2 7500   5.601   0.477   3.977
 2539TIP3   OH2 7501   5.656   0.079   2.205
 2539TIP3    H1 7502   5.707   0.082   2.289
 2539TIP3    H2 7503   5.731   0.096   2.142
 2540TIP3   OH2 7504   6.296   0.564   3.796
 2540TIP3    H1 7505   6.257   0.583   3.708
 2540TIP3    H2 7506   6.325   0.471   3.787
 2541TIP3   OH2 7507   6.130   0.311   2.036
 2541TIP3    H1 7508   6.172   0.328   2.123
 2541TIP3    H2 7509   6.149   0.217   2.021
 2542TIP3   OH2 7510   6.776   0.562   3.367
 2542TIP3    H1 7511   6.859   0.607   3.342
 2542TIP3    H2 7512   6.715   0.639   3.368
 2543TIP3   OH2 7513   5.809   0.199   4.007
 2543TIP3    H1 7514   5.891   0.153   3.982
 2543TIP3    H2 7515   5.836   0.236   4.094
 2544TIP3   OH2 7516   5.858   0.039   2.438
 2544TIP3    H1 7517   5.845  -0.000   2.526
 2544TIP3    H2 7518   5.902  -0.035   2.389
 2545TIP3   OH2 7519   6.140   0.109   3.659
 2545TIP3    H1 7520   6.058   0.163   3.665
 2545TIP3    H2 7521   6.183   0.145   3.578
 2546TIP3   OH2 7522   5.970  -0.163   2.290
 2546TIP3    H1 7523   5.969  -0.246   2.237
 2546TIP3    H2 7524   6.051  -0.120   2.257
 2547TIP3   OH2 7525   6.665   0.495   3.791
 2547TIP3    H1 7526   6.743   0.473   3.736
 2547TIP3    H2 7527   6.671   0.429   3.862
 2548TIP3   OH2 7528   6.248  -0.139   3.675
 2548TIP3    H1 7529   6.225  -0.151   3.768
 2548TIP3    H2 7530   6.207  -0.052   3.655
 2549TIP3   OH2 7531   6.307   0.204   3.463
 2549TIP3    H1 7532   6.385   0.224   3.410
 2549TIP3    H2 7533   6.243   0.270   3.427
 2550TIP3   OH2 7534   7.014   0.105   3.966
 2550TIP3    H1 7535   6.942   0.089   3.900
 2550TIP3    H2 7536   6.993   0.198   3.985
 2551TIP3   OH2 7537   6.889   0.486   3.609
 2551TIP3    H1 7538   6.834   0.504   3.530
 2551TIP3    H2 7539   6.976   0.476   3.565
 2552TIP3   OH2 7540   6.117   0.010   4.023
 2552TIP3    H1 7541   6.054  -0.058   3.996
 2552TIP3    H2 7542   6.200  -0.023   3.986
 2553TIP3   OH2 7543   6.605   0.051   3.923
 2553TIP3    H1 7544   6.552   0.031   4.003
 2553TIP3    H2 7545   6.629  -0.040   3.894
 2554TIP3   OH2 7546   5.787   0.878   2.182
 2554TIP3    H1 7547   5.883   0.875   2.164
 2554TIP3    H2 7548   5.758   0.930   2.104
 2555TIP3   OH2 7549   5.265   0.269   2.416
 2555TIP3    H1 7550   5.357   0.292   2.390
 2555TIP3    H2 7551   5.241   0.200   2.353
 2556TIP3   OH2 7552   5.175   0.879   2.814
 2556TIP3    H1 7553   5.110   0.817   2.774
 2556TIP3    H2 7554   5.221   0.820   2.877
 2557TIP3   OH2 7555   5.314   0.728   2.997
 2557TIP3    H1 7556   5.301   0.656   3.061
 2557TIP3    H2 7557   5.366   0.790   3.050
 2558TIP3   OH2 7558   7.041   1.127   2.800
 2558TIP3    H1 7559   7.070   1.168   2.883
 2558TIP3    H2 7560   7.100   1.169   2.735
 2559TIP3   OH2 7561   7.067   1.153   3.084
 2559TIP3    H1 7562   7.027   1.064   3.075
 2559TIP3    H2 7563   7.147   1.130   3.134
 2560TIP3   OH2 7564   7.120   0.825   3.658
 2560TIP3    H1 7565   7.044   0.835   3.719
 2560TIP3    H2 7566   7.159   0.915   3.660
 2561TIP3   OH2 7567   6.911   0.344   2.284
 2561TIP3    H1 7568   6.970   0.415   2.251
 2561TIP3    H2 7569   6.972   0.292   2.340
 2562TIP3   OH2 7570   7.063   0.193   2.474
 2562TIP3    H1 7571   6.994   0.160   2.535
 2562TIP3    H2 7572   7.127   0.235   2.535
 2563TIP3   OH2 7573   7.115   0.598   2.913
 2563TIP3    H1 7574   7.166   0.535   2.858
 2563TIP3    H2 7575   7.111   0.676   2.854
 2564TIP3   OH2 7576   6.945   0.898   3.106
 2564TIP3    H1 7577   6.874   0.946   3.153
 2564TIP3    H2 7578   6.896   0.854   3.033
 2565TIP3   OH2 7579   6.873   0.064   2.630
 2565TIP3    H1 7580   6.885  -0.032   2.622
 2565TIP3    H2 7581   6.860   0.076   2.726
 2566TIP3   OH2 7582   5.497   0.130   3.373
 2566TIP3    H1 7583   5.494   0.101   3.279
 2566TIP3    H2 7584   5.595   0.142   3.384
 2567TIP3   OH2 7585   7.138   0.485   3.484
 2567TIP3    H1 7586   7.191   0.404   3.467
 2567TIP3    H2 7587   7.172   0.547   3.417
 2568TIP3   OH2 7588   7.352   0.307   3.530
 2568TIP3    H1 7589   7.384   0.379   3.474
 2568TIP3    H2 7590   7.422   0.242   3.514
 2569TIP3   OH2 7591   7.037  -0.017   3.022
 2569TIP3    H1 7592   7.124   0.000   2.978
 2569TIP3    H2 7593   7.054   0.020   3.110
 2570TIP3   OH2 7594   7.100   0.100   3.255
 2570TIP3    H1 7595   7.018   0.142   3.287
 2570TIP3    H2 7596   7.143   0.177   3.214
 2571TIP3   OH2 7597   5.496  -0.207   3.454
 2571TIP3    H1 7598   5.540  -0.218   3.367
 2571TIP3    H2 7599   5.512  -0.113   3.470
 2572TIP3   OH2 7600   6.635   0.992   2.465
 2572TIP3    H1 7601   6.674   0.977   2.376
 2572TIP3    H2 7602   6.687   1.068   2.496
 2573TIP3   OH2 7603   5.726   0.798   3.840
 2573TIP3    H1 7604   5.632   0.775   3.825
 2573TIP3    H2 7605   5.734   0.788   3.935
 2574TIP3   OH2 7606   5.904   0.834   3.388
 2574TIP3    H1 7607   5.857   0.910   3.348
 2574TIP3    H2 7608   5.990   0.847   3.343
 2575TIP3   OH2 7609   6.347   1.077   3.525
 2575TIP3    H1 7610   6.389   1.078   3.614
 2575TIP3    H2 7611   6.413   1.128   3.473
 2576TIP3   OH2 7612   6.527   1.229   3.386
 2576TIP3    H1 7613   6.598   1.182   3.341
 2576TIP3    H2 7614   6.578   1.287   3.447
 2577TIP3   OH2 7615   5.579   1.088   3.414
 2577TIP3    H1 7616   5.490   1.122   3.388
 2577TIP3    H2 7617   5.590   1.132   3.499
 2578TIP3   OH2 7618   5.816   1.067   3.271
 2578TIP3    H1 7619   5.729   1.081   3.314
 2578TIP3    H2 7620   5.798   1.101   3.180
 2579TIP3   OH2 7621   6.241   1.095   3.071
 2579TIP3    H1 7622   6.175   1.115   3.001
 2579TIP3    H2 7623   6.254   1.184   3.110
 2580TIP3   OH2 7624   6.511   1.034   3.121
 2580TIP3    H1 7625   6.417   1.053   3.101
 2580TIP3    H2 7626   6.555   1.108   3.074
 2581TIP3   OH2 7627   6.716   1.228   3.033
 2581TIP3    H1 7628   6.702   1.313   2.987
 2581TIP3    H2 7629   6.743   1.169   2.959
 2582TIP3   OH2 7630   5.489   0.883   3.157
 2582TIP3    H1 7631   5.517   0.858   3.247
 2582TIP3    H2 7632   5.562   0.841   3.105
 2583TIP3   OH2 7633   5.684   0.756   3.015
 2583TIP3    H1 7634   5.702   0.672   3.064
 2583TIP3    H2 7635   5.774   0.794   3.009
 2584TIP3   OH2 7636   5.949   0.851   3.019
 2584TIP3    H1 7637   5.983   0.762   3.001
 2584TIP3    H2 7638   5.996   0.872   3.101
 2585TIP3   OH2 7639   5.279   0.659   2.547
 2585TIP3    H1 7640   5.192   0.628   2.514
 2585TIP3    H2 7641   5.272   0.752   2.518
 2586TIP3   OH2 7642   6.056   0.843   2.140
 2586TIP3    H1 7643   6.106   0.891   2.070
 2586TIP3    H2 7644   6.034   0.766   2.084
 2587TIP3   OH2 7645   6.769   0.962   2.225
 2587TIP3    H1 7646   6.756   0.865   2.210
 2587TIP3    H2 7647   6.724   0.998   2.146
 2588TIP3   OH2 7648   5.379   0.704   2.196
 2588TIP3    H1 7649   5.368   0.712   2.291
 2588TIP3    H2 7650   5.463   0.653   2.185
 2589TIP3   OH2 7651   6.995   1.106   3.411
 2589TIP3    H1 7652   6.917   1.076   3.360
 2589TIP3    H2 7653   6.978   1.203   3.413
 2590TIP3   OH2 7654   8.209   0.471   2.558
 2590TIP3    H1 7655   8.279   0.455   2.623
 2590TIP3    H2 7656   8.216   0.393   2.500
 2591TIP3   OH2 7657   7.560   0.384   2.934
 2591TIP3    H1 7658   7.600   0.313   2.988
 2591TIP3    H2 7659   7.639   0.431   2.904
 2592TIP3   OH2 7660   7.535   0.785   2.653
 2592TIP3    H1 7661   7.525   0.687   2.658
 2592TIP3    H2 7662   7.630   0.792   2.631
 2593TIP3   OH2 7663   7.302   0.275   2.605
 2593TIP3    H1 7664   7.367   0.214   2.645
 2593TIP3    H2 7665   7.351   0.311   2.530
 2594TIP3   OH2 7666   8.157   1.254   2.260
 2594TIP3    H1 7667   8.221   1.187   2.228
 2594TIP3    H2 7668   8.122   1.210   2.338
 2595TIP3   OH2 7669   8.056   0.704   2.614
 2595TIP3    H1 7670   8.095   0.624   2.572
 2595TIP3    H2 7671   8.138   0.754   2.631
 2596TIP3   OH2 7672   7.471   0.098   2.730
 2596TIP3    H1 7673   7.546   0.057   2.779
 2596TIP3    H2 7674   7.462   0.033   2.657
 2597TIP3   OH2 7675   7.912   0.624   2.835
 2597TIP3    H1 7676   7.851   0.694   2.869
 2597TIP3    H2 7677   7.952   0.670   2.758
 2598TIP3   OH2 7678   7.683  -0.040   2.827
 2598TIP3    H1 7679   7.751   0.027   2.850
 2598TIP3    H2 7680   7.730  -0.089   2.758
 2599TIP3   OH2 7681   7.744   0.819   2.932
 2599TIP3    H1 7682   7.718   0.901   2.886
 2599TIP3    H2 7683   7.664   0.806   2.987
 2600TIP3   OH2 7684   7.085   0.541   2.194
 2600TIP3    H1 7685   7.123   0.528   2.106
 2600TIP3    H2 7686   7.146   0.606   2.231
 2601TIP3   OH2 7687   8.574   1.024   2.419
 2601TIP3    H1 7688   8.481   1.013   2.450
 2601TIP3    H2 7689   8.566   1.108   2.371
 2602TIP3   OH2 7690   8.350   1.092   2.151
 2602TIP3    H1 7691   8.323   1.008   2.109
 2602TIP3    H2 7692   8.383   1.143   2.073
 2603TIP3   OH2 7693   8.674   0.460   2.877
 2603TIP3    H1 7694   8.675   0.532   2.942
 2603TIP3    H2 7695   8.586   0.471   2.837
 2604TIP3   OH2 7696   7.667   0.429   2.417
 2604TIP3    H1 7697   7.616   0.417   2.334
 2604TIP3    H2 7698   7.747   0.378   2.394
 2605TIP3   OH2 7699   7.793   0.809   2.545
 2605TIP3    H1 7700   7.775   0.786   2.452
 2605TIP3    H2 7701   7.885   0.778   2.556
 2606TIP3   OH2 7702   7.809   0.384   2.756
 2606TIP3    H1 7703   7.837   0.377   2.664
 2606TIP3    H2 7704   7.850   0.470   2.782
 2607TIP3   OH2 7705   8.327   1.020   2.526
 2607TIP3    H1 7706   8.311   1.102   2.576
 2607TIP3    H2 7707   8.308   0.949   2.591
 2608TIP3   OH2 7708   7.948   0.936   3.077
 2608TIP3    H1 7709   7.887   1.000   3.121
 2608TIP3    H2 7710   7.883   0.885   3.024
 2609TIP3   OH2 7711   7.694   0.501   3.181
 2609TIP3    H1 7712   7.699   0.586   3.230
 2609TIP3    H2 7713   7.603   0.503   3.149
 2610TIP3   OH2 7714   7.970   1.012   2.141
 2610TIP3    H1 7715   8.061   0.998   2.112
 2610TIP3    H2 7716   7.927   1.047   2.063
 2611TIP3   OH2 7717   7.743   1.106   3.161
 2611TIP3    H1 7718   7.709   1.108   3.069
 2611TIP3    H2 7719   7.663   1.083   3.212
 2612TIP3   OH2 7720   7.317   0.643   3.107
 2612TIP3    H1 7721   7.253   0.624   3.035
 2612TIP3    H2 7722   7.344   0.553   3.136
 2613TIP3   OH2 7723   7.175   0.825   2.752
 2613TIP3    H1 7724   7.269   0.826   2.730
 2613TIP3    H2 7725   7.165   0.911   2.795
 2614TIP3   OH2 7726   8.148   1.064   2.934
 2614TIP3    H1 7727   8.145   1.158   2.963
 2614TIP3    H2 7728   8.074   1.026   2.987
 2615TIP3   OH2 7729   7.904   1.196   1.884
 2615TIP3    H1 7730   7.839   1.170   1.818
 2615TIP3    H2 7731   7.877   1.287   1.909
 2616TIP3   OH2 7732   7.342   1.049   2.268
 2616TIP3    H1 7733   7.392   1.037   2.352
 2616TIP3    H2 7734   7.293   0.964   2.265
 2617TIP3   OH2 7735   8.162   1.145   1.828
 2617TIP3    H1 7736   8.070   1.170   1.851
 2617TIP3    H2 7737   8.147   1.073   1.765
 2618TIP3   OH2 7738   7.527   0.819   3.095
 2618TIP3    H1 7739   7.572   0.806   3.181
 2618TIP3    H2 7740   7.449   0.760   3.103
 2619TIP3   OH2 7741   7.854   0.158   2.905
 2619TIP3    H1 7742   7.797   0.185   2.980
 2619TIP3    H2 7743   7.846   0.236   2.846
 2620TIP3   OH2 7744   8.415   0.445   3.182
 2620TIP3    H1 7745   8.403   0.400   3.270
 2620TIP3    H2 7746   8.506   0.475   3.192
 2621TIP3   OH2 7747   7.676   0.199   3.108
 2621TIP3    H1 7748   7.705   0.248   3.187
 2621TIP3    H2 7749   7.629   0.123   3.145
 2622TIP3   OH2 7750   8.389   0.401   2.791
 2622TIP3    H1 7751   8.440   0.326   2.758
 2622TIP3    H2 7752   8.359   0.363   2.876
 2623TIP3   OH2 7753   8.724   1.638   2.891
 2623TIP3    H1 7754   8.723   1.654   2.794
 2623TIP3    H2 7755   8.787   1.705   2.920
 2624TIP3   OH2 7756   7.687   0.740   3.321
 2624TIP3    H1 7757   7.767   0.772   3.366
 2624TIP3    H2 7758   7.621   0.750   3.393
 2625TIP3   OH2 7759   8.107   0.059   2.946
 2625TIP3    H1 7760   8.036   0.104   2.898
 2625TIP3    H2 7761   8.179   0.124   2.942
 2626TIP3   OH2 7762   8.272   0.804   2.957
 2626TIP3    H1 7763   8.282   0.785   3.051
 2626TIP3    H2 7764   8.228   0.891   2.957
 2627TIP3   OH2 7765   7.547   0.505   2.649
 2627TIP3    H1 7766   7.586   0.488   2.560
 2627TIP3    H2 7767   7.592   0.437   2.701
 2628TIP3   OH2 7768   7.415   0.431   3.258
 2628TIP3    H1 7769   7.494   0.400   3.305
 2628TIP3    H2 7770   7.373   0.349   3.227
 2629TIP3   OH2 7771   8.160   0.542   3.264
 2629TIP3    H1 7772   8.092   0.486   3.222
 2629TIP3    H2 7773   8.239   0.518   3.213
 2630TIP3   OH2 7774   8.424   1.053   2.856
 2630TIP3    H1 7775   8.327   1.058   2.863
 2630TIP3    H2 7776   8.451   1.112   2.929
 2631TIP3   OH2 7777   7.655   0.813   2.269
 2631TIP3    H1 7778   7.669   0.890   2.211
 2631TIP3    H2 7779   7.563   0.793   2.249
 2632TIP3   OH2 7780   7.840   0.592   2.259
 2632TIP3    H1 7781   7.806   0.674   2.221
 2632TIP3    H2 7782   7.762   0.557   2.303
 2633TIP3   OH2 7783   7.926   1.153   2.726
 2633TIP3    H1 7784   7.964   1.226   2.673
 2633TIP3    H2 7785   8.006   1.120   2.771
 2634TIP3   OH2 7786   7.584   1.050   2.117
 2634TIP3    H1 7787   7.494   1.057   2.154
 2634TIP3    H2 7788   7.611   1.144   2.115
 2635TIP3   OH2 7789   8.309   0.789   2.687
 2635TIP3    H1 7790   8.304   0.789   2.785
 2635TIP3    H2 7791   8.390   0.739   2.671
 2636TIP3   OH2 7792   8.553   1.317   2.735
 2636TIP3    H1 7793   8.469   1.270   2.717
 2636TIP3    H2 7794   8.549   1.384   2.663
 2637TIP3   OH2 7795   7.363   1.019   2.886
 2637TIP3    H1 7796   7.419   0.944   2.913
 2637TIP3    H2 7797   7.398   1.089   2.942
 2638TIP3   OH2 7798   8.336   0.244   3.009
 2638TIP3    H1 7799   8.349   0.316   3.075
 2638TIP3    H2 7800   8.379   0.169   3.053
 2639TIP3   OH2 7801   7.533   0.950   1.852
 2639TIP3    H1 7802   7.557   1.027   1.798
 2639TIP3    H2 7803   7.575   0.970   1.938
 2640TIP3   OH2 7804   8.614   1.306   2.338
 2640TIP3    H1 7805   8.565   1.349   2.264
 2640TIP3    H2 7806   8.683   1.255   2.290
 2641TIP3   OH2 7807   7.206   0.799   2.241
 2641TIP3    H1 7808   7.124   0.818   2.288
 2641TIP3    H2 7809   7.181   0.827   2.150
 2642TIP3   OH2 7810   7.356   1.326   3.309
 2642TIP3    H1 7811   7.442   1.327   3.356
 2642TIP3    H2 7812   7.336   1.231   3.307
 2643TIP3   OH2 7813   7.835   1.287   3.355
 2643TIP3    H1 7814   7.930   1.274   3.359
 2643TIP3    H2 7815   7.811   1.228   3.280
 2644TIP3   OH2 7816   8.477   1.196   3.087
 2644TIP3    H1 7817   8.467   1.125   3.155
 2644TIP3    H2 7818   8.549   1.249   3.123
 2645TIP3   OH2 7819   7.484   0.734   3.508
 2645TIP3    H1 7820   7.496   0.639   3.518
 2645TIP3    H2 7821   7.397   0.739   3.464
 2646TIP3   OH2 7822   8.095   0.818   3.282
 2646TIP3    H1 7823   8.051   0.836   3.196
 2646TIP3    H2 7824   8.123   0.725   3.273
 2647TIP3   OH2 7825   8.592   0.828   2.882
 2647TIP3    H1 7826   8.639   0.872   2.810
 2647TIP3    H2 7827   8.512   0.884   2.887
 2648TIP3   OH2 7828   7.604   0.438   3.493
 2648TIP3    H1 7829   7.691   0.404   3.468
 2648TIP3    H2 7830   7.626   0.480   3.578
 2649TIP3   OH2 7831   7.944   0.397   3.137
 2649TIP3    H1 7832   7.858   0.445   3.136
 2649TIP3    H2 7833   7.988   0.426   3.054
 2650TIP3   OH2 7834   8.453   0.752   3.289
 2650TIP3    H1 7835   8.535   0.729   3.245
 2650TIP3    H2 7836   8.451   0.690   3.364
 2651TIP3   OH2 7837   7.994   0.180   3.278
 2651TIP3    H1 7838   8.026   0.113   3.215
 2651TIP3    H2 7839   7.970   0.254   3.218
 2652TIP3   OH2 7840   8.112   0.473   2.936
 2652TIP3    H1 7841   8.187   0.480   2.876
 2652TIP3    H2 7842   8.050   0.537   2.898
 2653TIP3   OH2 7843   8.678   0.436   3.338
 2653TIP3    H1 7844   8.721   0.350   3.330
 2653TIP3    H2 7845   8.748   0.499   3.317
 2654TIP3   OH2 7846   8.732   0.690   3.068
 2654TIP3    H1 7847   8.666   0.740   3.014
 2654TIP3    H2 7848   8.811   0.709   3.016
 2655TIP3   OH2 7849   7.912   0.282   3.517
 2655TIP3    H1 7850   7.843   0.214   3.518
 2655TIP3    H2 7851   7.957   0.257   3.434
 2656TIP3   OH2 7852   8.392   0.301   3.405
 2656TIP3    H1 7853   8.339   0.283   3.484
 2656TIP3    H2 7854   8.418   0.210   3.378
 2657TIP3   OH2 7855   7.592   1.159   1.673
 2657TIP3    H1 7856   7.647   1.238   1.682
 2657TIP3    H2 7857   7.538   1.188   1.597
 2658TIP3   OH2 7858   6.972   1.136   2.297
 2658TIP3    H1 7859   6.906   1.073   2.261
 2658TIP3    H2 7860   7.018   1.079   2.363
 2659TIP3   OH2 7861   7.104   0.990   2.487
 2659TIP3    H1 7862   7.096   0.913   2.544
 2659TIP3    H2 7863   7.161   1.048   2.541
 2660TIP3   OH2 7864   8.731   1.121   2.630
 2660TIP3    H1 7865   8.661   1.178   2.666
 2660TIP3    H2 7866   8.683   1.076   2.556
 2661TIP3   OH2 7867   7.295   0.388   2.859
 2661TIP3    H1 7868   7.293   0.362   2.765
 2661TIP3    H2 7869   7.392   0.396   2.873
 2662TIP3   OH2 7870   7.290   0.050   2.936
 2662TIP3    H1 7871   7.345   0.057   2.856
 2662TIP3    H2 7872   7.302   0.138   2.974
 2663TIP3   OH2 7873   8.456   1.237   1.935
 2663TIP3    H1 7874   8.441   1.240   1.838
 2663TIP3    H2 7875   8.458   1.331   1.956
 2664TIP3   OH2 7876   7.523   1.051   3.327
 2664TIP3    H1 7877   7.429   1.030   3.312
 2664TIP3    H2 7878   7.529   1.045   3.423
 2665TIP3   OH2 7879   7.701   1.092   2.876
 2665TIP3    H1 7880   7.652   1.167   2.836
 2665TIP3    H2 7881   7.786   1.105   2.830
 2666TIP3   OH2 7882   8.143   1.332   3.012
 2666TIP3    H1 7883   8.185   1.335   3.100
 2666TIP3    H2 7884   8.208   1.384   2.959
 2667TIP3   OH2 7885   8.321   1.485   2.873
 2667TIP3    H1 7886   8.391   1.439   2.825
 2667TIP3    H2 7887   8.374   1.543   2.933
 2668TIP3   OH2 7888   7.376   1.345   2.901
 2668TIP3    H1 7889   7.287   1.378   2.875
 2668TIP3    H2 7890   7.386   1.390   2.986
 2669TIP3   OH2 7891   7.613   1.326   2.758
 2669TIP3    H1 7892   7.525   1.339   2.801
 2669TIP3    H2 7893   7.594   1.356   2.667
 2670TIP3   OH2 7894   8.036   1.352   2.557
 2670TIP3    H1 7895   7.969   1.371   2.488
 2670TIP3    H2 7896   8.050   1.441   2.595
 2671TIP3   OH2 7897   8.305   1.291   2.609
 2671TIP3    H1 7898   8.211   1.308   2.586
 2671TIP3    H2 7899   8.349   1.363   2.562
 2672TIP3   OH2 7900   8.509   1.480   2.525
 2672TIP3    H1 7901   8.491   1.567   2.482
 2672TIP3    H2 7902   8.543   1.427   2.449
 2673TIP3   OH2 7903   7.285   1.140   2.644
 2673TIP3    H1 7904   7.314   1.115   2.735
 2673TIP3    H2 7905   7.358   1.098   2.592
 2674TIP3   OH2 7906   7.480   1.014   2.503
 2674TIP3    H1 7907   7.499   0.928   2.548
 2674TIP3    H2 7908   7.570   1.051   2.494
 2675TIP3   OH2 7909   7.745   1.113   2.502
 2675TIP3    H1 7910   7.781   1.028   2.471
 2675TIP3    H2 7911   7.793   1.122   2.587
 2676TIP3   OH2 7912   7.072   0.910   2.034
 2676TIP3    H1 7913   6.985   0.882   2.000
 2676TIP3    H2 7914   7.067   1.005   2.013
 2677TIP3   OH2 7915   7.171   0.966   1.697
 2677TIP3    H1 7916   7.150   1.002   1.785
 2677TIP3    H2 7917   7.249   0.909   1.717
 2678TIP3   OH2 7918   8.760   1.368   2.913
 2678TIP3    H1 7919   8.694   1.329   2.851
 2678TIP3    H2 7920   8.739   1.463   2.902
 2679TIP3   OH2 7921   0.964   1.549   3.938
 2679TIP3    H1 7922   0.955   1.499   4.020
 2679TIP3    H2 7923   0.986   1.637   3.971
 2680TIP3   OH2 7924   0.605   2.030   3.948
 2680TIP3    H1 7925   0.648   1.958   3.897
 2680TIP3    H2 7926   0.583   1.986   4.030
 2681TIP3   OH2 7927   0.516   1.485   4.325
 2681TIP3    H1 7928   0.509   1.454   4.234
 2681TIP3    H2 7929   0.607   1.519   4.330
 2682TIP3   OH2 7930   1.526   0.812   4.296
 2682TIP3    H1 7931   1.558   0.896   4.335
 2682TIP3    H2 7932   1.552   0.823   4.203
 2683TIP3   OH2 7933   1.602   1.021   4.466
 2683TIP3    H1 7934   1.520   1.070   4.445
 2683TIP3    H2 7935   1.619   1.052   4.556
 2684TIP3   OH2 7936   0.371   1.415   4.544
 2684TIP3    H1 7937   0.302   1.483   4.560
 2684TIP3    H2 7938   0.413   1.446   4.461
 2685TIP3   OH2 7939   0.188   1.612   4.620
 2685TIP3    H1 7940   0.165   1.702   4.589
 2685TIP3    H2 7941   0.108   1.589   4.672
 2686TIP3   OH2 7942   1.031   1.813   4.093
 2686TIP3    H1 7943   0.942   1.805   4.134
 2686TIP3    H2 7944   1.022   1.901   4.050
 2687TIP3   OH2 7945   1.322   0.713   4.460
 2687TIP3    H1 7946   1.244   0.767   4.441
 2687TIP3    H2 7947   1.384   0.742   4.390
 2688TIP3   OH2 7948   0.746   1.856   3.787
 2688TIP3    H1 7949   0.819   1.793   3.780
 2688TIP3    H2 7950   0.782   1.929   3.731
 2689TIP3   OH2 7951   1.254   1.726   4.441
 2689TIP3    H1 7952   1.243   1.649   4.381
 2689TIP3    H2 7953   1.236   1.801   4.380
 2690TIP3   OH2 7954   1.449   1.364   4.287
 2690TIP3    H1 7955   1.366   1.416   4.290
 2690TIP3    H2 7956   1.479   1.387   4.196
 2691TIP3   OH2 7957   1.136   1.244   4.583
 2691TIP3    H1 7958   1.128   1.328   4.630
 2691TIP3    H2 7959   1.048   1.239   4.539
 2692TIP3   OH2 7960   0.793   1.809   4.220
 2692TIP3    H1 7961   0.773   1.889   4.272
 2692TIP3    H2 7962   0.774   1.736   4.282
 2693TIP3   OH2 7963   0.397   1.728   4.757
 2693TIP3    H1 7964   0.330   1.775   4.809
 2693TIP3    H2 7965   0.339   1.671   4.702
 2694TIP3   OH2 7966   0.150   1.283   4.865
 2694TIP3    H1 7967   0.152   1.373   4.902
 2694TIP3    H2 7968   0.062   1.278   4.827
 2695TIP3   OH2 7969   1.491   2.071   4.488
 2695TIP3    H1 7970   1.489   1.974   4.500
 2695TIP3    H2 7971   1.407   2.096   4.533
 2696TIP3   OH2 7972   0.601   1.856   4.625
 2696TIP3    H1 7973   0.594   1.947   4.659
 2696TIP3    H2 7974   0.526   1.813   4.671
 2697TIP3   OH2 7975   1.380   1.202   4.761
 2697TIP3    H1 7976   1.299   1.213   4.709
 2697TIP3    H2 7977   1.395   1.106   4.752
 2698TIP3   OH2 7978  -0.027   1.577   4.792
 2698TIP3    H1 7979   0.030   1.591   4.870
 2698TIP3    H2 7980  -0.109   1.548   4.834
 2699TIP3   OH2 7981   0.915   0.561   4.774
 2699TIP3    H1 7982   0.995   0.525   4.819
 2699TIP3    H2 7983   0.845   0.533   4.833
 2700TIP3   OH2 7984   1.156   0.978   4.682
 2700TIP3    H1 7985   1.103   0.970   4.764
 2700TIP3    H2 7986   1.125   1.063   4.646
 2701TIP3   OH2 7987   0.861   1.210   4.930
 2701TIP3    H1 7988   0.843   1.130   4.985
 2701TIP3    H2 7989   0.957   1.216   4.938
 2702TIP3   OH2 7990   0.883   1.201   4.483
 2702TIP3    H1 7991   0.866   1.128   4.423
 2702TIP3    H2 7992   0.847   1.162   4.567
 2703TIP3   OH2 7993   1.181   2.422   4.585
 2703TIP3    H1 7994   1.178   2.442   4.489
 2703TIP3    H2 7995   1.263   2.469   4.612
 2704TIP3   OH2 7996   0.152   1.535   5.005
 2704TIP3    H1 7997   0.239   1.572   5.029
 2704TIP3    H2 7998   0.112   1.533   5.093
 2705TIP3   OH2 7999   1.218   1.511   4.274
 2705TIP3    H1 8000   1.245   1.561   4.194
 2705TIP3    H2 8001   1.132   1.474   4.247
 2706TIP3   OH2 8002   0.728   1.597   4.638
 2706TIP3    H1 8003   0.732   1.559   4.727
 2706TIP3    H2 8004   0.681   1.681   4.652
 2707TIP3   OH2 8005   0.611   1.330   4.960
 2707TIP3    H1 8006   0.549   1.274   4.909
 2707TIP3    H2 8007   0.697   1.295   4.927
 2708TIP3   OH2 8008   0.880   1.852   4.541
 2708TIP3    H1 8009   0.784   1.844   4.553
 2708TIP3    H2 8010   0.904   1.905   4.620
 2709TIP3   OH2 8011   1.505   1.780   4.528
 2709TIP3    H1 8012   1.407   1.774   4.520
 2709TIP3    H2 8013   1.531   1.750   4.438
 2710TIP3   OH2 8014   0.983   1.384   4.198
 2710TIP3    H1 8015   0.897   1.364   4.238
 2710TIP3    H2 8016   1.016   1.292   4.184
 2711TIP3   OH2 8017   0.387   1.945   4.426
 2711TIP3    H1 8018   0.416   2.014   4.363
 2711TIP3    H2 8019   0.471   1.905   4.452
 2712TIP3   OH2 8020   0.777   1.568   4.373
 2712TIP3    H1 8021   0.760   1.574   4.470
 2712TIP3    H2 8022   0.868   1.536   4.374
 2713TIP3   OH2 8023   1.016   2.111   4.424
 2713TIP3    H1 8024   0.936   2.056   4.415
 2713TIP3    H2 8025   1.002   2.176   4.352
 2714TIP3   OH2 8026  -0.195   1.796   4.638
 2714TIP3    H1 8027  -0.132   1.727   4.616
 2714TIP3    H2 8028  -0.142   1.876   4.631
 2715TIP3   OH2 8029   0.927   0.797   4.632
 2715TIP3    H1 8030   1.016   0.822   4.659
 2715TIP3    H2 8031   0.917   0.709   4.673
 2716TIP3   OH2 8032   0.804   1.055   4.691
 2716TIP3    H1 8033   0.798   1.084   4.784
 2716TIP3    H2 8034   0.823   0.960   4.698
 2717TIP3   OH2 8035   1.421   0.933   4.684
 2717TIP3    H1 8036   1.323   0.933   4.690
 2717TIP3    H2 8037   1.433   0.900   4.594
 2718TIP3   OH2 8038   1.039   1.121   4.154
 2718TIP3    H1 8039   0.989   1.041   4.131
 2718TIP3    H2 8040   1.129   1.083   4.169
 2719TIP3   OH2 8041   1.038   2.082   4.021
 2719TIP3    H1 8042   0.995   2.128   3.946
 2719TIP3    H2 8043   1.132   2.099   3.998
 2720TIP3   OH2 8044  -0.169   2.124   4.980
 2720TIP3    H1 8045  -0.099   2.122   5.049
 2720TIP3    H2 8046  -0.209   2.037   4.990
 2721TIP3   OH2 8047   0.922   1.988   4.780
 2721TIP3    H1 8048   0.916   1.915   4.846
 2721TIP3    H2 8049   1.003   2.034   4.807
 2722TIP3   OH2 8050   0.544   1.602   4.968
 2722TIP3    H1 8051   0.506   1.615   4.879
 2722TIP3    H2 8052   0.575   1.509   4.963
 2723TIP3   OH2 8053   1.040   1.610   4.576
 2723TIP3    H1 8054   1.113   1.659   4.533
 2723TIP3    H2 8055   0.967   1.675   4.568
 2724TIP3   OH2 8056   0.400   1.151   4.857
 2724TIP3    H1 8057   0.310   1.189   4.847
 2724TIP3    H2 8058   0.442   1.175   4.772
 2725TIP3   OH2 8059   0.912   1.542   4.978
 2725TIP3    H1 8060   0.985   1.512   4.922
 2725TIP3    H2 8061   0.905   1.469   5.042
 2726TIP3   OH2 8062   0.549   0.940   4.957
 2726TIP3    H1 8063   0.492   0.874   4.912
 2726TIP3    H2 8064   0.497   1.020   4.935
 2727TIP3   OH2 8065   0.554   1.257   4.662
 2727TIP3    H1 8066   0.622   1.247   4.595
 2727TIP3    H2 8067   0.490   1.317   4.616
 2728TIP3   OH2 8068   1.130   1.217   5.032
 2728TIP3    H1 8069   1.174   1.130   5.031
 2728TIP3    H2 8070   1.198   1.274   4.993
 2729TIP3   OH2 8071   1.168   1.471   4.768
 2729TIP3    H1 8072   1.110   1.523   4.707
 2729TIP3    H2 8073   1.256   1.489   4.728
 2730TIP3   OH2 8074   0.798   0.980   5.060
 2730TIP3    H1 8075   0.786   0.982   5.156
 2730TIP3    H2 8076   0.707   0.962   5.026
 2731TIP3   OH2 8077   1.028   0.936   4.913
 2731TIP3    H1 8078   0.949   0.936   4.971
 2731TIP3    H2 8079   1.097   0.900   4.972
 2732TIP3   OH2 8080   1.252   0.871   5.067
 2732TIP3    H1 8081   1.262   0.775   5.084
 2732TIP3    H2 8082   1.244   0.909   5.157
 2733TIP3   OH2 8083   1.295   2.165   3.978
 2733TIP3    H1 8084   1.317   2.207   4.062
 2733TIP3    H2 8085   1.338   2.222   3.913
 2734TIP3   OH2 8086   1.317   2.196   4.261
 2734TIP3    H1 8087   1.273   2.109   4.252
 2734TIP3    H2 8088   1.394   2.170   4.314
 2735TIP3   OH2 8089   1.365   1.872   4.831
 2735TIP3    H1 8090   1.292   1.881   4.896
 2735TIP3    H2 8091   1.407   1.960   4.836
 2736TIP3   OH2 8092   1.317   1.254   3.638
 2736TIP3    H1 8093   1.257   1.209   3.698
 2736TIP3    H2 8094   1.387   1.286   3.697
 2737TIP3   OH2 8095   1.366   1.645   4.087
 2737TIP3    H1 8096   1.416   1.580   4.035
 2737TIP3    H2 8097   1.359   1.720   4.025
 2738TIP3   OH2 8098   1.194   1.944   4.282
 2738TIP3    H1 8099   1.121   1.988   4.330
 2738TIP3    H2 8100   1.146   1.899   4.209
 2739TIP3   OH2 8101   1.412   1.534   4.659
 2739TIP3    H1 8102   1.484   1.468   4.648
 2739TIP3    H2 8103   1.436   1.602   4.594
 2740TIP3   OH2 8104   1.596   1.338   4.671
 2740TIP3    H1 8105   1.521   1.288   4.711
 2740TIP3    H2 8106   1.669   1.274   4.688
 2741TIP3   OH2 8107   1.284   1.010   4.196
 2741TIP3    H1 8108   1.369   1.027   4.150
 2741TIP3    H2 8109   1.308   1.044   4.285
 2742TIP3   OH2 8110   1.355   1.146   4.427
 2742TIP3    H1 8111   1.276   1.180   4.475
 2742TIP3    H2 8112   1.385   1.227   4.380
 2743TIP3   OH2 8113   1.803   0.735   4.979
 2743TIP3    H1 8114   1.861   0.669   4.935
 2743TIP3    H2 8115   1.772   0.788   4.903
 2744TIP3   OH2 8116   1.672   0.872   4.785
 2744TIP3    H1 8117   1.585   0.914   4.801
 2744TIP3    H2 8118   1.645   0.800   4.725
 2745TIP3   OH2 8119   0.893   2.031   3.642
 2745TIP3    H1 8120   0.929   2.033   3.551
 2745TIP3    H2 8121   0.919   2.118   3.676
 2746TIP3   OH2 8122  -0.029   1.794   5.047
 2746TIP3    H1 8123  -0.117   1.787   5.008
 2746TIP3    H2 8124  -0.042   1.845   5.127
 2747TIP3   OH2 8125   0.155   1.877   4.557
 2747TIP3    H1 8126   0.108   1.955   4.522
 2747TIP3    H2 8127   0.241   1.892   4.513
 2748TIP3   OH2 8128   0.559   2.141   4.720
 2748TIP3    H1 8129   0.615   2.125   4.800
 2748TIP3    H2 8130   0.629   2.177   4.661
 2749TIP3   OH2 8131   0.761   2.266   4.572
 2749TIP3    H1 8132   0.825   2.218   4.518
 2749TIP3    H2 8133   0.821   2.321   4.627
 2750TIP3   OH2 8134   1.574   0.636   4.662
 2750TIP3    H1 8135   1.483   0.630   4.627
 2750TIP3    H2 8136   1.605   0.544   4.651
 2751TIP3   OH2 8137  -0.170   2.144   4.588
 2751TIP3    H1 8138  -0.261   2.174   4.567
 2751TIP3    H2 8139  -0.169   2.156   4.684
 2752TIP3   OH2 8140   0.074   2.122   4.456
 2752TIP3    H1 8141  -0.017   2.134   4.492
 2752TIP3    H2 8142   0.058   2.133   4.360
 2753TIP3   OH2 8143   0.490   2.137   4.251
 2753TIP3    H1 8144   0.420   2.150   4.183
 2753TIP3    H2 8145   0.505   2.230   4.277
 2754TIP3   OH2 8146   0.759   2.085   4.303
 2754TIP3    H1 8147   0.665   2.097   4.278
 2754TIP3    H2 8148   0.802   2.149   4.244
 2755TIP3   OH2 8149   0.970   2.275   4.208
 2755TIP3    H1 8150   0.953   2.359   4.160
 2755TIP3    H2 8151   0.994   2.215   4.135
 2756TIP3   OH2 8152   0.184   1.924   4.206
 2756TIP3    H1 8153   0.192   1.858   4.134
 2756TIP3    H2 8154   0.250   1.895   4.270
 2757TIP3   OH2 8155   1.007   2.007   3.384
 2757TIP3    H1 8156   0.992   1.914   3.361
 2757TIP3    H2 8157   0.963   2.052   3.309
 2758TIP3   OH2 8158   1.304   0.600   5.097
 2758TIP3    H1 8159   1.326   0.568   5.187
 2758TIP3    H2 8160   1.390   0.594   5.052
 2759TIP3   OH2 8161   1.242   2.152   4.589
 2759TIP3    H1 8162   1.166   2.120   4.536
 2759TIP3    H2 8163   1.224   2.248   4.590
 2760TIP3   OH2 8164   2.514   1.527   3.355
 2760TIP3    H1 8165   2.484   1.617   3.335
 2760TIP3    H2 8166   2.442   1.475   3.314
 2761TIP3   OH2 8167   2.513   1.524   3.735
 2761TIP3    H1 8168   2.543   1.497   3.823
 2761TIP3    H2 8169   2.469   1.444   3.703
 2762TIP3   OH2 8170   1.811   1.419   4.098
 2762TIP3    H1 8171   1.841   1.351   4.161
 2762TIP3    H2 8172   1.888   1.476   4.094
 2763TIP3   OH2 8173   2.758   1.825   3.416
 2763TIP3    H1 8174   2.738   1.759   3.483
 2763TIP3    H2 8175   2.783   1.902   3.470
 2764TIP3   OH2 8176   1.782   1.830   3.823
 2764TIP3    H1 8177   1.773   1.733   3.825
 2764TIP3    H2 8178   1.879   1.838   3.823
 2765TIP3   OH2 8179   1.549   1.320   3.783
 2765TIP3    H1 8180   1.599   1.243   3.818
 2765TIP3    H2 8181   1.595   1.337   3.699
 2766TIP3   OH2 8182   2.399   2.286   3.427
 2766TIP3    H1 8183   2.448   2.213   3.383
 2766TIP3    H2 8184   2.395   2.255   3.519
 2767TIP3   OH2 8185   2.309   1.750   3.783
 2767TIP3    H1 8186   2.347   1.675   3.736
 2767TIP3    H2 8187   2.392   1.796   3.808
 2768TIP3   OH2 8188   3.325   1.070   3.780
 2768TIP3    H1 8189   3.351   1.152   3.826
 2768TIP3    H2 8190   3.345   1.093   3.688
 2769TIP3   OH2 8191   2.723   1.251   3.814
 2769TIP3    H1 8192   2.763   1.164   3.834
 2769TIP3    H2 8193   2.691   1.237   3.723
 2770TIP3   OH2 8194   2.065   0.913   3.781
 2770TIP3    H1 8195   2.036   0.982   3.718
 2770TIP3    H2 8196   2.019   0.834   3.744
 2771TIP3   OH2 8197   2.755   0.993   3.405
 2771TIP3    H1 8198   2.830   0.986   3.469
 2771TIP3    H2 8199   2.799   1.040   3.332
 2772TIP3   OH2 8200   1.695   1.113   3.889
 2772TIP3    H1 8201   1.777   1.095   3.939
 2772TIP3    H2 8202   1.710   1.054   3.812
 2773TIP3   OH2 8203   2.133   1.310   3.679
 2773TIP3    H1 8204   2.227   1.285   3.693
 2773TIP3    H2 8205   2.094   1.225   3.649
 2774TIP3   OH2 8206   3.394   1.276   3.951
 2774TIP3    H1 8207   3.310   1.324   3.932
 2774TIP3    H2 8208   3.411   1.306   4.042
 2775TIP3   OH2 8209   2.056   0.893   4.214
 2775TIP3    H1 8210   1.995   0.930   4.147
 2775TIP3    H2 8211   2.004   0.911   4.296
 2776TIP3   OH2 8212   2.408   1.749   3.221
 2776TIP3    H1 8213   2.365   1.723   3.138
 2776TIP3    H2 8214   2.358   1.829   3.244
 2777TIP3   OH2 8215   2.163   1.670   4.009
 2777TIP3    H1 8216   2.100   1.736   4.047
 2777TIP3    H2 8217   2.205   1.721   3.937
 2778TIP3   OH2 8218   2.965   1.004   3.576
 2778TIP3    H1 8219   2.943   0.963   3.661
 2778TIP3    H2 8220   3.014   1.084   3.604
 2779TIP3   OH2 8221   1.928   1.009   3.999
 2779TIP3    H1 8222   1.989   1.082   4.023
 2779TIP3    H2 8223   1.978   0.970   3.923
 2780TIP3   OH2 8224   1.990   1.864   4.106
 2780TIP3    H1 8225   1.965   1.952   4.069
 2780TIP3    H2 8226   1.911   1.848   4.162
 2781TIP3   OH2 8227   1.391   1.562   3.349
 2781TIP3    H1 8228   1.355   1.591   3.265
 2781TIP3    H2 8229   1.426   1.646   3.385
 2782TIP3   OH2 8230   2.825   2.069   3.581
 2782TIP3    H1 8231   2.736   2.061   3.622
 2782TIP3    H2 8232   2.817   2.156   3.537
 2783TIP3   OH2 8233   3.116   0.968   3.945
 2783TIP3    H1 8234   3.028   0.999   3.917
 2783TIP3    H2 8235   3.174   1.002   3.874
 2784TIP3   OH2 8236   2.413   0.612   3.929
 2784TIP3    H1 8237   2.399   0.517   3.951
 2784TIP3    H2 8238   2.335   0.652   3.973
 2785TIP3   OH2 8239   2.525   2.111   3.255
 2785TIP3    H1 8240   2.578   2.030   3.233
 2785TIP3    H2 8241   2.586   2.179   3.217
 2786TIP3   OH2 8242   2.672   1.896   3.164
 2786TIP3    H1 8243   2.619   1.821   3.134
 2786TIP3    H2 8244   2.707   1.863   3.250
 2787TIP3   OH2 8245   3.057   1.981   3.929
 2787TIP3    H1 8246   3.042   1.905   3.870
 2787TIP3    H2 8247   3.035   2.057   3.870
 2788TIP3   OH2 8248   2.347   1.387   3.187
 2788TIP3    H1 8249   2.260   1.425   3.166
 2788TIP3    H2 8250   2.384   1.372   3.098
 2789TIP3   OH2 8251   2.344   1.117   3.018
 2789TIP3    H1 8252   2.407   1.190   3.004
 2789TIP3    H2 8253   2.325   1.092   2.926
 2790TIP3   OH2 8254   3.245   1.617   3.770
 2790TIP3    H1 8255   3.162   1.670   3.776
 2790TIP3    H2 8256   3.273   1.641   3.680
 2791TIP3   OH2 8257   2.693   1.469   3.156
 2791TIP3    H1 8258   2.638   1.488   3.236
 2791TIP3    H2 8259   2.775   1.435   3.199
 2792TIP3   OH2 8260   2.924   1.497   4.068
 2792TIP3    H1 8261   2.920   1.580   4.120
 2792TIP3    H2 8262   2.837   1.501   4.023
 2793TIP3   OH2 8263   1.921   1.451   3.570
 2793TIP3    H1 8264   1.884   1.391   3.503
 2793TIP3    H2 8265   1.999   1.401   3.602
 2794TIP3   OH2 8266   2.056   1.870   3.717
 2794TIP3    H1 8267   2.034   1.817   3.640
 2794TIP3    H2 8268   2.145   1.836   3.739
 2795TIP3   OH2 8269   2.063   1.425   3.928
 2795TIP3    H1 8270   2.092   1.406   3.837
 2795TIP3    H2 8271   2.102   1.513   3.946
 2796TIP3   OH2 8272   2.585   2.064   3.704
 2796TIP3    H1 8273   2.569   2.146   3.755
 2796TIP3    H2 8274   2.568   1.993   3.768
 2797TIP3   OH2 8275   2.196   1.983   4.251
 2797TIP3    H1 8276   2.137   2.046   4.297
 2797TIP3    H2 8277   2.130   1.931   4.201
 2798TIP3   OH2 8278   2.542   1.313   2.987
 2798TIP3    H1 8279   2.596   1.378   3.036
 2798TIP3    H2 8280   2.558   1.340   2.894
 2799TIP3   OH2 8281   1.951   1.539   4.353
 2799TIP3    H1 8282   1.955   1.627   4.396
 2799TIP3    H2 8283   1.855   1.519   4.364
 2800TIP3   OH2 8284   2.268   2.002   3.255
 2800TIP3    H1 8285   2.355   2.044   3.272
 2800TIP3    H2 8286   2.216   2.077   3.221
 2801TIP3   OH2 8287   1.990   2.151   4.338
 2801TIP3    H1 8288   1.956   2.152   4.246
 2801TIP3    H2 8289   1.910   2.130   4.390
 2802TIP3   OH2 8290   3.051   0.556   3.032
 2802TIP3    H1 8291   2.964   0.574   3.072
 2802TIP3    H2 8292   3.067   0.639   2.981
 2803TIP3   OH2 8293   1.794   1.284   3.372
 2803TIP3    H1 8294   1.728   1.349   3.338
 2803TIP3    H2 8295   1.737   1.214   3.407
 2804TIP3   OH2 8296   2.844   1.924   2.581
 2804TIP3    H1 8297   2.851   2.021   2.564
 2804TIP3    H2 8298   2.937   1.896   2.569
 2805TIP3   OH2 8299   1.569   1.683   4.285
 2805TIP3    H1 8300   1.503   1.663   4.215
 2805TIP3    H2 8301   1.605   1.595   4.306
 2806TIP3   OH2 8302   1.421   1.875   3.920
 2806TIP3    H1 8303   1.517   1.876   3.911
 2806TIP3    H2 8304   1.405   1.958   3.968
 2807TIP3   OH2 8305   3.289   2.331   3.981
 2807TIP3    H1 8306   3.284   2.234   3.985
 2807TIP3    H2 8307   3.203   2.355   4.022
 2808TIP3   OH2 8308   2.394   2.112   4.108
 2808TIP3    H1 8309   2.392   2.205   4.140
 2808TIP3    H2 8310   2.322   2.072   4.162
 2809TIP3   OH2 8311   2.138   2.234   3.062
 2809TIP3    H1 8312   2.114   2.232   2.968
 2809TIP3    H2 8313   2.120   2.327   3.087
 2810TIP3   OH2 8314   1.599   2.084   3.440
 2810TIP3    H1 8315   1.638   2.077   3.531
 2810TIP3    H2 8316   1.536   2.010   3.442
 2811TIP3   OH2 8317   2.352   2.139   2.702
 2811TIP3    H1 8318   2.413   2.072   2.664
 2811TIP3    H2 8319   2.391   2.153   2.791
 2812TIP3   OH2 8320   2.400   2.193   2.974
 2812TIP3    H1 8321   2.315   2.196   3.021
 2812TIP3    H2 8322   2.459   2.159   3.043
 2813TIP3   OH2 8323   3.178   1.458   4.247
 2813TIP3    H1 8324   3.094   1.470   4.201
 2813TIP3    H2 8325   3.191   1.362   4.238
 2814TIP3   OH2 8326   1.774   1.865   4.272
 2814TIP3    H1 8327   1.824   1.848   4.355
 2814TIP3    H2 8328   1.700   1.802   4.280
 2815TIP3   OH2 8329   2.173   0.689   4.057
 2815TIP3    H1 8330   2.084   0.658   4.029
 2815TIP3    H2 8331   2.147   0.770   4.104
 2816TIP3   OH2 8332   2.707   0.803   4.252
 2816TIP3    H1 8333   2.775   0.777   4.317
 2816TIP3    H2 8334   2.623   0.784   4.298
 2817TIP3   OH2 8335   2.948   1.235   4.171
 2817TIP3    H1 8336   2.896   1.230   4.255
 2817TIP3    H2 8337   2.920   1.321   4.135
 2818TIP3   OH2 8338   2.612   1.361   2.725
 2818TIP3    H1 8339   2.583   1.347   2.633
 2818TIP3    H2 8340   2.694   1.412   2.711
 2819TIP3   OH2 8341   2.107   1.204   4.077
 2819TIP3    H1 8342   2.055   1.225   4.158
 2819TIP3    H2 8343   2.091   1.285   4.023
 2820TIP3   OH2 8344   1.987   1.090   3.592
 2820TIP3    H1 8345   1.892   1.071   3.599
 2820TIP3    H2 8346   2.008   1.051   3.504
 2821TIP3   OH2 8347   2.484   1.186   3.317
 2821TIP3    H1 8348   2.427   1.255   3.276
 2821TIP3    H2 8349   2.531   1.151   3.238
 2822TIP3   OH2 8350   2.654   1.453   4.401
 2822TIP3    H1 8351   2.631   1.381   4.465
 2822TIP3    H2 8352   2.746   1.470   4.426
 2823TIP3   OH2 8353   2.637   1.205   3.556
 2823TIP3    H1 8354   2.579   1.238   3.485
 2823TIP3    H2 8355   2.666   1.122   3.512
 2824TIP3   OH2 8356   1.925   1.233   4.284
 2824TIP3    H1 8357   1.949   1.297   4.352
 2824TIP3    H2 8358   1.912   1.152   4.336
 2825TIP3   OH2 8359   2.649   1.451   3.979
 2825TIP3    H1 8360   2.681   1.379   3.920
 2825TIP3    H2 8361   2.618   1.398   4.056
 2826TIP3   OH2 8362   2.321   0.910   3.653
 2826TIP3    H1 8363   2.236   0.911   3.702
 2826TIP3    H2 8364   2.385   0.914   3.726
 2827TIP3   OH2 8365   1.749   0.960   3.668
 2827TIP3    H1 8366   1.664   0.975   3.621
 2827TIP3    H2 8367   1.775   0.874   3.633
 2828TIP3   OH2 8368   2.061   0.981   3.358
 2828TIP3    H1 8369   2.153   0.990   3.329
 2828TIP3    H2 8370   2.010   1.012   3.282
 2829TIP3   OH2 8371   2.807   0.986   3.849
 2829TIP3    H1 8372   2.778   1.000   3.942
 2829TIP3    H2 8373   2.736   0.927   3.818
 2830TIP3   OH2 8374   2.979   2.674   4.072
 2830TIP3    H1 8375   2.975   2.701   3.979
 2830TIP3    H2 8376   3.058   2.723   4.103
 2831TIP3   OH2 8377   1.936   1.787   4.494
 2831TIP3    H1 8378   2.016   1.817   4.542
 2831TIP3    H2 8379   1.871   1.787   4.567
 2832TIP3   OH2 8380   2.397   1.241   3.750
 2832TIP3    H1 8381   2.472   1.201   3.702
 2832TIP3    H2 8382   2.405   1.200   3.838
 2833TIP3   OH2 8383   1.953   0.705   3.641
 2833TIP3    H1 8384   1.967   0.612   3.662
 2833TIP3    H2 8385   2.001   0.712   3.557
 2834TIP3   OH2 8386   2.376   1.140   4.037
 2834TIP3    H1 8387   2.286   1.174   4.052
 2834TIP3    H2 8388   2.432   1.201   4.088
 2835TIP3   OH2 8389   2.110   1.548   3.135
 2835TIP3    H1 8390   2.066   1.460   3.139
 2835TIP3    H2 8391   2.099   1.576   3.229
 2836TIP3   OH2 8392   3.013   1.764   3.763
 2836TIP3    H1 8393   3.035   1.815   3.682
 2836TIP3    H2 8394   2.927   1.723   3.738
 2837TIP3   OH2 8395   2.569   0.846   2.987
 2837TIP3    H1 8396   2.476   0.848   2.958
 2837TIP3    H2 8397   2.595   0.936   2.957
 2838TIP3   OH2 8398   2.512   1.847   4.131
 2838TIP3    H1 8399   2.537   1.827   4.222
 2838TIP3    H2 8400   2.474   1.936   4.137
 2839TIP3   OH2 8401   2.650   1.091   3.111
 2839TIP3    H1 8402   2.746   1.107   3.116
 2839TIP3    H2 8403   2.620   1.159   3.048
 2840TIP3   OH2 8404   1.811   1.556   3.809
 2840TIP3    H1 8405   1.842   1.521   3.724
 2840TIP3    H2 8406   1.841   1.488   3.871
 2841TIP3   OH2 8407   2.270   1.688   2.969
 2841TIP3    H1 8408   2.218   1.771   2.969
 2841TIP3    H2 8409   2.212   1.630   3.023
 2842TIP3   OH2 8410   1.687   1.469   4.422
 2842TIP3    H1 8411   1.703   1.455   4.517
 2842TIP3    H2 8412   1.615   1.405   4.405
 2843TIP3   OH2 8413   2.412   1.585   4.443
 2843TIP3    H1 8414   2.351   1.526   4.395
 2843TIP3    H2 8415   2.499   1.551   4.413
 2844TIP3   OH2 8416   2.672   2.102   4.027
 2844TIP3    H1 8417   2.576   2.104   4.039
 2844TIP3    H2 8418   2.701   2.156   4.103
 2845TIP3   OH2 8419   3.090   1.182   2.930
 2845TIP3    H1 8420   3.025   1.137   2.871
 2845TIP3    H2 8421   3.082   1.271   2.891
 2846TIP3   OH2 8422   3.308   2.039   4.020
 2846TIP3    H1 8423   3.210   2.033   4.011
 2846TIP3    H2 8424   3.334   2.009   3.930
 2847TIP3   OH2 8425   2.786   1.996   2.845
 2847TIP3    H1 8426   2.748   1.927   2.901
 2847TIP3    H2 8427   2.796   1.953   2.758
 2848TIP3   OH2 8428   2.779   1.627   3.681
 2848TIP3    H1 8429   2.685   1.602   3.694
 2848TIP3    H2 8430   2.812   1.548   3.634
 2849TIP3   OH2 8431   1.900   1.845   3.428
 2849TIP3    H1 8432   1.911   1.938   3.404
 2849TIP3    H2 8433   1.805   1.838   3.446
 2850TIP3   OH2 8434   2.050   1.620   3.387
 2850TIP3    H1 8435   2.004   1.706   3.400
 2850TIP3    H2 8436   2.009   1.567   3.457
 2851TIP3   OH2 8437   2.175   2.199   3.902
 2851TIP3    H1 8438   2.216   2.272   3.852
 2851TIP3    H2 8439   2.252   2.165   3.951
 2852TIP3   OH2 8440   1.774   2.144   3.234
 2852TIP3    H1 8441   1.720   2.122   3.314
 2852TIP3    H2 8442   1.832   2.215   3.272
 2853TIP3   OH2 8443   2.562   1.832   3.862
 2853TIP3    H1 8444   2.552   1.831   3.960
 2853TIP3    H2 8445   2.642   1.780   3.851
 2854TIP3   OH2 8446   2.538   1.722   2.743
 2854TIP3    H1 8447   2.587   1.698   2.825
 2854TIP3    H2 8448   2.449   1.695   2.766
 2855TIP3   OH2 8449   2.813   2.364   3.910
 2855TIP3    H1 8450   2.732   2.310   3.903
 2855TIP3    H2 8451   2.798   2.430   3.839
 2856TIP3   OH2 8452   2.876   2.198   2.565
 2856TIP3    H1 8453   2.913   2.267   2.507
 2856TIP3    H2 8454   2.797   2.247   2.597
 2857TIP3   OH2 8455   1.896   0.977   4.430
 2857TIP3    H1 8456   1.799   0.980   4.441
 2857TIP3    H2 8457   1.922   0.916   4.501
 2858TIP3   OH2 8458   2.697   1.657   2.957
 2858TIP3    H1 8459   2.683   1.595   3.032
 2858TIP3    H2 8460   2.792   1.649   2.945
 2859TIP3   OH2 8461   1.616   2.060   4.061
 2859TIP3    H1 8462   1.667   1.986   4.098
 2859TIP3    H2 8463   1.643   2.133   4.119
 2860TIP3   OH2 8464   1.900   1.725   2.746
 2860TIP3    H1 8465   1.920   1.644   2.696
 2860TIP3    H2 8466   1.895   1.693   2.839
 2861TIP3   OH2 8467   1.870   1.701   3.013
 2861TIP3    H1 8468   1.933   1.667   3.079
 2861TIP3    H2 8469   1.865   1.796   3.034
 2862TIP3   OH2 8470   1.613   1.436   3.245
 2862TIP3    H1 8471   1.532   1.458   3.296
 2862TIP3    H2 8472   1.604   1.505   3.176
 2863TIP3   OH2 8473   2.739   1.037   4.108
 2863TIP3    H1 8474   2.813   1.078   4.155
 2863TIP3    H2 8475   2.721   0.958   4.164
 2864TIP3   OH2 8476   2.626   0.807   3.257
 2864TIP3    H1 8477   2.564   0.869   3.214
 2864TIP3    H2 8478   2.671   0.871   3.317
 2865TIP3   OH2 8479   2.124   1.911   2.959
 2865TIP3    H1 8480   2.042   1.942   2.997
 2865TIP3    H2 8481   2.147   1.983   2.898
 2866TIP3   OH2 8482   2.343   0.962   3.382
 2866TIP3    H1 8483   2.388   1.047   3.364
 2866TIP3    H2 8484   2.328   0.966   3.478
 2867TIP3   OH2 8485   2.573   1.290   4.186
 2867TIP3    H1 8486   2.593   1.346   4.264
 2867TIP3    H2 8487   2.627   1.211   4.205
 2868TIP3   OH2 8488   2.459   0.702   3.498
 2868TIP3    H1 8489   2.434   0.779   3.553
 2868TIP3    H2 8490   2.503   0.747   3.425
 2869TIP3   OH2 8491   1.844   1.975   3.027
 2869TIP3    H1 8492   1.862   2.031   2.949
 2869TIP3    H2 8493   1.887   2.020   3.102
 2870TIP3   OH2 8494   3.213   1.189   4.169
 2870TIP3    H1 8495   3.115   1.189   4.177
 2870TIP3    H2 8496   3.223   1.151   4.081
 2871TIP3   OH2 8497   2.866   1.386   3.555
 2871TIP3    H1 8498   2.788   1.328   3.565
 2871TIP3    H2 8499   2.935   1.337   3.603
 2872TIP3   OH2 8500   1.594   1.655   3.069
 2872TIP3    H1 8501   1.667   1.712   3.040
 2872TIP3    H2 8502   1.576   1.603   2.990
 2873TIP3   OH2 8503   2.833   2.339   3.504
 2873TIP3    H1 8504   2.790   2.386   3.429
 2873TIP3    H2 8505   2.927   2.359   3.483
 2874TIP3   OH2 8506   1.909   0.600   4.028
 2874TIP3    H1 8507   1.874   0.547   3.955
 2874TIP3    H2 8508   1.905   0.534   4.101
 2875TIP3   OH2 8509   1.446   1.835   3.411
 2875TIP3    H1 8510   1.378   1.863   3.474
 2875TIP3    H2 8511   1.409   1.870   3.326
 2876TIP3   OH2 8512   1.604   2.371   4.487
 2876TIP3    H1 8513   1.691   2.369   4.532
 2876TIP3    H2 8514   1.584   2.276   4.482
 2877TIP3   OH2 8515   2.083   2.333   4.529
 2877TIP3    H1 8516   2.178   2.315   4.538
 2877TIP3    H2 8517   2.060   2.273   4.455
 2878TIP3   OH2 8518   2.078   1.914   2.661
 2878TIP3    H1 8519   2.021   1.843   2.698
 2878TIP3    H2 8520   2.156   1.864   2.633
 2879TIP3   OH2 8521   2.728   2.239   4.257
 2879TIP3    H1 8522   2.715   2.170   4.326
 2879TIP3    H2 8523   2.800   2.293   4.294
 2880TIP3   OH2 8524   2.504   1.952   2.568
 2880TIP3    H1 8525   2.554   1.890   2.624
 2880TIP3    H2 8526   2.557   1.955   2.486
 2881TIP3   OH2 8527   1.734   1.776   4.685
 2881TIP3    H1 8528   1.751   1.680   4.689
 2881TIP3    H2 8529   1.647   1.779   4.640
 2882TIP3   OH2 8530   2.341   1.861   4.459
 2882TIP3    H1 8531   2.300   1.879   4.372
 2882TIP3    H2 8532   2.372   1.768   4.449
 2883TIP3   OH2 8533   2.242   1.644   2.703
 2883TIP3    H1 8534   2.252   1.659   2.800
 2883TIP3    H2 8535   2.224   1.549   2.705
 2884TIP3   OH2 8536   2.835   1.870   4.063
 2884TIP3    H1 8537   2.908   1.917   4.019
 2884TIP3    H2 8538   2.763   1.935   4.052
 2885TIP3   OH2 8539   1.853   1.511   4.668
 2885TIP3    H1 8540   1.930   1.457   4.643
 2885TIP3    H2 8541   1.880   1.544   4.756
 2886TIP3   OH2 8542   2.001   1.301   3.162
 2886TIP3    H1 8543   1.941   1.294   3.239
 2886TIP3    H2 8544   1.947   1.262   3.092
 2887TIP3   OH2 8545   2.190   1.395   4.329
 2887TIP3    H1 8546   2.111   1.454   4.330
 2887TIP3    H2 8547   2.239   1.429   4.250
 2888TIP3   OH2 8548   2.703   1.793   4.460
 2888TIP3    H1 8549   2.786   1.770   4.418
 2888TIP3    H2 8550   2.699   1.731   4.535
 2889TIP3   OH2 8551   2.853   1.462   2.616
 2889TIP3    H1 8552   2.832   1.416   2.533
 2889TIP3    H2 8553   2.819   1.552   2.594
 2890TIP3   OH2 8554   2.313   1.183   4.454
 2890TIP3    H1 8555   2.312   1.104   4.397
 2890TIP3    H2 8556   2.269   1.250   4.397
 2891TIP3   OH2 8557   2.315   0.969   4.260
 2891TIP3    H1 8558   2.341   1.011   4.176
 2891TIP3    H2 8559   2.221   0.946   4.243
 2892TIP3   OH2 8560   2.341   1.504   4.134
 2892TIP3    H1 8561   2.425   1.516   4.088
 2892TIP3    H2 8562   2.283   1.570   4.091
 2893TIP3   OH2 8563   2.921   1.471   4.514
 2893TIP3    H1 8564   2.972   1.390   4.530
 2893TIP3    H2 8565   2.990   1.533   4.486
 2894TIP3   OH2 8566   2.965   1.724   4.249
 2894TIP3    H1 8567   2.906   1.778   4.191
 2894TIP3    H2 8568   3.052   1.745   4.208
 2895TIP3   OH2 8569   2.191   1.293   4.686
 2895TIP3    H1 8570   2.122   1.224   4.700
 2895TIP3    H2 8571   2.224   1.269   4.598
 2896TIP3   OH2 8572   2.446   0.732   4.328
 2896TIP3    H1 8573   2.397   0.814   4.306
 2896TIP3    H2 8574   2.376   0.664   4.318
 2897TIP3   OH2 8575   2.574   1.236   4.545
 2897TIP3    H1 8576   2.562   1.224   4.640
 2897TIP3    H2 8577   2.484   1.212   4.514
 2898TIP3   OH2 8578   2.811   1.181   4.398
 2898TIP3    H1 8579   2.736   1.187   4.460
 2898TIP3    H2 8580   2.884   1.154   4.456
 2899TIP3   OH2 8581   3.045   1.127   4.548
 2899TIP3    H1 8582   3.054   1.032   4.568
 2899TIP3    H2 8583   3.037   1.167   4.638
 2900TIP3   OH2 8584   2.029   1.074   4.739
 2900TIP3    H1 8585   2.034   0.982   4.704
 2900TIP3    H2 8586   2.065   1.061   4.828
 2901TIP3   OH2 8587   2.541   0.743   4.586
 2901TIP3    H1 8588   2.608   0.671   4.581
 2901TIP3    H2 8589   2.501   0.736   4.497
 2902TIP3   OH2 8590   2.607   0.957   4.745
 2902TIP3    H1 8591   2.585   0.886   4.681
 2902TIP3    H2 8592   2.529   1.016   4.739
 2903TIP3   OH2 8593   1.820   2.196   2.879
 2903TIP3    H1 8594   1.913   2.200   2.846
 2903TIP3    H2 8595   1.782   2.245   2.803
 2904TIP3   OH2 8596   1.226   2.171   3.468
 2904TIP3    H1 8597   1.155   2.113   3.433
 2904TIP3    H2 8598   1.266   2.115   3.537
 2905TIP3   OH2 8599   1.362   2.027   3.661
 2905TIP3    H1 8600   1.344   1.959   3.727
 2905TIP3    H2 8601   1.410   2.092   3.715
 2906TIP3   OH2 8602   3.087   2.426   3.462
 2906TIP3    H1 8603   3.110   2.466   3.548
 2906TIP3    H2 8604   3.144   2.475   3.401
 2907TIP3   OH2 8605   3.111   2.453   3.744
 2907TIP3    H1 8606   3.070   2.364   3.740
 2907TIP3    H2 8607   3.191   2.432   3.794
 2908TIP3   OH2 8608   3.163   2.133   4.322
 2908TIP3    H1 8609   3.087   2.142   4.383
 2908TIP3    H2 8610   3.199   2.224   4.321
 2909TIP3   OH2 8611   2.986   1.639   2.954
 2909TIP3    H1 8612   3.044   1.708   2.916
 2909TIP3    H2 8613   2.985   1.662   3.048
 2910TIP3   OH2 8614   3.161   1.901   3.575
 2910TIP3    H1 8615   3.210   1.838   3.520
 2910TIP3    H2 8616   3.153   1.979   3.516
 2911TIP3   OH2 8617   2.990   2.198   3.770
 2911TIP3    H1 8618   2.919   2.245   3.819
 2911TIP3    H2 8619   2.939   2.154   3.699
 2912TIP3   OH2 8620   3.055   1.424   2.795
 2912TIP3    H1 8621   2.983   1.420   2.728
 2912TIP3    H2 8622   3.019   1.495   2.852
 2913TIP3   OH2 8623   2.918   1.094   2.744
 2913TIP3    H1 8624   2.896   1.126   2.656
 2913TIP3    H2 8625   2.878   1.004   2.742
 2914TIP3   OH2 8626   2.911   1.362   3.283
 2914TIP3    H1 8627   2.928   1.267   3.281
 2914TIP3    H2 8628   2.906   1.381   3.379
 2915TIP3   OH2 8629   1.545   1.435   4.036
 2915TIP3    H1 8630   1.541   1.405   3.942
 2915TIP3    H2 8631   1.642   1.438   4.050
 2916TIP3   OH2 8632   3.210   1.791   4.147
 2916TIP3    H1 8633   3.281   1.724   4.135
 2916TIP3    H2 8634   3.231   1.855   4.077
 2917TIP3   OH2 8635   3.394   1.596   4.163
 2917TIP3    H1 8636   3.318   1.545   4.199
 2917TIP3    H2 8637   3.466   1.530   4.176
 2918TIP3   OH2 8638   2.854   0.826   2.751
 2918TIP3    H1 8639   2.942   0.800   2.785
 2918TIP3    H2 8640   2.808   0.742   2.743
 2919TIP3   OH2 8641   2.923   1.082   3.186
 2919TIP3    H1 8642   2.963   0.993   3.197
 2919TIP3    H2 8643   2.981   1.119   3.116
 2920TIP3   OH2 8644   3.076   1.251   3.677
 2920TIP3    H1 8645   3.162   1.279   3.636
 2920TIP3    H2 8646   3.088   1.290   3.766
 2921TIP3   OH2 8647   3.145   1.398   3.908
 2921TIP3    H1 8648   3.067   1.432   3.957
 2921TIP3    H2 8649   3.176   1.480   3.863
 2922TIP3   OH2 8650   1.762   1.125   4.710
 2922TIP3    H1 8651   1.860   1.119   4.711
 2922TIP3    H2 8652   1.739   1.039   4.750
 2923TIP3   OH2 8653   3.597   0.991   4.464
 2923TIP3    H1 8654   3.657   0.925   4.422
 2923TIP3    H2 8655   3.568   1.045   4.388
 2924TIP3   OH2 8656   3.024   0.826   3.220
 2924TIP3    H1 8657   3.075   0.819   3.304
 2924TIP3    H2 8658   2.970   0.746   3.225
 2925TIP3   OH2 8659   1.727   0.817   4.067
 2925TIP3    H1 8660   1.787   0.741   4.055
 2925TIP3    H2 8661   1.784   0.890   4.039
 2926TIP3   OH2 8662   1.532   1.094   4.115
 2926TIP3    H1 8663   1.581   1.084   4.030
 2926TIP3    H2 8664   1.558   1.183   4.141
 2927TIP3   OH2 8665   3.467   1.130   4.270
 2927TIP3    H1 8666   3.381   1.171   4.290
 2927TIP3    H2 8667   3.437   1.057   4.212
 2928TIP3   OH2 8668   3.106   0.763   2.855
 2928TIP3    H1 8669   3.146   0.700   2.792
 2928TIP3    H2 8670   3.167   0.839   2.850
 2929TIP3   OH2 8671   2.669   2.295   3.120
 2929TIP3    H1 8672   2.720   2.285   3.037
 2929TIP3    H2 8673   2.717   2.366   3.165
 2930TIP3   OH2 8674   1.733   0.676   4.429
 2930TIP3    H1 8675   1.681   0.671   4.510
 2930TIP3    H2 8676   1.668   0.714   4.367
 2931TIP3   OH2 8677   1.770   2.103   4.503
 2931TIP3    H1 8678   1.677   2.076   4.487
 2931TIP3    H2 8679   1.780   2.084   4.597
 2932TIP3   OH2 8680   1.949   2.134   4.051
 2932TIP3    H1 8681   1.900   2.210   4.013
 2932TIP3    H2 8682   2.035   2.150   4.006
 2933TIP3   OH2 8683   2.392   2.378   4.189
 2933TIP3    H1 8684   2.434   2.379   4.278
 2933TIP3    H2 8685   2.458   2.430   4.138
 2934TIP3   OH2 8686   2.572   2.531   4.050
 2934TIP3    H1 8687   2.643   2.482   4.007
 2934TIP3    H2 8688   2.623   2.589   4.110
 2935TIP3   OH2 8689   3.368   0.893   4.147
 2935TIP3    H1 8690   3.276   0.887   4.115
 2935TIP3    H2 8691   3.397   0.800   4.137
 2936TIP3   OH2 8692   1.626   2.390   4.077
 2936TIP3    H1 8693   1.537   2.422   4.050
 2936TIP3    H2 8694   1.633   2.432   4.164
 2937TIP3   OH2 8695   1.861   2.369   3.932
 2937TIP3    H1 8696   1.774   2.382   3.978
 2937TIP3    H2 8697   1.841   2.404   3.843
 2938TIP3   OH2 8698   2.288   2.398   3.731
 2938TIP3    H1 8699   2.218   2.418   3.666
 2938TIP3    H2 8700   2.300   2.486   3.772
 2939TIP3   OH2 8701   2.556   2.337   3.782
 2939TIP3    H1 8702   2.462   2.355   3.764
 2939TIP3    H2 8703   2.599   2.413   3.740
 2940TIP3   OH2 8704   2.762   2.529   3.697
 2940TIP3    H1 8705   2.748   2.615   3.651
 2940TIP3    H2 8706   2.788   2.471   3.623
 2941TIP3   OH2 8707   1.538   2.186   3.817
 2941TIP3    H1 8708   1.561   2.160   3.909
 2941TIP3    H2 8709   1.611   2.141   3.769
 2942TIP3   OH2 8710   1.732   2.055   3.677
 2942TIP3    H1 8711   1.745   1.972   3.729
 2942TIP3    H2 8712   1.822   2.093   3.677
 2943TIP3   OH2 8713   1.996   2.145   3.681
 2943TIP3    H1 8714   2.030   2.053   3.679
 2943TIP3    H2 8715   2.040   2.176   3.762
 2944TIP3   OH2 8716   2.576   0.809   3.774
 2944TIP3    H1 8717   2.528   0.740   3.824
 2944TIP3    H2 8718   2.642   0.757   3.725
 2945TIP3   OH2 8719   3.098   0.686   3.668
 2945TIP3    H1 8720   3.131   0.744   3.595
 2945TIP3    H2 8721   3.002   0.705   3.666
 2946TIP3   OH2 8722   3.193   0.796   3.433
 2946TIP3    H1 8723   3.266   0.743   3.395
 2946TIP3    H2 8724   3.227   0.887   3.419
 2947TIP3   OH2 8725   2.249   0.573   3.647
 2947TIP3    H1 8726   2.327   0.616   3.608
 2947TIP3    H2 8727   2.272   0.573   3.741
 2948TIP3   OH2 8728   2.815   0.692   3.646
 2948TIP3    H1 8729   2.811   0.647   3.562
 2948TIP3    H2 8730   2.800   0.618   3.708
 2949TIP3   OH2 8731   2.818   0.620   3.194
 2949TIP3    H1 8732   2.772   0.658   3.272
 2949TIP3    H2 8733   2.821   0.526   3.226
 2950TIP3   OH2 8734   1.317   1.948   3.204
 2950TIP3    H1 8735   1.233   1.916   3.168
 2950TIP3    H2 8736   1.312   2.042   3.176
 2951TIP3   OH2 8737   2.252   0.721   3.300
 2951TIP3    H1 8738   2.286   0.674   3.376
 2951TIP3    H2 8739   2.286   0.811   3.316
 2952TIP3   OH2 8740   2.090   2.149   2.796
 2952TIP3    H1 8741   2.178   2.174   2.760
 2952TIP3    H2 8742   2.072   2.074   2.734
 2953TIP3   OH2 8743   2.814   2.265   2.887
 2953TIP3    H1 8744   2.808   2.167   2.873
 2953TIP3    H2 8745   2.770   2.298   2.806
 2954TIP3   OH2 8746   2.028   0.798   4.676
 2954TIP3    H1 8747   1.993   0.727   4.733
 2954TIP3    H2 8748   2.122   0.798   4.703
 2955TIP3   OH2 8749   2.277   0.794   4.794
 2955TIP3    H1 8750   2.363   0.770   4.755
 2955TIP3    H2 8751   2.265   0.723   4.861
 2956TIP3   OH2 8752   1.461   2.026   2.892
 2956TIP3    H1 8753   1.379   2.021   2.944
 2956TIP3    H2 8754   1.478   1.934   2.869
 2957TIP3   OH2 8755   3.102   0.855   4.582
 2957TIP3    H1 8756   3.120   0.825   4.674
 2957TIP3    H2 8757   3.192   0.851   4.542
 2958TIP3   OH2 8758   3.040   2.406   4.076
 2958TIP3    H1 8759   2.961   2.377   4.026
 2958TIP3    H2 8760   3.023   2.502   4.080
 2959TIP3   OH2 8761   4.306   1.779   2.841
 2959TIP3    H1 8762   4.279   1.871   2.820
 2959TIP3    H2 8763   4.231   1.730   2.803
 2960TIP3   OH2 8764   4.304   1.781   3.223
 2960TIP3    H1 8765   4.341   1.755   3.310
 2960TIP3    H2 8766   4.266   1.698   3.191
 2961TIP3   OH2 8767   3.605   1.677   3.594
 2961TIP3    H1 8768   3.635   1.608   3.656
 2961TIP3    H2 8769   3.687   1.726   3.579
 2962TIP3   OH2 8770   4.551   2.081   2.904
 2962TIP3    H1 8771   4.537   2.014   2.971
 2962TIP3    H2 8772   4.579   2.158   2.956
 2963TIP3   OH2 8773   3.577   2.081   3.308
 2963TIP3    H1 8774   3.568   1.985   3.317
 2963TIP3    H2 8775   3.674   2.092   3.301
 2964TIP3   OH2 8776   3.386   1.549   3.188
 2964TIP3    H1 8777   3.400   1.487   3.264
 2964TIP3    H2 8778   3.434   1.627   3.220
 2965TIP3   OH2 8779   4.198   2.546   2.919
 2965TIP3    H1 8780   4.243   2.476   2.867
 2965TIP3    H2 8781   4.194   2.506   3.006
 2966TIP3   OH2 8782   4.106   2.005   3.270
 2966TIP3    H1 8783   4.147   1.929   3.225
 2966TIP3    H2 8784   4.188   2.053   3.294
 2967TIP3   OH2 8785   5.119   1.325   3.267
 2967TIP3    H1 8786   5.148   1.409   3.307
 2967TIP3    H2 8787   5.143   1.339   3.173
 2968TIP3   OH2 8788   4.520   1.508   3.300
 2968TIP3    H1 8789   4.566   1.425   3.320
 2968TIP3    H2 8790   4.489   1.490   3.209
 2969TIP3   OH2 8791   3.808   1.164   3.281
 2969TIP3    H1 8792   3.850   1.229   3.222
 2969TIP3    H2 8793   3.789   1.091   3.219
 2970TIP3   OH2 8794   4.549   1.260   2.888
 2970TIP3    H1 8795   4.623   1.245   2.953
 2970TIP3    H2 8796   4.601   1.293   2.812
 2971TIP3   OH2 8797   3.490   1.370   3.368
 2971TIP3    H1 8798   3.567   1.355   3.426
 2971TIP3    H2 8799   3.512   1.310   3.294
 2972TIP3   OH2 8800   3.929   1.569   3.170
 2972TIP3    H1 8801   4.024   1.546   3.182
 2972TIP3    H2 8802   3.893   1.483   3.138
 2973TIP3   OH2 8803   5.192   1.533   3.438
 2973TIP3    H1 8804   5.110   1.581   3.416
 2973TIP3    H2 8805   5.208   1.564   3.529
 2974TIP3   OH2 8806   3.848   1.151   3.716
 2974TIP3    H1 8807   3.797   1.187   3.641
 2974TIP3    H2 8808   3.792   1.178   3.791
 2975TIP3   OH2 8809   4.192   1.998   2.712
 2975TIP3    H1 8810   4.160   1.987   2.621
 2975TIP3    H2 8811   4.153   2.084   2.736
 2976TIP3   OH2 8812   3.960   1.926   3.494
 2976TIP3    H1 8813   3.899   1.994   3.531
 2976TIP3    H2 8814   4.003   1.976   3.422
 2977TIP3   OH2 8815   4.756   1.264   3.062
 2977TIP3    H1 8816   4.761   1.208   3.140
 2977TIP3    H2 8817   4.813   1.339   3.088
 2978TIP3   OH2 8818   3.710   1.266   3.505
 2978TIP3    H1 8819   3.774   1.339   3.523
 2978TIP3    H2 8820   3.752   1.226   3.425
 2979TIP3   OH2 8821   3.787   2.121   3.590
 2979TIP3    H1 8822   3.764   2.208   3.554
 2979TIP3    H2 8823   3.709   2.107   3.648
 2980TIP3   OH2 8824   3.181   1.808   2.836
 2980TIP3    H1 8825   3.140   1.831   2.750
 2980TIP3    H2 8826   3.208   1.897   2.868
 2981TIP3   OH2 8827   4.621   2.326   3.071
 2981TIP3    H1 8828   4.531   2.318   3.109
 2981TIP3    H2 8829   4.613   2.412   3.024
 2982TIP3   OH2 8830   4.912   1.225   3.434
 2982TIP3    H1 8831   4.825   1.254   3.403
 2982TIP3    H2 8832   4.972   1.257   3.363
 2983TIP3   OH2 8833   4.189   0.802   3.440
 2983TIP3    H1 8834   4.285   0.807   3.461
 2983TIP3    H2 8835   4.172   0.900   3.428
 2984TIP3   OH2 8836   4.320   2.371   2.744
 2984TIP3    H1 8837   4.370   2.289   2.722
 2984TIP3    H2 8838   4.381   2.437   2.704
 2985TIP3   OH2 8839   4.462   2.156   2.652
 2985TIP3    H1 8840   4.437   2.075   2.605
 2985TIP3    H2 8841   4.499   2.120   2.736
 2986TIP3   OH2 8842   4.846   2.239   3.415
 2986TIP3    H1 8843   4.836   2.161   3.356
 2986TIP3    H2 8844   4.826   2.313   3.353
 2987TIP3   OH2 8845   4.138   1.632   2.671
 2987TIP3    H1 8846   4.060   1.687   2.647
 2987TIP3    H2 8847   4.186   1.628   2.586
 2988TIP3   OH2 8848   4.097   1.414   2.394
 2988TIP3    H1 8849   4.167   1.469   2.435
 2988TIP3    H2 8850   4.154   1.353   2.341
 2989TIP3   OH2 8851   5.042   1.877   3.260
 2989TIP3    H1 8852   4.959   1.929   3.264
 2989TIP3    H2 8853   5.072   1.899   3.169
 2990TIP3   OH2 8854   4.485   1.714   2.642
 2990TIP3    H1 8855   4.432   1.739   2.721
 2990TIP3    H2 8856   4.570   1.689   2.685
 2991TIP3   OH2 8857   4.720   1.753   3.554
 2991TIP3    H1 8858   4.718   1.838   3.602
 2991TIP3    H2 8859   4.633   1.756   3.509
 2992TIP3   OH2 8860   3.719   1.713   3.063
 2992TIP3    H1 8861   3.677   1.647   3.006
 2992TIP3    H2 8862   3.799   1.665   3.095
 2993TIP3   OH2 8863   3.843   2.113   3.211
 2993TIP3    H1 8864   3.830   2.088   3.118
 2993TIP3    H2 8865   3.935   2.085   3.227
 2994TIP3   OH2 8866   3.840   1.695   3.407
 2994TIP3    H1 8867   3.883   1.664   3.325
 2994TIP3    H2 8868   3.893   1.774   3.431
 2995TIP3   OH2 8869   4.380   2.322   3.191
 2995TIP3    H1 8870   4.365   2.402   3.244
 2995TIP3    H2 8871   4.364   2.249   3.255
 2996TIP3   OH2 8872   3.996   2.233   3.739
 2996TIP3    H1 8873   3.936   2.298   3.783
 2996TIP3    H2 8874   3.929   2.184   3.687
 2997TIP3   OH2 8875   4.323   1.574   2.469
 2997TIP3    H1 8876   4.385   1.633   2.519
 2997TIP3    H2 8877   4.350   1.596   2.376
 2998TIP3   OH2 8878   3.747   1.798   3.844
 2998TIP3    H1 8879   3.747   1.886   3.887
 2998TIP3    H2 8880   3.652   1.778   3.846
 2999TIP3   OH2 8881   4.068   2.254   2.747
 2999TIP3    H1 8882   4.150   2.306   2.758
 2999TIP3    H2 8883   4.010   2.316   2.701
 3000TIP3   OH2 8884   3.786   2.385   3.813
 3000TIP3    H1 8885   3.744   2.402   3.727
 3000TIP3    H2 8886   3.710   2.384   3.874
 3001TIP3   OH2 8887   4.844   0.816   2.519
 3001TIP3    H1 8888   4.761   0.838   2.566
 3001TIP3    H2 8889   4.857   0.896   2.464
 3002TIP3   OH2 8890   3.511   1.519   2.895
 3002TIP3    H1 8891   3.492   1.588   2.826
 3002TIP3    H2 8892   3.570   1.459   2.846
 3003TIP3   OH2 8893   4.641   2.181   2.066
 3003TIP3    H1 8894   4.649   2.277   2.051
 3003TIP3    H2 8895   4.734   2.151   2.053
 3004TIP3   OH2 8896   3.363   1.940   3.774
 3004TIP3    H1 8897   3.295   1.920   3.706
 3004TIP3    H2 8898   3.399   1.852   3.797
 3005TIP3   OH2 8899   3.221   2.129   3.408
 3005TIP3    H1 8900   3.317   2.134   3.397
 3005TIP3    H2 8901   3.204   2.211   3.457
 3006TIP3   OH2 8902   5.084   2.585   3.463
 3006TIP3    H1 8903   5.081   2.488   3.467
 3006TIP3    H2 8904   4.999   2.609   3.505
 3007TIP3   OH2 8905   4.190   2.368   3.597
 3007TIP3    H1 8906   4.188   2.461   3.627
 3007TIP3    H2 8907   4.119   2.329   3.652
 3008TIP3   OH2 8908   3.951   2.498   2.550
 3008TIP3    H1 8909   3.905   2.483   2.465
 3008TIP3    H2 8910   3.922   2.588   2.574
 3009TIP3   OH2 8911   3.387   2.347   2.931
 3009TIP3    H1 8912   3.438   2.338   3.014
 3009TIP3    H2 8913   3.321   2.278   2.942
 3010TIP3   OH2 8914   4.153   2.401   2.184
 3010TIP3    H1 8915   4.212   2.330   2.149
 3010TIP3    H2 8916   4.187   2.411   2.276
 3011TIP3   OH2 8917   4.201   2.448   2.455
 3011TIP3    H1 8918   4.113   2.460   2.496
 3011TIP3    H2 8919   4.252   2.411   2.529
 3012TIP3   OH2 8920   4.972   1.714   3.735
 3012TIP3    H1 8921   4.892   1.729   3.682
 3012TIP3    H2 8922   4.986   1.618   3.722
 3013TIP3   OH2 8923   3.571   2.118   3.755
 3013TIP3    H1 8924   3.618   2.108   3.841
 3013TIP3    H2 8925   3.496   2.057   3.766
 3014TIP3   OH2 8926   3.955   0.919   3.540
 3014TIP3    H1 8927   3.860   0.942   3.531
 3014TIP3    H2 8928   3.998   1.002   3.506
 3015TIP3   OH2 8929   4.506   1.052   3.737
 3015TIP3    H1 8930   4.575   1.031   3.804
 3015TIP3    H2 8931   4.423   1.045   3.787
 3016TIP3   OH2 8932   4.743   1.490   3.659
 3016TIP3    H1 8933   4.691   1.488   3.742
 3016TIP3    H2 8934   4.717   1.575   3.619
 3017TIP3   OH2 8935   4.402   1.621   2.215
 3017TIP3    H1 8936   4.368   1.595   2.127
 3017TIP3    H2 8937   4.486   1.664   2.189
 3018TIP3   OH2 8938   4.111   0.995   2.516
 3018TIP3    H1 8939   4.077   0.988   2.607
 3018TIP3    H2 8940   4.076   0.912   2.479
 3019TIP3   OH2 8941   3.882   1.464   3.557
 3019TIP3    H1 8942   3.853   1.494   3.645
 3019TIP3    H2 8943   3.880   1.547   3.506
 3020TIP3   OH2 8944   3.785   1.353   3.069
 3020TIP3    H1 8945   3.695   1.324   3.091
 3020TIP3    H2 8946   3.800   1.305   2.984
 3021TIP3   OH2 8947   4.273   1.429   2.800
 3021TIP3    H1 8948   4.225   1.503   2.757
 3021TIP3    H2 8949   4.333   1.401   2.727
 3022TIP3   OH2 8950   4.453   1.718   3.903
 3022TIP3    H1 8951   4.430   1.642   3.961
 3022TIP3    H2 8952   4.549   1.721   3.916
 3023TIP3   OH2 8953   4.431   1.460   3.043
 3023TIP3    H1 8954   4.374   1.494   2.971
 3023TIP3    H2 8955   4.468   1.382   2.997
 3024TIP3   OH2 8956   3.711   1.496   3.779
 3024TIP3    H1 8957   3.756   1.554   3.842
 3024TIP3    H2 8958   3.707   1.411   3.827
 3025TIP3   OH2 8959   3.771   0.968   2.481
 3025TIP3    H1 8960   3.758   0.965   2.578
 3025TIP3    H2 8961   3.692   1.018   2.453
 3026TIP3   OH2 8962   3.321   1.021   3.337
 3026TIP3    H1 8963   3.392   1.044   3.401
 3026TIP3    H2 8964   3.364   0.964   3.272
 3027TIP3   OH2 8965   3.283   0.992   2.877
 3027TIP3    H1 8966   3.324   1.028   2.795
 3027TIP3    H2 8967   3.221   1.066   2.896
 3028TIP3   OH2 8968   4.447   1.713   3.458
 3028TIP3    H1 8969   4.479   1.638   3.402
 3028TIP3    H2 8970   4.421   1.663   3.539
 3029TIP3   OH2 8971   3.529   1.212   3.135
 3029TIP3    H1 8972   3.448   1.159   3.141
 3029TIP3    H2 8973   3.596   1.141   3.122
 3030TIP3   OH2 8974   3.815   1.225   2.830
 3030TIP3    H1 8975   3.910   1.234   2.810
 3030TIP3    H2 8976   3.772   1.241   2.743
 3031TIP3   OH2 8977   4.615   1.250   3.345
 3031TIP3    H1 8978   4.571   1.261   3.432
 3031TIP3    H2 8979   4.562   1.180   3.304
 3032TIP3   OH2 8980   3.655   1.264   2.612
 3032TIP3    H1 8981   3.589   1.213   2.561
 3032TIP3    H2 8982   3.710   1.298   2.537
 3033TIP3   OH2 8983   4.778   2.931   3.559
 3033TIP3    H1 8984   4.771   2.957   3.465
 3033TIP3    H2 8985   4.855   2.984   3.589
 3034TIP3   OH2 8986   3.723   2.043   3.990
 3034TIP3    H1 8987   3.812   2.068   4.023
 3034TIP3    H2 8988   3.670   2.070   4.066
 3035TIP3   OH2 8989   4.190   1.491   3.227
 3035TIP3    H1 8990   4.271   1.461   3.182
 3035TIP3    H2 8991   4.193   1.440   3.309
 3036TIP3   OH2 8992   3.712   0.986   3.099
 3036TIP3    H1 8993   3.680   0.908   3.149
 3036TIP3    H2 8994   3.765   0.945   3.030
 3037TIP3   OH2 8995   3.908   1.784   2.618
 3037TIP3    H1 8996   3.833   1.723   2.606
 3037TIP3    H2 8997   3.890   1.820   2.709
 3038TIP3   OH2 8998   4.809   2.022   3.250
 3038TIP3    H1 8999   4.834   2.072   3.169
 3038TIP3    H2 9000   4.724   1.980   3.223
 3039TIP3   OH2 9001   4.368   1.092   2.495
 3039TIP3    H1 9002   4.271   1.079   2.490
 3039TIP3    H2 9003   4.378   1.189   2.503
 3040TIP3   OH2 9004   4.308   2.106   3.617
 3040TIP3    H1 9005   4.322   2.085   3.710
 3040TIP3    H2 9006   4.268   2.194   3.620
 3041TIP3   OH2 9007   4.436   1.348   2.588
 3041TIP3    H1 9008   4.534   1.352   2.599
 3041TIP3    H2 9009   4.418   1.424   2.530
 3042TIP3   OH2 9010   3.573   1.761   3.291
 3042TIP3    H1 9011   3.627   1.766   3.209
 3042TIP3    H2 9012   3.642   1.738   3.356
 3043TIP3   OH2 9013   4.055   1.936   2.442
 3043TIP3    H1 9014   4.007   2.022   2.446
 3043TIP3    H2 9015   4.001   1.881   2.502
 3044TIP3   OH2 9016   3.479   1.729   3.911
 3044TIP3    H1 9017   3.501   1.713   4.004
 3044TIP3    H2 9018   3.413   1.659   3.893
 3045TIP3   OH2 9019   4.206   1.841   3.930
 3045TIP3    H1 9020   4.150   1.789   3.870
 3045TIP3    H2 9021   4.295   1.806   3.905
 3046TIP3   OH2 9022   4.468   2.360   3.513
 3046TIP3    H1 9023   4.372   2.360   3.523
 3046TIP3    H2 9024   4.495   2.415   3.589
 3047TIP3   OH2 9025   4.877   1.437   2.423
 3047TIP3    H1 9026   4.815   1.392   2.361
 3047TIP3    H2 9027   4.875   1.525   2.380
 3048TIP3   OH2 9028   5.094   2.294   3.504
 3048TIP3    H1 9029   4.998   2.283   3.487
 3048TIP3    H2 9030   5.127   2.263   3.416
 3049TIP3   OH2 9031   4.581   2.254   2.330
 3049TIP3    H1 9032   4.553   2.183   2.389
 3049TIP3    H2 9033   4.592   2.209   2.245
 3050TIP3   OH2 9034   4.575   1.883   3.168
 3050TIP3    H1 9035   4.481   1.858   3.181
 3050TIP3    H2 9036   4.609   1.804   3.122
 3051TIP3   OH2 9037   3.704   2.112   2.923
 3051TIP3    H1 9038   3.710   2.193   2.868
 3051TIP3    H2 9039   3.608   2.102   2.928
 3052TIP3   OH2 9040   3.271   1.415   2.623
 3052TIP3    H1 9041   3.312   1.503   2.633
 3052TIP3    H2 9042   3.190   1.425   2.678
 3053TIP3   OH2 9043   3.834   1.874   2.862
 3053TIP3    H1 9044   3.805   1.966   2.878
 3053TIP3    H2 9045   3.803   1.830   2.944
 3054TIP3   OH2 9046   3.971   2.454   3.388
 3054TIP3    H1 9047   4.011   2.528   3.338
 3054TIP3    H2 9048   4.048   2.422   3.438
 3055TIP3   OH2 9049   3.625   2.349   2.777
 3055TIP3    H1 9050   3.537   2.360   2.818
 3055TIP3    H2 9051   3.657   2.441   2.778
 3056TIP3   OH2 9052   4.358   2.089   3.349
 3056TIP3    H1 9053   4.350   2.087   3.447
 3056TIP3    H2 9054   4.437   2.034   3.335
 3057TIP3   OH2 9055   4.335   1.982   2.233
 3057TIP3    H1 9056   4.388   1.957   2.312
 3057TIP3    H2 9057   4.247   1.955   2.261
 3058TIP3   OH2 9058   4.609   2.623   3.398
 3058TIP3    H1 9059   4.528   2.568   3.390
 3058TIP3    H2 9060   4.595   2.688   3.326
 3059TIP3   OH2 9061   4.673   2.456   2.051
 3059TIP3    H1 9062   4.710   2.528   1.997
 3059TIP3    H2 9063   4.593   2.502   2.085
 3060TIP3   OH2 9064   3.689   1.239   3.923
 3060TIP3    H1 9065   3.593   1.240   3.935
 3060TIP3    H2 9066   3.718   1.176   3.992
 3061TIP3   OH2 9067   4.494   1.919   2.453
 3061TIP3    H1 9068   4.485   1.849   2.520
 3061TIP3    H2 9069   4.591   1.915   2.436
 3062TIP3   OH2 9070   3.410   2.316   3.550
 3062TIP3    H1 9071   3.467   2.247   3.586
 3062TIP3    H2 9072   3.440   2.393   3.600
 3063TIP3   OH2 9073   3.702   1.962   2.232
 3063TIP3    H1 9074   3.715   1.870   2.203
 3063TIP3    H2 9075   3.680   1.950   2.327
 3064TIP3   OH2 9076   3.647   1.965   2.507
 3064TIP3    H1 9077   3.726   1.948   2.560
 3064TIP3    H2 9078   3.644   2.064   2.508
 3065TIP3   OH2 9079   3.380   1.667   2.707
 3065TIP3    H1 9080   3.312   1.719   2.754
 3065TIP3    H2 9081   3.398   1.728   2.632
 3066TIP3   OH2 9082   4.529   1.296   3.601
 3066TIP3    H1 9083   4.609   1.335   3.640
 3066TIP3    H2 9084   4.517   1.214   3.653
 3067TIP3   OH2 9085   4.403   1.050   2.768
 3067TIP3    H1 9086   4.393   1.067   2.672
 3067TIP3    H2 9087   4.448   1.131   2.798
 3068TIP3   OH2 9088   3.909   2.164   2.453
 3068TIP3    H1 9089   3.822   2.191   2.487
 3068TIP3    H2 9090   3.928   2.238   2.394
 3069TIP3   OH2 9091   4.097   1.232   2.865
 3069TIP3    H1 9092   4.160   1.297   2.828
 3069TIP3    H2 9093   4.112   1.246   2.959
 3070TIP3   OH2 9094   4.388   1.565   3.673
 3070TIP3    H1 9095   4.404   1.603   3.762
 3070TIP3    H2 9096   4.413   1.472   3.683
 3071TIP3   OH2 9097   4.245   0.953   2.968
 3071TIP3    H1 9098   4.272   1.015   3.037
 3071TIP3    H2 9099   4.300   0.987   2.893
 3072TIP3   OH2 9100   3.652   2.235   2.522
 3072TIP3    H1 9101   3.627   2.305   2.456
 3072TIP3    H2 9102   3.639   2.284   2.606
 3073TIP3   OH2 9103   3.754   0.953   2.760
 3073TIP3    H1 9104   3.753   1.044   2.795
 3073TIP3    H2 9105   3.850   0.934   2.764
 3074TIP3   OH2 9106   5.010   1.447   3.657
 3074TIP3    H1 9107   4.912   1.445   3.663
 3074TIP3    H2 9108   5.021   1.409   3.568
 3075TIP3   OH2 9109   4.660   1.641   3.044
 3075TIP3    H1 9110   4.585   1.581   3.056
 3075TIP3    H2 9111   4.733   1.594   3.091
 3076TIP3   OH2 9112   3.372   1.869   2.513
 3076TIP3    H1 9113   3.434   1.943   2.519
 3076TIP3    H2 9114   3.418   1.817   2.443
 3077TIP3   OH2 9115   3.313   1.142   2.651
 3077TIP3    H1 9116   3.310   1.239   2.641
 3077TIP3    H2 9117   3.246   1.113   2.587
 3078TIP3   OH2 9118   4.629   2.597   2.993
 3078TIP3    H1 9119   4.586   2.644   2.918
 3078TIP3    H2 9120   4.723   2.616   2.970
 3079TIP3   OH2 9121   3.685   0.864   3.522
 3079TIP3    H1 9122   3.664   0.831   3.432
 3079TIP3    H2 9123   3.688   0.781   3.575
 3080TIP3   OH2 9124   3.237   2.070   2.899
 3080TIP3    H1 9125   3.171   2.112   2.956
 3080TIP3    H2 9126   3.220   2.118   2.814
 3081TIP3   OH2 9127   3.397   2.620   3.970
 3081TIP3    H1 9128   3.485   2.604   4.007
 3081TIP3    H2 9129   3.363   2.530   3.964
 3082TIP3   OH2 9130   3.863   2.166   2.142
 3082TIP3    H1 9131   3.808   2.094   2.180
 3082TIP3    H2 9132   3.938   2.114   2.107
 3083TIP3   OH2 9133   4.523   2.497   3.746
 3083TIP3    H1 9134   4.516   2.428   3.816
 3083TIP3    H2 9135   4.598   2.550   3.779
 3084TIP3   OH2 9136   4.299   2.205   2.055
 3084TIP3    H1 9137   4.344   2.141   2.113
 3084TIP3    H2 9138   4.355   2.204   1.975
 3085TIP3   OH2 9139   3.518   2.018   4.198
 3085TIP3    H1 9140   3.551   1.934   4.159
 3085TIP3    H2 9141   3.442   2.037   4.138
 3086TIP3   OH2 9142   3.508   1.681   2.368
 3086TIP3    H1 9143   3.569   1.653   2.438
 3086TIP3    H2 9144   3.572   1.687   2.292
 3087TIP3   OH2 9145   4.143   2.116   3.941
 3087TIP3    H1 9146   4.097   2.138   3.857
 3087TIP3    H2 9147   4.166   2.021   3.930
 3088TIP3   OH2 9148   4.019   1.881   2.173
 3088TIP3    H1 9149   4.022   1.895   2.269
 3088TIP3    H2 9150   4.021   1.783   2.168
 3089TIP3   OH2 9151   4.632   2.129   3.558
 3089TIP3    H1 9152   4.705   2.169   3.507
 3089TIP3    H2 9153   4.560   2.192   3.539
 3090TIP3   OH2 9154   3.648   1.769   4.151
 3090TIP3    H1 9155   3.723   1.720   4.116
 3090TIP3    H2 9156   3.682   1.798   4.238
 3091TIP3   OH2 9157   3.714   1.582   2.585
 3091TIP3    H1 9158   3.712   1.521   2.659
 3091TIP3    H2 9159   3.753   1.524   2.516
 3092TIP3   OH2 9160   3.976   1.644   3.813
 3092TIP3    H1 9161   3.905   1.712   3.817
 3092TIP3    H2 9162   4.033   1.681   3.741
 3093TIP3   OH2 9163   3.819   1.383   2.428
 3093TIP3    H1 9164   3.793   1.384   2.333
 3093TIP3    H2 9165   3.917   1.384   2.420
 3094TIP3   OH2 9166   4.521   2.053   3.951
 3094TIP3    H1 9167   4.575   2.010   3.883
 3094TIP3    H2 9168   4.500   1.979   4.011
 3095TIP3   OH2 9169   4.637   1.711   2.092
 3095TIP3    H1 9170   4.618   1.664   2.009
 3095TIP3    H2 9171   4.605   1.801   2.068
 3096TIP3   OH2 9172   4.108   1.438   3.936
 3096TIP3    H1 9173   4.111   1.361   3.875
 3096TIP3    H2 9174   4.064   1.505   3.880
 3097TIP3   OH2 9175   4.111   1.227   3.735
 3097TIP3    H1 9176   4.137   1.232   3.641
 3097TIP3    H2 9177   4.016   1.204   3.725
 3098TIP3   OH2 9178   4.135   1.768   3.637
 3098TIP3    H1 9179   4.217   1.757   3.586
 3098TIP3    H2 9180   4.084   1.832   3.583
 3099TIP3   OH2 9181   4.723   1.728   4.000
 3099TIP3    H1 9182   4.771   1.644   4.014
 3099TIP3    H2 9183   4.786   1.777   3.946
 3100TIP3   OH2 9184   4.752   1.973   3.743
 3100TIP3    H1 9185   4.701   2.032   3.684
 3100TIP3    H2 9186   4.843   1.998   3.714
 3101TIP3   OH2 9187   3.986   1.549   4.173
 3101TIP3    H1 9188   3.919   1.478   4.185
 3101TIP3    H2 9189   4.020   1.528   4.084
 3102TIP3   OH2 9190   4.242   1.000   3.817
 3102TIP3    H1 9191   4.200   1.083   3.787
 3102TIP3    H2 9192   4.174   0.935   3.798
 3103TIP3   OH2 9193   4.368   1.492   4.030
 3103TIP3    H1 9194   4.353   1.479   4.126
 3103TIP3    H2 9195   4.279   1.468   3.997
 3104TIP3   OH2 9196   4.610   1.447   3.890
 3104TIP3    H1 9197   4.534   1.445   3.951
 3104TIP3    H2 9198   4.683   1.415   3.946
 3105TIP3   OH2 9199   4.840   1.384   4.037
 3105TIP3    H1 9200   4.853   1.288   4.055
 3105TIP3    H2 9201   4.837   1.422   4.127
 3106TIP3   OH2 9202   3.825   1.330   4.226
 3106TIP3    H1 9203   3.833   1.241   4.189
 3106TIP3    H2 9204   3.862   1.316   4.316
 3107TIP3   OH2 9205   4.336   0.998   4.075
 3107TIP3    H1 9206   4.403   0.928   4.068
 3107TIP3    H2 9207   4.298   0.997   3.985
 3108TIP3   OH2 9208   4.403   1.214   4.233
 3108TIP3    H1 9209   4.381   1.142   4.169
 3108TIP3    H2 9210   4.325   1.273   4.226
 3109TIP3   OH2 9211   3.625   2.431   2.340
 3109TIP3    H1 9212   3.719   2.439   2.316
 3109TIP3    H2 9213   3.586   2.483   2.265
 3110TIP3   OH2 9214   3.107   1.819   2.561
 3110TIP3    H1 9215   3.199   1.847   2.539
 3110TIP3    H2 9216   3.101   1.734   2.513
 3111TIP3   OH2 9217   3.019   2.435   2.963
 3111TIP3    H1 9218   2.952   2.375   2.924
 3111TIP3    H2 9219   3.063   2.376   3.027
 3112TIP3   OH2 9220   3.159   2.283   3.146
 3112TIP3    H1 9221   3.141   2.216   3.213
 3112TIP3    H2 9222   3.208   2.348   3.199
 3113TIP3   OH2 9223   4.883   2.685   2.950
 3113TIP3    H1 9224   4.909   2.725   3.035
 3113TIP3    H2 9225   4.942   2.730   2.887
 3114TIP3   OH2 9226   4.908   2.710   3.234
 3114TIP3    H1 9227   4.866   2.622   3.226
 3114TIP3    H2 9228   4.989   2.686   3.281
 3115TIP3   OH2 9229   4.976   2.373   3.859
 3115TIP3    H1 9230   4.890   2.381   3.813
 3115TIP3    H2 9231   5.022   2.453   3.821
 3116TIP3   OH2 9232   4.772   1.899   2.424
 3116TIP3    H1 9233   4.840   1.962   2.393
 3116TIP3    H2 9234   4.818   1.859   2.502
 3117TIP3   OH2 9235   4.901   1.766   2.627
 3117TIP3    H1 9236   4.835   1.724   2.686
 3117TIP3    H2 9237   4.967   1.803   2.690
 3118TIP3   OH2 9238   4.957   2.158   3.061
 3118TIP3    H1 9239   5.008   2.092   3.010
 3118TIP3    H2 9240   4.951   2.232   2.998
 3119TIP3   OH2 9241   4.787   2.457   3.256
 3119TIP3    H1 9242   4.713   2.502   3.303
 3119TIP3    H2 9243   4.739   2.411   3.183
 3120TIP3   OH2 9244   4.839   1.674   2.275
 3120TIP3    H1 9245   4.768   1.674   2.207
 3120TIP3    H2 9246   4.811   1.750   2.328
 3121TIP3   OH2 9247   4.707   1.349   2.231
 3121TIP3    H1 9248   4.670   1.383   2.149
 3121TIP3    H2 9249   4.683   1.254   2.225
 3122TIP3   OH2 9250   4.714   1.623   2.773
 3122TIP3    H1 9251   4.724   1.526   2.765
 3122TIP3    H2 9252   4.702   1.635   2.870
 3123TIP3   OH2 9253   3.347   1.691   3.518
 3123TIP3    H1 9254   3.362   1.697   3.423
 3123TIP3    H2 9255   3.441   1.691   3.549
 3124TIP3   OH2 9256   4.996   2.048   3.639
 3124TIP3    H1 9257   5.072   1.986   3.640
 3124TIP3    H2 9258   5.028   2.118   3.581
 3125TIP3   OH2 9259   5.189   1.857   3.662
 3125TIP3    H1 9260   5.112   1.803   3.690
 3125TIP3    H2 9261   5.261   1.790   3.671
 3126TIP3   OH2 9262   4.651   1.085   2.224
 3126TIP3    H1 9263   4.728   1.046   2.269
 3126TIP3    H2 9264   4.582   1.017   2.233
 3127TIP3   OH2 9265   4.712   1.340   2.668
 3127TIP3    H1 9266   4.753   1.251   2.683
 3127TIP3    H2 9267   4.769   1.372   2.596
 3128TIP3   OH2 9268   4.873   1.512   3.164
 3128TIP3    H1 9269   4.959   1.537   3.123
 3128TIP3    H2 9270   4.888   1.549   3.253
 3129TIP3   OH2 9271   4.944   1.657   3.397
 3129TIP3    H1 9272   4.864   1.691   3.443
 3129TIP3    H2 9273   4.975   1.737   3.350
 3130TIP3   OH2 9274   3.558   1.382   4.195
 3130TIP3    H1 9275   3.656   1.374   4.196
 3130TIP3    H2 9276   3.534   1.296   4.236
 3131TIP3   OH2 9277   5.392   1.246   3.951
 3131TIP3    H1 9278   5.452   1.182   3.908
 3131TIP3    H2 9279   5.364   1.302   3.875
 3132TIP3   OH2 9280   4.818   1.090   2.709
 3132TIP3    H1 9281   4.869   1.072   2.791
 3132TIP3    H2 9282   4.760   1.011   2.705
 3133TIP3   OH2 9283   3.513   1.074   3.523
 3133TIP3    H1 9284   3.576   0.999   3.534
 3133TIP3    H2 9285   3.576   1.149   3.526
 3134TIP3   OH2 9286   3.323   1.346   3.599
 3134TIP3    H1 9287   3.373   1.344   3.515
 3134TIP3    H2 9288   3.351   1.431   3.635
 3135TIP3   OH2 9289   5.262   1.386   3.756
 3135TIP3    H1 9290   5.173   1.426   3.765
 3135TIP3    H2 9291   5.239   1.312   3.698
 3136TIP3   OH2 9292   4.903   1.018   2.339
 3136TIP3    H1 9293   4.941   0.948   2.282
 3136TIP3    H2 9294   4.968   1.090   2.330
 3137TIP3   OH2 9295   3.309   0.849   3.102
 3137TIP3    H1 9296   3.215   0.846   3.127
 3137TIP3    H2 9297   3.307   0.907   3.024
 3138TIP3   OH2 9298   4.470   2.550   2.608
 3138TIP3    H1 9299   4.518   2.539   2.524
 3138TIP3    H2 9300   4.517   2.624   2.649
 3139TIP3   OH2 9301   3.527   0.924   3.910
 3139TIP3    H1 9302   3.478   0.924   3.995
 3139TIP3    H2 9303   3.461   0.969   3.853
 3140TIP3   OH2 9304   3.567   2.359   3.984
 3140TIP3    H1 9305   3.473   2.335   3.986
 3140TIP3    H2 9306   3.595   2.360   4.076
 3141TIP3   OH2 9307   3.741   2.388   3.529
 3141TIP3    H1 9308   3.696   2.468   3.493
 3141TIP3    H2 9309   3.829   2.404   3.489
 3142TIP3   OH2 9310   4.187   2.635   3.674
 3142TIP3    H1 9311   4.226   2.638   3.764
 3142TIP3    H2 9312   4.253   2.688   3.624
 3143TIP3   OH2 9313   4.367   2.788   3.536
 3143TIP3    H1 9314   4.437   2.739   3.491
 3143TIP3    H2 9315   4.419   2.845   3.596
 3144TIP3   OH2 9316   5.162   1.150   3.636
 3144TIP3    H1 9317   5.073   1.145   3.599
 3144TIP3    H2 9318   5.194   1.057   3.624
 3145TIP3   OH2 9319   3.419   2.644   3.565
 3145TIP3    H1 9320   3.330   2.677   3.540
 3145TIP3    H2 9321   3.434   2.693   3.647
 3146TIP3   OH2 9322   3.656   2.626   3.420
 3146TIP3    H1 9323   3.569   2.639   3.464
 3146TIP3    H2 9324   3.638   2.660   3.330
 3147TIP3   OH2 9325   4.082   2.654   3.220
 3147TIP3    H1 9326   4.017   2.674   3.150
 3147TIP3    H2 9327   4.095   2.743   3.259
 3148TIP3   OH2 9328   4.352   2.595   3.271
 3148TIP3    H1 9329   4.257   2.611   3.252
 3148TIP3    H2 9330   4.394   2.668   3.225
 3149TIP3   OH2 9331   4.561   2.787   3.185
 3149TIP3    H1 9332   4.544   2.871   3.137
 3149TIP3    H2 9333   4.585   2.727   3.110
 3150TIP3   OH2 9334   3.331   2.441   3.305
 3150TIP3    H1 9335   3.357   2.417   3.397
 3150TIP3    H2 9336   3.405   2.399   3.255
 3151TIP3   OH2 9337   3.526   2.313   3.164
 3151TIP3    H1 9338   3.544   2.229   3.213
 3151TIP3    H2 9339   3.615   2.352   3.160
 3152TIP3   OH2 9340   3.789   2.408   3.170
 3152TIP3    H1 9341   3.825   2.319   3.154
 3152TIP3    H2 9342   3.836   2.431   3.252
 3153TIP3   OH2 9343   4.897   0.947   3.164
 3153TIP3    H1 9344   4.932   0.996   3.086
 3153TIP3    H2 9345   4.800   0.959   3.154
 3154TIP3   OH2 9346   4.985   1.044   2.925
 3154TIP3    H1 9347   5.057   0.992   2.884
 3154TIP3    H2 9348   5.019   1.135   2.909
 3155TIP3   OH2 9349   3.613   0.773   3.267
 3155TIP3    H1 9350   3.521   0.738   3.270
 3155TIP3    H2 9351   3.664   0.690   3.268
 3156TIP3   OH2 9352   3.400   0.639   2.919
 3156TIP3    H1 9353   3.434   0.693   2.845
 3156TIP3    H2 9354   3.376   0.708   2.984
 3157TIP3   OH2 9355   4.058   0.806   3.152
 3157TIP3    H1 9356   4.115   0.851   3.088
 3157TIP3    H2 9357   4.089   0.843   3.235
 3158TIP3   OH2 9358   4.622   0.955   3.141
 3158TIP3    H1 9359   4.600   0.927   3.051
 3158TIP3    H2 9360   4.594   0.877   3.193
 3159TIP3   OH2 9361   4.637   0.876   2.699
 3159TIP3    H1 9362   4.549   0.915   2.704
 3159TIP3    H2 9363   4.622   0.790   2.743
 3160TIP3   OH2 9364   3.119   2.217   2.703
 3160TIP3    H1 9365   3.034   2.185   2.667
 3160TIP3    H2 9366   3.113   2.310   2.676
 3161TIP3   OH2 9367   3.522   0.795   2.688
 3161TIP3    H1 9368   3.571   0.737   2.627
 3161TIP3    H2 9369   3.594   0.853   2.721
 3162TIP3   OH2 9370   4.030   0.979   2.784
 3162TIP3    H1 9371   4.095   0.932   2.839
 3162TIP3    H2 9372   4.055   1.071   2.806
 3163TIP3   OH2 9373   3.895   2.399   2.284
 3163TIP3    H1 9374   3.982   2.423   2.245
 3163TIP3    H2 9375   3.870   2.327   2.223
 3164TIP3   OH2 9376   4.612   2.521   2.373
 3164TIP3    H1 9377   4.604   2.424   2.361
 3164TIP3    H2 9378   4.565   2.554   2.293
 3165TIP3   OH2 9379   3.824   1.050   4.160
 3165TIP3    H1 9380   3.790   0.982   4.220
 3165TIP3    H2 9381   3.918   1.053   4.188
 3166TIP3   OH2 9382   4.073   1.051   4.280
 3166TIP3    H1 9383   4.159   1.027   4.242
 3166TIP3    H2 9384   4.061   0.980   4.347
 3167TIP3   OH2 9385   3.192   2.228   2.338
 3167TIP3    H1 9386   3.201   2.272   2.424
 3167TIP3    H2 9387   3.283   2.192   2.323
 3168TIP3   OH2 9388   4.899   1.112   4.068
 3168TIP3    H1 9389   4.919   1.082   4.159
 3168TIP3    H2 9390   4.988   1.108   4.027
 3169TIP3   OH2 9391   4.831   2.662   3.567
 3169TIP3    H1 9392   4.757   2.633   3.510
 3169TIP3    H2 9393   4.820   2.759   3.562
 3170TIP3   OH2 9394   6.103   2.037   2.327
 3170TIP3    H1 9395   6.074   2.128   2.306
 3170TIP3    H2 9396   6.029   1.986   2.291
 3171TIP3   OH2 9397   6.102   2.040   2.709
 3171TIP3    H1 9398   6.134   2.008   2.796
 3171TIP3    H2 9399   6.063   1.959   2.672
 3172TIP3   OH2 9400   5.401   1.935   3.077
 3172TIP3    H1 9401   5.434   1.866   3.137
 3172TIP3    H2 9402   5.484   1.982   3.056
 3173TIP3   OH2 9403   6.347   2.340   2.390
 3173TIP3    H1 9404   6.332   2.270   2.454
 3173TIP3    H2 9405   6.377   2.414   2.446
 3174TIP3   OH2 9406   5.375   2.342   2.799
 3174TIP3    H1 9407   5.366   2.245   2.800
 3174TIP3    H2 9408   5.471   2.351   2.789
 3175TIP3   OH2 9409   5.079   1.544   2.584
 3175TIP3    H1 9410   5.030   1.628   2.596
 3175TIP3    H2 9411   5.010   1.491   2.539
 3176TIP3   OH2 9412   5.139   1.832   2.756
 3176TIP3    H1 9413   5.189   1.755   2.791
 3176TIP3    H2 9414   5.196   1.862   2.685
 3177TIP3   OH2 9415   5.998   2.803   2.408
 3177TIP3    H1 9416   6.040   2.732   2.355
 3177TIP3    H2 9417   5.990   2.761   2.494
 3178TIP3   OH2 9418   5.901   2.263   2.758
 3178TIP3    H1 9419   5.940   2.187   2.712
 3178TIP3    H2 9420   5.984   2.309   2.782
 3179TIP3   OH2 9421   6.916   1.581   2.754
 3179TIP3    H1 9422   6.944   1.666   2.795
 3179TIP3    H2 9423   6.938   1.597   2.661
 3180TIP3   OH2 9424   6.312   1.763   2.789
 3180TIP3    H1 9425   6.357   1.679   2.807
 3180TIP3    H2 9426   6.282   1.748   2.697
 3181TIP3   OH2 9427   5.652   1.424   2.754
 3181TIP3    H1 9428   5.633   1.496   2.691
 3181TIP3    H2 9429   5.606   1.350   2.709
 3182TIP3   OH2 9430   6.346   1.518   2.376
 3182TIP3    H1 9431   6.419   1.501   2.440
 3182TIP3    H2 9432   6.398   1.550   2.299
 3183TIP3   OH2 9433   5.285   1.624   2.862
 3183TIP3    H1 9434   5.369   1.605   2.908
 3183TIP3    H2 9435   5.297   1.570   2.781
 3184TIP3   OH2 9436   5.725   1.823   2.658
 3184TIP3    H1 9437   5.819   1.799   2.667
 3184TIP3    H2 9438   5.687   1.740   2.623
 3185TIP3   OH2 9439   6.989   1.790   2.925
 3185TIP3    H1 9440   6.906   1.838   2.905
 3185TIP3    H2 9441   7.007   1.823   3.015
 3186TIP3   OH2 9442   5.648   1.408   3.189
 3186TIP3    H1 9443   5.589   1.444   3.119
 3186TIP3    H2 9444   5.595   1.428   3.269
 3187TIP3   OH2 9445   5.992   2.257   2.198
 3187TIP3    H1 9446   5.954   2.239   2.111
 3187TIP3    H2 9447   5.948   2.341   2.221
 3188TIP3   OH2 9448   5.755   2.182   2.982
 3188TIP3    H1 9449   5.694   2.250   3.018
 3188TIP3    H2 9450   5.799   2.231   2.909
 3189TIP3   OH2 9451   6.555   1.519   2.549
 3189TIP3    H1 9452   6.552   1.466   2.629
 3189TIP3    H2 9453   6.610   1.595   2.576
 3190TIP3   OH2 9454   5.520   1.521   2.972
 3190TIP3    H1 9455   5.582   1.594   2.994
 3190TIP3    H2 9456   5.567   1.481   2.896
 3191TIP3   OH2 9457   5.583   2.378   3.081
 3191TIP3    H1 9458   5.558   2.463   3.040
 3191TIP3    H2 9459   5.504   2.362   3.136
 3192TIP3   OH2 9460   4.975   2.067   2.317
 3192TIP3    H1 9461   4.936   2.092   2.231
 3192TIP3    H2 9462   5.007   2.153   2.351
 3193TIP3   OH2 9463   6.416   2.583   2.558
 3193TIP3    H1 9464   6.326   2.574   2.596
 3193TIP3    H2 9465   6.408   2.669   2.512
 3194TIP3   OH2 9466   6.708   1.482   2.921
 3194TIP3    H1 9467   6.621   1.509   2.888
 3194TIP3    H2 9468   6.768   1.513   2.850
 3195TIP3   OH2 9469   6.005   1.126   2.903
 3195TIP3    H1 9470   5.989   1.031   2.917
 3195TIP3    H2 9471   5.927   1.164   2.949
 3196TIP3   OH2 9472   6.116   2.630   2.229
 3196TIP3    H1 9473   6.165   2.546   2.210
 3196TIP3    H2 9474   6.178   2.694   2.189
 3197TIP3   OH2 9475   6.259   2.415   2.139
 3197TIP3    H1 9476   6.230   2.334   2.094
 3197TIP3    H2 9477   6.296   2.379   2.222
 3198TIP3   OH2 9478   6.642   2.495   2.900
 3198TIP3    H1 9479   6.631   2.418   2.841
 3198TIP3    H2 9480   6.626   2.570   2.839
 3199TIP3   OH2 9481   5.935   1.891   2.158
 3199TIP3    H1 9482   5.855   1.941   2.134
 3199TIP3    H2 9483   5.981   1.884   2.073
 3200TIP3   OH2 9484   5.893   1.674   1.874
 3200TIP3    H1 9485   5.962   1.725   1.920
 3200TIP3    H2 9486   5.949   1.609   1.826
 3201TIP3   OH2 9487   6.838   2.133   2.746
 3201TIP3    H1 9488   6.754   2.184   2.750
 3201TIP3    H2 9489   6.868   2.156   2.656
 3202TIP3   OH2 9490   6.282   1.973   2.129
 3202TIP3    H1 9491   6.228   1.996   2.208
 3202TIP3    H2 9492   6.365   1.946   2.172
 3203TIP3   OH2 9493   6.517   2.009   3.043
 3203TIP3    H1 9494   6.514   2.093   3.093
 3203TIP3    H2 9495   6.431   2.015   2.996
 3204TIP3   OH2 9496   5.513   1.970   2.548
 3204TIP3    H1 9497   5.471   1.912   2.480
 3204TIP3    H2 9498   5.590   1.915   2.576
 3205TIP3   OH2 9499   5.642   2.379   2.696
 3205TIP3    H1 9500   5.623   2.342   2.608
 3205TIP3    H2 9501   5.732   2.344   2.713
 3206TIP3   OH2 9502   5.646   1.941   2.902
 3206TIP3    H1 9503   5.680   1.916   2.814
 3206TIP3    H2 9504   5.692   2.026   2.919
 3207TIP3   OH2 9505   6.174   2.579   2.677
 3207TIP3    H1 9506   6.162   2.658   2.733
 3207TIP3    H2 9507   6.160   2.505   2.740
 3208TIP3   OH2 9508   5.789   2.497   3.225
 3208TIP3    H1 9509   5.729   2.559   3.270
 3208TIP3    H2 9510   5.724   2.444   3.174
 3209TIP3   OH2 9511   6.120   1.831   1.955
 3209TIP3    H1 9512   6.181   1.890   2.006
 3209TIP3    H2 9513   6.147   1.853   1.862
 3210TIP3   OH2 9514   5.545   2.051   3.332
 3210TIP3    H1 9515   5.546   2.140   3.372
 3210TIP3    H2 9516   5.449   2.033   3.333
 3211TIP3   OH2 9517   5.865   2.509   2.234
 3211TIP3    H1 9518   5.947   2.561   2.244
 3211TIP3    H2 9519   5.806   2.571   2.189
 3212TIP3   OH2 9520   5.583   2.664   3.310
 3212TIP3    H1 9521   5.549   2.665   3.219
 3212TIP3    H2 9522   5.503   2.642   3.362
 3213TIP3   OH2 9523   6.642   1.071   2.006
 3213TIP3    H1 9524   6.557   1.086   2.051
 3213TIP3    H2 9525   6.652   1.154   1.955
 3214TIP3   OH2 9526   5.378   1.813   2.356
 3214TIP3    H1 9527   5.313   1.857   2.297
 3214TIP3    H2 9528   5.342   1.723   2.359
 3215TIP3   OH2 9529   6.438   2.437   1.554
 3215TIP3    H1 9530   6.446   2.534   1.537
 3215TIP3    H2 9531   6.530   2.407   1.540
 3216TIP3   OH2 9532   5.160   2.197   3.261
 3216TIP3    H1 9533   5.095   2.178   3.190
 3216TIP3    H2 9534   5.197   2.109   3.281
 3217TIP3   OH2 9535   5.015   2.386   2.895
 3217TIP3    H1 9536   5.111   2.383   2.880
 3217TIP3    H2 9537   5.006   2.469   2.944
 3218TIP3   OH2 9538   6.880   2.840   2.946
 3218TIP3    H1 9539   6.879   2.744   2.961
 3218TIP3    H2 9540   6.797   2.866   2.992
 3219TIP3   OH2 9541   5.986   2.626   3.081
 3219TIP3    H1 9542   5.984   2.719   3.114
 3219TIP3    H2 9543   5.915   2.586   3.136
 3220TIP3   OH2 9544   5.747   2.754   2.033
 3220TIP3    H1 9545   5.702   2.734   1.950
 3220TIP3    H2 9546   5.714   2.843   2.056
 3221TIP3   OH2 9547   5.184   2.604   2.418
 3221TIP3    H1 9548   5.232   2.594   2.503
 3221TIP3    H2 9549   5.130   2.524   2.418
 3222TIP3   OH2 9550   5.948   2.656   1.673
 3222TIP3    H1 9551   6.007   2.586   1.636
 3222TIP3    H2 9552   5.983   2.665   1.764
 3223TIP3   OH2 9553   5.999   2.705   1.943
 3223TIP3    H1 9554   5.910   2.714   1.985
 3223TIP3    H2 9555   6.049   2.662   2.014
 3224TIP3   OH2 9556   6.769   1.970   3.222
 3224TIP3    H1 9557   6.689   1.983   3.170
 3224TIP3    H2 9558   6.785   1.874   3.211
 3225TIP3   OH2 9559   5.366   2.379   3.246
 3225TIP3    H1 9560   5.415   2.361   3.329
 3225TIP3    H2 9561   5.292   2.315   3.253
 3226TIP3   OH2 9562   5.766   1.200   3.033
 3226TIP3    H1 9563   5.677   1.171   3.004
 3226TIP3    H2 9564   5.741   1.284   3.076
 3227TIP3   OH2 9565   6.300   1.317   3.225
 3227TIP3    H1 9566   6.369   1.290   3.290
 3227TIP3    H2 9567   6.216   1.297   3.272
 3228TIP3   OH2 9568   6.537   1.745   3.143
 3228TIP3    H1 9569   6.488   1.743   3.228
 3228TIP3    H2 9570   6.515   1.833   3.107
 3229TIP3   OH2 9571   6.199   1.880   1.701
 3229TIP3    H1 9572   6.164   1.852   1.615
 3229TIP3    H2 9573   6.283   1.921   1.674
 3230TIP3   OH2 9574   5.908   1.255   2.001
 3230TIP3    H1 9575   5.874   1.247   2.092
 3230TIP3    H2 9576   5.882   1.168   1.966
 3231TIP3   OH2 9577   5.697   1.718   3.049
 3231TIP3    H1 9578   5.647   1.740   3.130
 3231TIP3    H2 9579   5.682   1.799   2.995
 3232TIP3   OH2 9580   5.581   1.604   2.564
 3232TIP3    H1 9581   5.488   1.578   2.580
 3232TIP3    H2 9582   5.595   1.565   2.475
 3233TIP3   OH2 9583   6.072   1.690   2.293
 3233TIP3    H1 9584   6.020   1.761   2.248
 3233TIP3    H2 9585   6.127   1.657   2.219
 3234TIP3   OH2 9586   6.247   1.967   3.377
 3234TIP3    H1 9587   6.226   1.894   3.439
 3234TIP3    H2 9588   6.340   1.982   3.398
 3235TIP3   OH2 9589   6.227   1.718   2.530
 3235TIP3    H1 9590   6.167   1.746   2.457
 3235TIP3    H2 9591   6.264   1.637   2.487
 3236TIP3   OH2 9592   5.516   1.748   3.258
 3236TIP3    H1 9593   5.550   1.811   3.324
 3236TIP3    H2 9594   5.506   1.666   3.310
 3237TIP3   OH2 9595   5.565   1.226   1.967
 3237TIP3    H1 9596   5.557   1.221   2.065
 3237TIP3    H2 9597   5.485   1.277   1.944
 3238TIP3   OH2 9598   5.108   1.268   2.844
 3238TIP3    H1 9599   5.187   1.300   2.892
 3238TIP3    H2 9600   5.142   1.239   2.758
 3239TIP3   OH2 9601   5.081   1.249   2.361
 3239TIP3    H1 9602   5.126   1.285   2.281
 3239TIP3    H2 9603   5.020   1.323   2.379
 3240TIP3   OH2 9604   6.238   1.963   2.953
 3240TIP3    H1 9605   6.271   1.891   2.894
 3240TIP3    H2 9606   6.209   1.909   3.030
 3241TIP3   OH2 9607   5.911   1.427   2.626
 3241TIP3    H1 9608   5.829   1.424   2.679
 3241TIP3    H2 9609   5.980   1.424   2.694
 3242TIP3   OH2 9610   5.342   1.481   2.634
 3242TIP3    H1 9611   5.248   1.488   2.605
 3242TIP3    H2 9612   5.366   1.391   2.608
 3243TIP3   OH2 9613   5.610   1.480   2.322
 3243TIP3    H1 9614   5.705   1.491   2.300
 3243TIP3    H2 9615   5.565   1.501   2.237
 3244TIP3   OH2 9616   6.402   1.502   2.830
 3244TIP3    H1 9617   6.363   1.514   2.920
 3244TIP3    H2 9618   6.337   1.441   2.791
 3245TIP3   OH2 9619   5.454   1.514   2.099
 3245TIP3    H1 9620   5.384   1.467   2.050
 3245TIP3    H2 9621   5.507   1.549   2.025
 3246TIP3   OH2 9622   6.571   3.191   3.046
 3246TIP3    H1 9623   6.571   3.214   2.952
 3246TIP3    H2 9624   6.651   3.238   3.078
 3247TIP3   OH2 9625   5.524   2.300   3.471
 3247TIP3    H1 9626   5.607   2.330   3.513
 3247TIP3    H2 9627   5.463   2.304   3.546
 3248TIP3   OH2 9628   5.992   1.754   2.721
 3248TIP3    H1 9629   6.064   1.717   2.667
 3248TIP3    H2 9630   6.005   1.709   2.806
 3249TIP3   OH2 9631   5.515   1.243   2.600
 3249TIP3    H1 9632   5.482   1.162   2.645
 3249TIP3    H2 9633   5.560   1.206   2.523
 3250TIP3   OH2 9634   5.968   1.647   3.018
 3250TIP3    H1 9635   5.879   1.687   3.026
 3250TIP3    H2 9636   6.026   1.711   3.063
 3251TIP3   OH2 9637   5.703   2.043   2.106
 3251TIP3    H1 9638   5.632   1.976   2.095
 3251TIP3    H2 9639   5.685   2.075   2.197
 3252TIP3   OH2 9640   6.605   2.278   2.735
 3252TIP3    H1 9641   6.629   2.327   2.654
 3252TIP3    H2 9642   6.520   2.236   2.710
 3253TIP3   OH2 9643   6.162   1.353   1.974
 3253TIP3    H1 9644   6.066   1.334   1.977
 3253TIP3    H2 9645   6.168   1.448   1.994
 3254TIP3   OH2 9646   6.101   2.358   3.105
 3254TIP3    H1 9647   6.134   2.342   3.194
 3254TIP3    H2 9648   6.066   2.449   3.110
 3255TIP3   OH2 9649   6.231   1.604   2.076
 3255TIP3    H1 9650   6.328   1.607   2.087
 3255TIP3    H2 9651   6.214   1.681   2.019
 3256TIP3   OH2 9652   5.397   2.064   2.782
 3256TIP3    H1 9653   5.433   2.038   2.695
 3256TIP3    H2 9654   5.442   2.002   2.841
 3257TIP3   OH2 9655   5.851   2.192   1.930
 3257TIP3    H1 9656   5.803   2.277   1.935
 3257TIP3    H2 9657   5.796   2.136   1.989
 3258TIP3   OH2 9658   5.275   1.984   3.398
 3258TIP3    H1 9659   5.293   1.966   3.492
 3258TIP3    H2 9660   5.206   1.919   3.377
 3259TIP3   OH2 9661   6.004   2.097   3.417
 3259TIP3    H1 9662   5.947   2.042   3.363
 3259TIP3    H2 9663   6.093   2.065   3.389
 3260TIP3   OH2 9664   6.264   2.619   3.001
 3260TIP3    H1 9665   6.167   2.619   3.013
 3260TIP3    H2 9666   6.292   2.671   3.079
 3261TIP3   OH2 9667   6.674   1.692   1.909
 3261TIP3    H1 9668   6.612   1.647   1.847
 3261TIP3    H2 9669   6.671   1.781   1.866
 3262TIP3   OH2 9670   6.892   2.549   2.989
 3262TIP3    H1 9671   6.795   2.544   2.981
 3262TIP3    H2 9672   6.918   2.519   2.899
 3263TIP3   OH2 9673   6.376   2.510   1.818
 3263TIP3    H1 9674   6.349   2.439   1.877
 3263TIP3    H2 9675   6.388   2.465   1.732
 3264TIP3   OH2 9676   6.370   2.140   2.655
 3264TIP3    H1 9677   6.277   2.115   2.667
 3264TIP3    H2 9678   6.404   2.060   2.610
 3265TIP3   OH2 9679   5.499   2.369   2.411
 3265TIP3    H1 9680   5.500   2.449   2.355
 3265TIP3    H2 9681   5.404   2.350   2.414
 3266TIP3   OH2 9682   5.062   1.672   2.111
 3266TIP3    H1 9683   5.108   1.756   2.132
 3266TIP3    H2 9684   4.985   1.677   2.172
 3267TIP3   OH2 9685   5.634   2.133   2.352
 3267TIP3    H1 9686   5.601   2.223   2.371
 3267TIP3    H2 9687   5.598   2.083   2.427
 3268TIP3   OH2 9688   5.768   2.711   2.877
 3268TIP3    H1 9689   5.809   2.783   2.826
 3268TIP3    H2 9690   5.845   2.675   2.924
 3269TIP3   OH2 9691   5.417   2.607   2.260
 3269TIP3    H1 9692   5.331   2.615   2.306
 3269TIP3    H2 9693   5.449   2.700   2.262
 3270TIP3   OH2 9694   6.155   2.346   2.835
 3270TIP3    H1 9695   6.146   2.342   2.933
 3270TIP3    H2 9696   6.234   2.293   2.821
 3271TIP3   OH2 9697   6.131   2.241   1.719
 3271TIP3    H1 9698   6.184   2.215   1.798
 3271TIP3    H2 9699   6.043   2.210   1.746
 3272TIP3   OH2 9700   6.403   2.879   2.886
 3272TIP3    H1 9701   6.324   2.823   2.878
 3272TIP3    H2 9702   6.388   2.943   2.814
 3273TIP3   OH2 9703   6.470   2.713   1.537
 3273TIP3    H1 9704   6.507   2.786   1.485
 3273TIP3    H2 9705   6.389   2.758   1.571
 3274TIP3   OH2 9706   5.488   1.492   3.405
 3274TIP3    H1 9707   5.391   1.493   3.414
 3274TIP3    H2 9708   5.514   1.429   3.474
 3275TIP3   OH2 9709   6.291   2.177   1.938
 3275TIP3    H1 9710   6.280   2.107   2.006
 3275TIP3    H2 9711   6.388   2.171   1.923
 3276TIP3   OH2 9712   5.204   2.575   3.037
 3276TIP3    H1 9713   5.259   2.500   3.065
 3276TIP3    H2 9714   5.240   2.646   3.092
 3277TIP3   OH2 9715   5.495   2.220   1.719
 3277TIP3    H1 9716   5.509   2.128   1.688
 3277TIP3    H2 9717   5.475   2.206   1.813
 3278TIP3   OH2 9718   5.440   2.224   1.992
 3278TIP3    H1 9719   5.515   2.196   2.046
 3278TIP3    H2 9720   5.445   2.322   1.998
 3279TIP3   OH2 9721   5.176   1.917   2.194
 3279TIP3    H1 9722   5.110   1.962   2.250
 3279TIP3    H2 9723   5.191   1.985   2.126
 3280TIP3   OH2 9724   6.323   1.558   3.089
 3280TIP3    H1 9725   6.407   1.593   3.122
 3280TIP3    H2 9726   6.313   1.475   3.142
 3281TIP3   OH2 9727   6.195   1.310   2.254
 3281TIP3    H1 9728   6.188   1.325   2.157
 3281TIP3    H2 9729   6.241   1.391   2.284
 3282TIP3   OH2 9730   5.707   2.421   1.941
 3282TIP3    H1 9731   5.620   2.449   1.975
 3282TIP3    H2 9732   5.722   2.489   1.873
 3283TIP3   OH2 9733   5.893   1.486   2.353
 3283TIP3    H1 9734   5.959   1.555   2.334
 3283TIP3    H2 9735   5.901   1.479   2.451
 3284TIP3   OH2 9736   6.163   1.802   3.161
 3284TIP3    H1 9737   6.189   1.855   3.239
 3284TIP3    H2 9738   6.219   1.723   3.169
 3285TIP3   OH2 9739   6.039   1.210   2.456
 3285TIP3    H1 9740   6.030   1.289   2.511
 3285TIP3    H2 9741   6.099   1.244   2.385
 3286TIP3   OH2 9742   5.452   2.497   2.006
 3286TIP3    H1 9743   5.421   2.567   1.944
 3286TIP3    H2 9744   5.435   2.541   2.093
 3287TIP3   OH2 9745   5.551   1.210   2.246
 3287TIP3    H1 9746   5.550   1.302   2.280
 3287TIP3    H2 9747   5.647   1.192   2.252
 3288TIP3   OH2 9748   6.805   1.703   3.142
 3288TIP3    H1 9749   6.707   1.701   3.148
 3288TIP3    H2 9750   6.818   1.666   3.054
 3289TIP3   OH2 9751   6.455   1.898   2.530
 3289TIP3    H1 9752   6.380   1.837   2.539
 3289TIP3    H2 9753   6.527   1.850   2.577
 3290TIP3   OH2 9754   5.169   2.125   1.999
 3290TIP3    H1 9755   5.238   2.194   2.007
 3290TIP3    H2 9756   5.213   2.068   1.932
 3291TIP3   OH2 9757   5.111   1.402   2.137
 3291TIP3    H1 9758   5.111   1.499   2.130
 3291TIP3    H2 9759   5.036   1.377   2.081
 3292TIP3   OH2 9760   6.424   2.855   2.479
 3292TIP3    H1 9761   6.381   2.902   2.404
 3292TIP3    H2 9762   6.518   2.874   2.458
 3293TIP3   OH2 9763   5.500   1.123   3.006
 3293TIP3    H1 9764   5.470   1.091   2.918
 3293TIP3    H2 9765   5.489   1.043   3.062
 3294TIP3   OH2 9766   5.040   2.343   2.386
 3294TIP3    H1 9767   4.968   2.372   2.444
 3294TIP3    H2 9768   5.012   2.382   2.300
 3295TIP3   OH2 9769   5.197   2.884   3.460
 3295TIP3    H1 9770   5.284   2.885   3.505
 3295TIP3    H2 9771   5.180   2.788   3.455
 3296TIP3   OH2 9772   5.675   2.846   3.504
 3296TIP3    H1 9773   5.770   2.831   3.511
 3296TIP3    H2 9774   5.653   2.786   3.429
 3297TIP3   OH2 9775   5.660   2.423   1.632
 3297TIP3    H1 9776   5.604   2.350   1.668
 3297TIP3    H2 9777   5.735   2.371   1.595
 3298TIP3   OH2 9778   6.316   2.754   3.236
 3298TIP3    H1 9779   6.308   2.683   3.305
 3298TIP3    H2 9780   6.395   2.803   3.266
 3299TIP3   OH2 9781   6.095   2.463   1.543
 3299TIP3    H1 9782   6.137   2.397   1.601
 3299TIP3    H2 9783   6.152   2.460   1.463
 3300TIP3   OH2 9784   5.321   2.279   3.665
 3300TIP3    H1 9785   5.345   2.185   3.654
 3300TIP3    H2 9786   5.237   2.284   3.615
 3301TIP3   OH2 9787   5.304   1.939   1.852
 3301TIP3    H1 9788   5.360   1.905   1.924
 3301TIP3    H2 9789   5.370   1.943   1.780
 3302TIP3   OH2 9790   5.931   2.372   3.433
 3302TIP3    H1 9791   5.895   2.392   3.345
 3302TIP3    H2 9792   5.965   2.281   3.423
 3303TIP3   OH2 9793   5.815   2.138   1.660
 3303TIP3    H1 9794   5.818   2.150   1.757
 3303TIP3    H2 9795   5.817   2.040   1.654
 3304TIP3   OH2 9796   6.426   2.384   3.038
 3304TIP3    H1 9797   6.503   2.427   2.994
 3304TIP3    H2 9798   6.357   2.452   3.023
 3305TIP3   OH2 9799   5.446   2.025   3.643
 3305TIP3    H1 9800   5.524   1.978   3.609
 3305TIP3    H2 9801   5.476   2.054   3.731
 3306TIP3   OH2 9802   5.512   1.843   2.073
 3306TIP3    H1 9803   5.487   1.797   2.155
 3306TIP3    H2 9804   5.550   1.770   2.020
 3307TIP3   OH2 9805   5.780   1.905   3.301
 3307TIP3    H1 9806   5.704   1.967   3.303
 3307TIP3    H2 9807   5.831   1.940   3.225
 3308TIP3   OH2 9808   5.613   1.639   1.914
 3308TIP3    H1 9809   5.588   1.641   1.820
 3308TIP3    H2 9810   5.711   1.641   1.907
 3309TIP3   OH2 9811   6.297   2.308   3.435
 3309TIP3    H1 9812   6.379   2.288   3.389
 3309TIP3    H2 9813   6.296   2.243   3.507
 3310TIP3   OH2 9814   6.434   1.968   1.578
 3310TIP3    H1 9815   6.414   1.921   1.495
 3310TIP3    H2 9816   6.401   2.058   1.554
 3311TIP3   OH2 9817   5.902   1.696   3.430
 3311TIP3    H1 9818   5.905   1.617   3.372
 3311TIP3    H2 9819   5.861   1.762   3.370
 3312TIP3   OH2 9820   5.907   1.482   3.238
 3312TIP3    H1 9821   5.936   1.524   3.154
 3312TIP3    H2 9822   5.814   1.460   3.217
 3313TIP3   OH2 9823   5.932   2.018   3.111
 3313TIP3    H1 9824   6.017   2.025   3.065
 3313TIP3    H2 9825   5.877   2.085   3.065
 3314TIP3   OH2 9826   6.516   1.985   3.490
 3314TIP3    H1 9827   6.566   1.903   3.495
 3314TIP3    H2 9828   6.582   2.047   3.455
 3315TIP3   OH2 9829   6.557   2.237   3.223
 3315TIP3    H1 9830   6.499   2.292   3.165
 3315TIP3    H2 9831   6.644   2.258   3.184
 3316TIP3   OH2 9832   5.780   1.807   3.661
 3316TIP3    H1 9833   5.714   1.736   3.672
 3316TIP3    H2 9834   5.816   1.786   3.572
 3317TIP3   OH2 9835   6.039   1.246   3.304
 3317TIP3    H1 9836   5.991   1.328   3.280
 3317TIP3    H2 9837   5.970   1.178   3.290
 3318TIP3   OH2 9838   6.165   1.749   3.519
 3318TIP3    H1 9839   6.154   1.737   3.615
 3318TIP3    H2 9840   6.076   1.725   3.488
 3319TIP3   OH2 9841   6.405   1.701   3.374
 3319TIP3    H1 9842   6.329   1.701   3.436
 3319TIP3    H2 9843   6.479   1.670   3.430
 3320TIP3   OH2 9844   6.631   1.640   3.526
 3320TIP3    H1 9845   6.645   1.545   3.543
 3320TIP3    H2 9846   6.629   1.678   3.616
 3321TIP3   OH2 9847   5.620   1.587   3.714
 3321TIP3    H1 9848   5.627   1.498   3.676
 3321TIP3    H2 9849   5.659   1.572   3.803
 3322TIP3   OH2 9850   6.131   1.254   3.562
 3322TIP3    H1 9851   6.200   1.184   3.555
 3322TIP3    H2 9852   6.093   1.250   3.472
 3323TIP3   OH2 9853   6.198   1.469   3.721
 3323TIP3    H1 9854   6.177   1.398   3.656
 3323TIP3    H2 9855   6.121   1.529   3.712
 3324TIP3   OH2 9856   5.421   2.701   1.820
 3324TIP3    H1 9857   5.516   2.694   1.800
 3324TIP3    H2 9858   5.391   2.749   1.741
 3325TIP3   OH2 9859   4.900   2.080   2.037
 3325TIP3    H1 9860   4.995   2.102   2.021
 3325TIP3    H2 9861   4.894   1.992   1.994
 3326TIP3   OH2 9862   4.815   2.694   2.448
 3326TIP3    H1 9863   4.748   2.632   2.411
 3326TIP3    H2 9864   4.859   2.635   2.514
 3327TIP3   OH2 9865   4.950   2.544   2.636
 3327TIP3    H1 9866   4.937   2.471   2.698
 3327TIP3    H2 9867   5.002   2.605   2.691
 3328TIP3   OH2 9868   6.677   2.947   2.436
 3328TIP3    H1 9869   6.706   2.977   2.523
 3328TIP3    H2 9870   6.743   2.986   2.377
 3329TIP3   OH2 9871   6.708   2.965   2.718
 3329TIP3    H1 9872   6.663   2.878   2.714
 3329TIP3    H2 9873   6.782   2.942   2.776
 3330TIP3   OH2 9874   6.753   2.641   3.291
 3330TIP3    H1 9875   6.680   2.651   3.355
 3330TIP3    H2 9876   6.795   2.729   3.295
 3331TIP3   OH2 9877   6.569   2.155   1.911
 3331TIP3    H1 9878   6.638   2.218   1.881
 3331TIP3    H2 9879   6.613   2.116   1.989
 3332TIP3   OH2 9880   6.697   2.023   2.115
 3332TIP3    H1 9881   6.631   1.979   2.173
 3332TIP3    H2 9882   6.762   2.059   2.178
 3333TIP3   OH2 9883   6.752   2.414   2.546
 3333TIP3    H1 9884   6.805   2.348   2.498
 3333TIP3    H2 9885   6.746   2.487   2.482
 3334TIP3   OH2 9886   6.583   2.715   2.741
 3334TIP3    H1 9887   6.511   2.756   2.793
 3334TIP3    H2 9888   6.533   2.667   2.671
 3335TIP3   OH2 9889   6.635   1.931   1.761
 3335TIP3    H1 9890   6.564   1.931   1.693
 3335TIP3    H2 9891   6.607   2.006   1.816
 3336TIP3   OH2 9892   6.503   1.603   1.717
 3336TIP3    H1 9893   6.464   1.635   1.635
 3336TIP3    H2 9894   6.480   1.507   1.711
 3337TIP3   OH2 9895   6.511   1.879   2.260
 3337TIP3    H1 9896   6.518   1.782   2.251
 3337TIP3    H2 9897   6.497   1.890   2.356
 3338TIP3   OH2 9898   5.137   1.949   3.009
 3338TIP3    H1 9899   5.135   1.919   2.916
 3338TIP3    H2 9900   5.234   1.954   3.025
 3339TIP3   OH2 9901   6.800   2.303   3.117
 3339TIP3    H1 9902   6.872   2.237   3.108
 3339TIP3    H2 9903   6.827   2.373   3.055
 3340TIP3   OH2 9904   6.984   2.107   3.132
 3340TIP3    H1 9905   6.910   2.057   3.173
 3340TIP3    H2 9906   7.058   2.044   3.147
 3341TIP3   OH2 9907   6.446   1.337   1.706
 3341TIP3    H1 9908   6.519   1.305   1.763
 3341TIP3    H2 9909   6.373   1.275   1.725
 3342TIP3   OH2 9910   6.509   1.596   2.155
 3342TIP3    H1 9911   6.548   1.507   2.171
 3342TIP3    H2 9912   6.566   1.626   2.082
 3343TIP3   OH2 9913   6.669   1.769   2.651
 3343TIP3    H1 9914   6.755   1.794   2.609
 3343TIP3    H2 9915   6.684   1.806   2.740
 3344TIP3   OH2 9916   6.739   1.913   2.883
 3344TIP3    H1 9917   6.661   1.947   2.930
 3344TIP3    H2 9918   6.772   1.993   2.837
 3345TIP3   OH2 9919   5.353   1.640   3.685
 3345TIP3    H1 9920   5.451   1.632   3.683
 3345TIP3    H2 9921   5.330   1.553   3.724
 3346TIP3   OH2 9922   7.189   1.503   3.438
 3346TIP3    H1 9923   7.249   1.439   3.395
 3346TIP3    H2 9924   7.159   1.558   3.362
 3347TIP3   OH2 9925   6.615   1.346   2.195
 3347TIP3    H1 9926   6.663   1.327   2.278
 3347TIP3    H2 9927   6.555   1.269   2.190
 3348TIP3   OH2 9928   5.316   1.332   3.019
 3348TIP3    H1 9929   5.379   1.256   3.023
 3348TIP3    H2 9930   5.379   1.406   3.007
 3349TIP3   OH2 9931   5.119   1.605   3.087
 3349TIP3    H1 9932   5.167   1.595   3.002
 3349TIP3    H2 9933   5.148   1.693   3.114
 3350TIP3   OH2 9934   7.059   1.643   3.245
 3350TIP3    H1 9935   6.973   1.684   3.264
 3350TIP3    H2 9936   7.030   1.571   3.185
 3351TIP3   OH2 9937   6.696   1.289   1.838
 3351TIP3    H1 9938   6.728   1.218   1.777
 3351TIP3    H2 9939   6.763   1.358   1.823
 3352TIP3   OH2 9940   5.102   1.116   2.594
 3352TIP3    H1 9941   5.007   1.106   2.611
 3352TIP3    H2 9942   5.102   1.169   2.511
 3353TIP3   OH2 9943   6.262   2.813   2.093
 3353TIP3    H1 9944   6.311   2.797   2.010
 3353TIP3    H2 9945   6.319   2.877   2.138
 3354TIP3   OH2 9946   5.323   1.188   3.402
 3354TIP3    H1 9947   5.270   1.184   3.483
 3354TIP3    H2 9948   5.258   1.226   3.340
 3355TIP3   OH2 9949   5.363   2.614   3.476
 3355TIP3    H1 9950   5.270   2.588   3.462
 3355TIP3    H2 9951   5.373   2.605   3.572
 3356TIP3   OH2 9952   5.540   2.649   3.026
 3356TIP3    H1 9953   5.494   2.726   2.986
 3356TIP3    H2 9954   5.627   2.662   2.981
 3357TIP3   OH2 9955   5.984   2.893   3.163
 3357TIP3    H1 9956   6.027   2.892   3.251
 3357TIP3    H2 9957   6.051   2.944   3.111
 3358TIP3   OH2 9958   6.164   3.045   3.022
 3358TIP3    H1 9959   6.235   2.993   2.981
 3358TIP3    H2 9960   6.216   3.101   3.083
 3359TIP3   OH2 9961   6.958   1.407   3.123
 3359TIP3    H1 9962   6.868   1.402   3.085
 3359TIP3    H2 9963   6.989   1.314   3.110
 3360TIP3   OH2 9964   5.216   2.904   3.050
 3360TIP3    H1 9965   5.127   2.937   3.026
 3360TIP3    H2 9966   5.227   2.947   3.136
 3361TIP3   OH2 9967   5.453   2.884   2.908
 3361TIP3    H1 9968   5.366   2.896   2.951
 3361TIP3    H2 9969   5.434   2.915   2.817
 3362TIP3   OH2 9970   5.878   2.911   2.706
 3362TIP3    H1 9971   5.810   2.931   2.639
 3362TIP3    H2 9972   5.891   2.999   2.747
 3363TIP3   OH2 9973   6.148   2.851   2.758
 3363TIP3    H1 9974   6.054   2.868   2.737
 3363TIP3    H2 9975   6.191   2.926   2.713
 3364TIP3   OH2 9976   6.355   3.044   2.671
 3364TIP3    H1 9977   6.341   3.128   2.622
 3364TIP3    H2 9978   6.381   2.983   2.598
 3365TIP3   OH2 9979   5.128   2.698   2.794
 3365TIP3    H1 9980   5.154   2.672   2.884
 3365TIP3    H2 9981   5.200   2.655   2.743
 3366TIP3   OH2 9982   5.322   2.570   2.652
 3366TIP3    H1 9983   5.339   2.486   2.700
 3366TIP3    H2 9984   5.413   2.607   2.647
 3367TIP3   OH2 9985   5.589   2.665   2.655
 3367TIP3    H1 9986   5.620   2.574   2.640
 3367TIP3    H2 9987   5.635   2.685   2.738
 3368TIP3   OH2 9988   6.166   1.322   2.744
 3368TIP3    H1 9989   6.123   1.250   2.792
 3368TIP3    H2 9990   6.236   1.276   2.694
 3369TIP3   OH2 9991   6.687   1.209   2.655
 3369TIP3    H1 9992   6.724   1.255   2.576
 3369TIP3    H2 9993   6.591   1.219   2.640
 3370TIP3   OH2 9994   6.782   1.299   2.414
 3370TIP3    H1 9995   6.854   1.248   2.370
 3370TIP3    H2 9996   6.814   1.391   2.397
 3371TIP3   OH2 9997   5.412   1.030   2.760
 3371TIP3    H1 9998   5.320   0.999   2.757
 3371TIP3    H2 9999   5.460   0.945   2.753
 3372TIP3   OH210000   5.215   0.900   2.416
 3372TIP3    H110001   5.236   0.950   2.335
 3372TIP3    H210002   5.177   0.969   2.473
 3373TIP3   OH210003   5.857   1.060   2.640
 3373TIP3    H110004   5.913   1.104   2.573
 3373TIP3    H210005   5.886   1.104   2.721
 3374TIP3   OH210006   6.404   1.207   2.618
 3374TIP3    H110007   6.401   1.170   2.529
 3374TIP3    H210008   6.389   1.127   2.674
 3375TIP3   OH210009   6.437   1.133   2.183
 3375TIP3    H110010   6.345   1.165   2.176
 3375TIP3    H210011   6.421   1.048   2.231
 3376TIP3   OH210012   4.916   2.471   2.184
 3376TIP3    H110013   4.831   2.438   2.151
 3376TIP3    H210014   4.906   2.566   2.163
 3377TIP3   OH210015   5.316   1.059   2.170
 3377TIP3    H110016   5.361   0.995   2.112
 3377TIP3    H210017   5.392   1.111   2.204
 3378TIP3   OH210018   5.827   1.234   2.269
 3378TIP3    H110019   5.891   1.186   2.323
 3378TIP3    H210020   5.851   1.326   2.292
 3379TIP3   OH210021   5.688   2.659   1.767
 3379TIP3    H110022   5.777   2.681   1.731
 3379TIP3    H210023   5.666   2.584   1.707
 3380TIP3   OH210024   6.407   2.777   1.861
 3380TIP3    H110025   6.400   2.679   1.849
 3380TIP3    H210026   6.362   2.809   1.780
 3381TIP3   OH210027   5.619   1.309   3.649
 3381TIP3    H110028   5.587   1.238   3.707
 3381TIP3    H210029   5.714   1.311   3.675
 3382TIP3   OH210030   5.869   1.308   3.768
 3382TIP3    H110031   5.954   1.287   3.726
 3382TIP3    H210032   5.860   1.235   3.832
 3383TIP3   OH210033   4.993   2.496   1.823
 3383TIP3    H110034   4.995   2.518   1.917
 3383TIP3    H210035   5.081   2.453   1.810
 3384TIP3   OH210036   6.695   1.369   3.555
 3384TIP3    H110037   6.715   1.339   3.646
 3384TIP3    H210038   6.784   1.365   3.513
 3385TIP3   OH210039   6.634   2.922   3.046
 3385TIP3    H110040   6.554   2.890   2.998
 3385TIP3    H210041   6.613   3.017   3.052
 3386TIP3   OH210042   7.900   2.295   1.814
 3386TIP3    H110043   7.869   2.385   1.791
 3386TIP3    H210044   7.827   2.242   1.778
 3387TIP3   OH210045   7.899   2.296   2.196
 3387TIP3    H110046   7.931   2.264   2.282
 3387TIP3    H210047   7.859   2.217   2.158
 3388TIP3   OH210048   7.197   2.189   2.561
 3388TIP3    H110049   7.229   2.121   2.623
 3388TIP3    H210050   7.278   2.242   2.549
 3389TIP3   OH210051   8.147   2.596   1.876
 3389TIP3    H110052   8.125   2.526   1.938
 3389TIP3    H210053   8.170   2.670   1.934
 3390TIP3   OH210054   7.170   2.599   2.285
 3390TIP3    H110055   7.162   2.502   2.286
 3390TIP3    H210056   7.267   2.608   2.278
 3391TIP3   OH210057   6.876   1.802   2.070
 3391TIP3    H110058   6.825   1.885   2.083
 3391TIP3    H210059   6.808   1.747   2.028
 3392TIP3   OH210060   6.936   2.089   2.244
 3392TIP3    H110061   6.984   2.011   2.278
 3392TIP3    H210062   6.992   2.116   2.170
 3393TIP3   OH210063   7.794   3.059   1.894
 3393TIP3    H110064   7.837   2.988   1.843
 3393TIP3    H210065   7.784   3.018   1.980
 3394TIP3   OH210066   7.697   2.520   2.244
 3394TIP3    H110067   7.735   2.443   2.198
 3394TIP3    H210068   7.781   2.565   2.267
 3395TIP3   OH210069   8.644   1.861   2.255
 3395TIP3    H110070   8.707   1.918   2.304
 3395TIP3    H210071   8.683   1.863   2.166
 3396TIP3   OH210072   8.109   2.021   2.275
 3396TIP3    H110073   8.153   1.936   2.294
 3396TIP3    H210074   8.078   2.006   2.183
 3397TIP3   OH210075   7.449   1.681   2.240
 3397TIP3    H110076   7.428   1.753   2.177
 3397TIP3    H210077   7.402   1.607   2.196
 3398TIP3   OH210078   8.144   1.773   1.864
 3398TIP3    H110079   8.218   1.752   1.926
 3398TIP3    H210080   8.195   1.802   1.786
 3399TIP3   OH210081   7.081   1.882   2.348
 3399TIP3    H110082   7.165   1.861   2.395
 3399TIP3    H210083   7.093   1.826   2.268
 3400TIP3   OH210084   7.521   2.080   2.143
 3400TIP3    H110085   7.616   2.055   2.154
 3400TIP3    H210086   7.483   1.996   2.109
 3401TIP3   OH210087   8.781   2.044   2.408
 3401TIP3    H110088   8.698   2.096   2.406
 3401TIP3    H210089   8.826   2.081   2.487
 3402TIP3   OH210090   7.444   1.664   2.675
 3402TIP3    H110091   7.385   1.700   2.606
 3402TIP3    H210092   7.392   1.683   2.756
 3403TIP3   OH210093   7.790   2.515   1.684
 3403TIP3    H110094   7.750   2.494   1.599
 3403TIP3    H210095   7.744   2.599   1.707
 3404TIP3   OH210096   7.552   2.439   2.469
 3404TIP3    H110097   7.490   2.506   2.506
 3404TIP3    H210098   7.593   2.489   2.396
 3405TIP3   OH210099   8.357   1.769   2.036
 3405TIP3    H110100   8.341   1.726   2.121
 3405TIP3    H210101   8.409   1.848   2.062
 3406TIP3   OH210102   7.316   1.778   2.459
 3406TIP3    H110103   7.379   1.851   2.481
 3406TIP3    H210104   7.364   1.738   2.383
 3407TIP3   OH210105   7.380   2.634   2.568
 3407TIP3    H110106   7.353   2.720   2.529
 3407TIP3    H210107   7.301   2.617   2.624
 3408TIP3   OH210108   6.772   2.323   1.803
 3408TIP3    H110109   6.732   2.349   1.718
 3408TIP3    H210110   6.804   2.409   1.838
 3409TIP3   OH210111   8.215   2.840   2.044
 3409TIP3    H110112   8.125   2.830   2.084
 3409TIP3    H210113   8.204   2.925   1.997
 3410TIP3   OH210114   8.480   1.729   2.421
 3410TIP3    H110115   8.392   1.754   2.388
 3410TIP3    H210116   8.538   1.773   2.354
 3411TIP3   OH210117   7.801   1.382   2.389
 3411TIP3    H110118   7.786   1.286   2.405
 3411TIP3    H210119   7.723   1.419   2.436
 3412TIP3   OH210120   7.913   2.886   1.717
 3412TIP3    H110121   7.962   2.803   1.697
 3412TIP3    H210122   7.975   2.950   1.676
 3413TIP3   OH210123   8.057   2.672   1.625
 3413TIP3    H110124   8.024   2.592   1.582
 3413TIP3    H210125   8.094   2.635   1.708
 3414TIP3   OH210126   8.436   2.752   2.385
 3414TIP3    H110127   8.422   2.674   2.327
 3414TIP3    H210128   8.417   2.826   2.325
 3415TIP3   OH210129   7.732   2.148   1.646
 3415TIP3    H110130   7.651   2.197   1.621
 3415TIP3    H210131   7.776   2.137   1.560
 3416TIP3   OH210132   7.687   1.930   1.369
 3416TIP3    H110133   7.762   1.978   1.407
 3416TIP3    H210134   7.734   1.864   1.314
 3417TIP3   OH210135   8.631   2.390   2.236
 3417TIP3    H110136   8.547   2.441   2.238
 3417TIP3    H210137   8.660   2.406   2.144
 3418TIP3   OH210138   8.078   2.231   1.616
 3418TIP3    H110139   8.023   2.254   1.694
 3418TIP3    H210140   8.160   2.201   1.660
 3419TIP3   OH210141   8.312   2.267   2.529
 3419TIP3    H110142   8.308   2.350   2.580
 3419TIP3    H210143   8.225   2.270   2.484
 3420TIP3   OH210144   7.310   2.226   2.034
 3420TIP3    H110145   7.267   2.168   1.967
 3420TIP3    H210146   7.386   2.172   2.062
 3421TIP3   OH210147   7.440   2.638   2.181
 3421TIP3    H110148   7.418   2.598   2.095
 3421TIP3    H210149   7.529   2.602   2.198
 3422TIP3   OH210150   7.445   2.197   2.389
 3422TIP3    H110151   7.478   2.173   2.299
 3422TIP3    H210152   7.490   2.283   2.406
 3423TIP3   OH210153   7.974   2.835   2.165
 3423TIP3    H110154   7.959   2.914   2.220
 3423TIP3    H210155   7.958   2.761   2.227
 3424TIP3   OH210156   7.585   2.754   2.711
 3424TIP3    H110157   7.524   2.816   2.758
 3424TIP3    H210158   7.520   2.700   2.661
 3425TIP3   OH210159   7.918   2.085   1.446
 3425TIP3    H110160   7.976   2.144   1.498
 3425TIP3    H210161   7.945   2.110   1.354
 3426TIP3   OH210162   7.340   2.309   2.815
 3426TIP3    H110163   7.344   2.397   2.858
 3426TIP3    H210164   7.245   2.290   2.823
 3427TIP3   OH210165   7.662   2.766   1.720
 3427TIP3    H110166   7.742   2.819   1.732
 3427TIP3    H210167   7.602   2.827   1.676
 3428TIP3   OH210168   7.378   2.922   2.799
 3428TIP3    H110169   7.343   2.920   2.708
 3428TIP3    H210170   7.299   2.900   2.852
 3429TIP3   OH210171   7.175   2.069   1.841
 3429TIP3    H110172   7.109   2.113   1.783
 3429TIP3    H210173   7.138   1.981   1.848
 3430TIP3   OH210174   8.233   2.695   1.039
 3430TIP3    H110175   8.239   2.792   1.025
 3430TIP3    H210176   8.326   2.668   1.022
 3431TIP3   OH210177   6.957   2.453   2.745
 3431TIP3    H110178   6.892   2.430   2.676
 3431TIP3    H210179   6.995   2.366   2.768
 3432TIP3   OH210180   6.812   2.645   2.377
 3432TIP3    H110181   6.908   2.637   2.367
 3432TIP3    H210182   6.805   2.724   2.433
 3433TIP3   OH210183   8.670   3.102   2.429
 3433TIP3    H110184   8.674   3.006   2.444
 3433TIP3    H210185   8.588   3.124   2.479
 3434TIP3   OH210186   7.782   2.882   2.568
 3434TIP3    H110187   7.780   2.975   2.601
 3434TIP3    H210188   7.710   2.842   2.622
 3435TIP3   OH210189   7.544   3.011   1.520
 3435TIP3    H110190   7.497   2.991   1.437
 3435TIP3    H210191   7.510   3.100   1.543
 3436TIP3   OH210192   6.980   2.861   1.905
 3436TIP3    H110193   7.028   2.851   1.990
 3436TIP3    H210194   6.928   2.779   1.904
 3437TIP3   OH210195   7.744   2.913   1.159
 3437TIP3    H110196   7.803   2.843   1.123
 3437TIP3    H210197   7.778   2.922   1.251
 3438TIP3   OH210198   7.795   2.962   1.430
 3438TIP3    H110199   7.706   2.971   1.471
 3438TIP3    H210200   7.845   2.918   1.500
 3439TIP3   OH210201   8.575   2.231   2.700
 3439TIP3    H110202   8.490   2.241   2.654
 3439TIP3    H210203   8.590   2.135   2.693
 3440TIP3   OH210204   7.162   2.636   2.733
 3440TIP3    H110205   7.212   2.618   2.816
 3440TIP3    H210206   7.088   2.572   2.741
 3441TIP3   OH210207   7.562   1.458   2.519
 3441TIP3    H110208   7.474   1.427   2.491
 3441TIP3    H210209   7.536   1.540   2.564
 3442TIP3   OH210210   8.095   1.574   2.712
 3442TIP3    H110211   8.163   1.546   2.776
 3442TIP3    H210212   8.011   1.554   2.757
 3443TIP3   OH210213   8.332   2.003   2.629
 3443TIP3    H110214   8.283   2.001   2.715
 3443TIP3    H210215   8.309   2.091   2.594
 3444TIP3   OH210216   8.005   2.149   1.201
 3444TIP3    H110217   7.960   2.111   1.122
 3444TIP3    H210218   8.085   2.185   1.159
 3445TIP3   OH210219   7.728   1.508   1.498
 3445TIP3    H110220   7.696   1.517   1.589
 3445TIP3    H210221   7.673   1.433   1.468
 3446TIP3   OH210222   7.494   1.974   2.537
 3446TIP3    H110223   7.443   1.995   2.617
 3446TIP3    H210224   7.478   2.055   2.483
 3447TIP3   OH210225   7.377   1.861   2.051
 3447TIP3    H110226   7.284   1.834   2.068
 3447TIP3    H210227   7.390   1.820   1.962
 3448TIP3   OH210228   7.868   1.946   1.780
 3448TIP3    H110229   7.817   2.016   1.735
 3448TIP3    H210230   7.923   1.911   1.707
 3449TIP3   OH210231   8.043   2.224   2.864
 3449TIP3    H110232   8.021   2.151   2.926
 3449TIP3    H210233   8.137   2.238   2.885
 3450TIP3   OH210234   8.023   1.974   2.016
 3450TIP3    H110235   7.962   2.000   1.944
 3450TIP3    H210236   8.061   1.893   1.974
 3451TIP3   OH210237   7.313   2.004   2.745
 3451TIP3    H110238   7.341   2.067   2.813
 3451TIP3    H210239   7.302   1.922   2.796
 3452TIP3   OH210240   7.360   1.481   1.462
 3452TIP3    H110241   7.346   1.478   1.559
 3452TIP3    H210242   7.281   1.529   1.432
 3453TIP3   OH210243   6.903   1.525   2.330
 3453TIP3    H110244   6.983   1.555   2.378
 3453TIP3    H210245   6.938   1.493   2.245
 3454TIP3   OH210246   6.880   1.508   1.849
 3454TIP3    H110247   6.922   1.545   1.768
 3454TIP3    H210248   6.816   1.580   1.867
 3455TIP3   OH210249   8.037   2.220   2.440
 3455TIP3    H110250   8.069   2.149   2.380
 3455TIP3    H210251   8.006   2.167   2.516
 3456TIP3   OH210252   7.707   1.682   2.111
 3456TIP3    H110253   7.625   1.680   2.164
 3456TIP3    H210254   7.775   1.680   2.180
 3457TIP3   OH210255   7.138   1.738   2.120
 3457TIP3    H110256   7.044   1.745   2.092
 3457TIP3    H210257   7.162   1.647   2.096
 3458TIP3   OH210258   7.406   1.734   1.809
 3458TIP3    H110259   7.501   1.751   1.790
 3458TIP3    H210260   7.361   1.757   1.725
 3459TIP3   OH210261   8.196   1.758   2.316
 3459TIP3    H110262   8.157   1.771   2.406
 3459TIP3    H210263   8.130   1.697   2.277
 3460TIP3   OH210264   7.252   1.771   1.588
 3460TIP3    H110265   7.179   1.728   1.538
 3460TIP3    H210266   7.304   1.808   1.514
 3461TIP3   OH210267   8.367   3.448   2.533
 3461TIP3    H110268   8.365   3.470   2.438
 3461TIP3    H210269   8.447   3.496   2.562
 3462TIP3   OH210270   7.324   2.557   2.954
 3462TIP3    H110271   7.404   2.588   3.002
 3462TIP3    H210272   7.259   2.556   3.027
 3463TIP3   OH210273   7.788   2.012   2.209
 3463TIP3    H110274   7.859   1.973   2.155
 3463TIP3    H210275   7.798   1.966   2.294
 3464TIP3   OH210276   7.311   1.498   2.089
 3464TIP3    H110277   7.275   1.420   2.135
 3464TIP3    H210278   7.359   1.458   2.016
 3465TIP3   OH210279   7.764   1.906   2.501
 3465TIP3    H110280   7.674   1.943   2.513
 3465TIP3    H210281   7.821   1.969   2.550
 3466TIP3   OH210282   7.498   2.300   1.592
 3466TIP3    H110283   7.428   2.233   1.582
 3466TIP3    H210284   7.481   2.332   1.684
 3467TIP3   OH210285   8.398   2.534   2.222
 3467TIP3    H110286   8.419   2.581   2.138
 3467TIP3    H210287   8.313   2.490   2.199
 3468TIP3   OH210288   7.955   1.636   1.411
 3468TIP3    H110289   7.873   1.592   1.442
 3468TIP3    H210290   7.965   1.710   1.473
 3469TIP3   OH210291   7.903   2.618   2.590
 3469TIP3    H110292   7.924   2.595   2.681
 3469TIP3    H210293   7.861   2.705   2.599
 3470TIP3   OH210294   8.030   1.858   1.566
 3470TIP3    H110295   8.127   1.862   1.575
 3470TIP3    H210296   8.011   1.934   1.508
 3471TIP3   OH210297   7.194   2.323   2.269
 3471TIP3    H110298   7.231   2.293   2.183
 3471TIP3    H210299   7.234   2.258   2.330
 3472TIP3   OH210300   7.647   2.449   1.418
 3472TIP3    H110301   7.599   2.534   1.423
 3472TIP3    H210302   7.592   2.393   1.476
 3473TIP3   OH210303   7.074   2.241   2.883
 3473TIP3    H110304   7.094   2.227   2.977
 3473TIP3    H210305   7.005   2.175   2.866
 3474TIP3   OH210306   7.800   2.355   2.903
 3474TIP3    H110307   7.740   2.297   2.853
 3474TIP3    H210308   7.887   2.321   2.874
 3475TIP3   OH210309   8.061   2.879   2.486
 3475TIP3    H110310   7.965   2.874   2.499
 3475TIP3    H210311   8.088   2.930   2.565
 3476TIP3   OH210312   8.460   1.944   1.411
 3476TIP3    H110313   8.417   1.877   1.353
 3476TIP3    H210314   8.447   2.023   1.355
 3477TIP3   OH210315   8.689   2.797   2.467
 3477TIP3    H110316   8.591   2.797   2.463
 3477TIP3    H210317   8.709   2.762   2.378
 3478TIP3   OH210318   8.171   2.768   1.305
 3478TIP3    H110319   8.146   2.697   1.366
 3478TIP3    H210320   8.184   2.720   1.221
 3479TIP3   OH210321   8.166   2.397   2.143
 3479TIP3    H110322   8.073   2.372   2.155
 3479TIP3    H210323   8.199   2.317   2.095
 3480TIP3   OH210324   7.295   2.626   1.897
 3480TIP3    H110325   7.294   2.705   1.841
 3480TIP3    H210326   7.200   2.606   1.902
 3481TIP3   OH210327   6.858   1.928   1.597
 3481TIP3    H110328   6.904   2.012   1.619
 3481TIP3    H210329   6.781   1.932   1.659
 3482TIP3   OH210330   7.431   2.390   1.839
 3482TIP3    H110331   7.397   2.479   1.858
 3482TIP3    H210332   7.395   2.339   1.914
 3483TIP3   OH210333   7.564   2.968   2.363
 3483TIP3    H110334   7.605   3.040   2.312
 3483TIP3    H210335   7.640   2.932   2.411
 3484TIP3   OH210336   7.213   2.864   1.747
 3484TIP3    H110337   7.127   2.872   1.793
 3484TIP3    H210338   7.245   2.957   1.749
 3485TIP3   OH210339   7.952   2.603   2.322
 3485TIP3    H110340   7.942   2.601   2.420
 3485TIP3    H210341   8.029   2.546   2.309
 3486TIP3   OH210342   7.928   2.497   1.204
 3486TIP3    H110343   7.981   2.472   1.283
 3486TIP3    H210344   7.841   2.465   1.231
 3487TIP3   OH210345   8.200   3.135   2.373
 3487TIP3    H110346   8.122   3.078   2.367
 3487TIP3    H210347   8.183   3.199   2.300
 3488TIP3   OH210348   8.264   2.971   1.024
 3488TIP3    H110349   8.297   3.045   0.970
 3488TIP3    H210350   8.184   3.013   1.061
 3489TIP3   OH210351   7.284   1.747   2.891
 3489TIP3    H110352   7.188   1.750   2.902
 3489TIP3    H210353   7.311   1.687   2.962
 3490TIP3   OH210354   8.086   2.435   1.424
 3490TIP3    H110355   8.075   2.364   1.491
 3490TIP3    H210356   8.183   2.426   1.407
 3491TIP3   OH210357   7.001   2.831   2.523
 3491TIP3    H110358   7.054   2.755   2.553
 3491TIP3    H210359   7.031   2.899   2.584
 3492TIP3   OH210360   7.291   2.475   1.205
 3492TIP3    H110361   7.307   2.384   1.176
 3492TIP3    H210362   7.271   2.463   1.300
 3493TIP3   OH210363   7.236   2.481   1.478
 3493TIP3    H110364   7.311   2.451   1.532
 3493TIP3    H210365   7.242   2.578   1.486
 3494TIP3   OH210366   6.973   2.173   1.681
 3494TIP3    H110367   6.906   2.218   1.737
 3494TIP3    H210368   6.987   2.242   1.613
 3495TIP3   OH210369   8.120   1.813   2.575
 3495TIP3    H110370   8.204   1.849   2.609
 3495TIP3    H210371   8.108   1.731   2.627
 3496TIP3   OH210372   7.962   1.587   1.734
 3496TIP3    H110373   7.988   1.581   1.641
 3496TIP3    H210374   8.029   1.649   1.770
 3497TIP3   OH210375   7.504   2.678   1.427
 3497TIP3    H110376   7.416   2.705   1.462
 3497TIP3    H210377   7.518   2.746   1.360
 3498TIP3   OH210378   7.685   1.742   1.839
 3498TIP3    H110379   7.755   1.807   1.818
 3498TIP3    H210380   7.695   1.734   1.936
 3499TIP3   OH210381   7.960   2.059   2.646
 3499TIP3    H110382   7.984   2.111   2.726
 3499TIP3    H210383   8.015   1.979   2.656
 3500TIP3   OH210384   7.834   1.466   1.942
 3500TIP3    H110385   7.828   1.544   2.001
 3500TIP3    H210386   7.888   1.506   1.869
 3501TIP3   OH210387   7.248   2.754   1.493
 3501TIP3    H110388   7.217   2.824   1.431
 3501TIP3    H210389   7.231   2.797   1.580
 3502TIP3   OH210390   7.349   1.468   1.737
 3502TIP3    H110391   7.344   1.559   1.772
 3502TIP3    H210392   7.446   1.453   1.745
 3503TIP3   OH210393   8.599   1.959   2.629
 3503TIP3    H110394   8.500   1.955   2.632
 3503TIP3    H210395   8.615   1.936   2.537
 3504TIP3   OH210396   8.242   2.161   2.012
 3504TIP3    H110397   8.169   2.097   2.023
 3504TIP3    H210398   8.315   2.115   2.060
 3505TIP3   OH210399   6.965   2.382   1.485
 3505TIP3    H110400   7.035   2.450   1.494
 3505TIP3    H210401   7.009   2.325   1.418
 3506TIP3   OH210402   6.906   1.657   1.623
 3506TIP3    H110403   6.905   1.755   1.615
 3506TIP3    H210404   6.830   1.631   1.570
 3507TIP3   OH210405   8.221   3.112   1.965
 3507TIP3    H110406   8.178   3.158   1.890
 3507TIP3    H210407   8.315   3.130   1.944
 3508TIP3   OH210408   7.297   1.379   2.492
 3508TIP3    H110409   7.266   1.346   2.405
 3508TIP3    H210410   7.285   1.299   2.548
 3509TIP3   OH210411   6.837   2.602   1.873
 3509TIP3    H110412   6.766   2.628   1.931
 3509TIP3    H210413   6.807   2.640   1.787
 3510TIP3   OH210414   6.993   3.141   2.944
 3510TIP3    H110415   7.079   3.141   2.992
 3510TIP3    H210416   6.972   3.046   2.944
 3511TIP3   OH210417   7.475   3.104   2.988
 3511TIP3    H110418   7.568   3.081   2.996
 3511TIP3    H210419   7.448   3.044   2.915
 3512TIP3   OH210420   7.453   2.681   1.119
 3512TIP3    H110421   7.401   2.606   1.155
 3512TIP3    H210422   7.529   2.634   1.080
 3513TIP3   OH210423   8.112   3.011   2.723
 3513TIP3    H110424   8.104   2.940   2.791
 3513TIP3    H210425   8.191   3.060   2.754
 3514TIP3   OH210426   7.895   2.721   1.032
 3514TIP3    H110427   7.936   2.654   1.090
 3514TIP3    H210428   7.950   2.717   0.952
 3515TIP3   OH210429   7.123   2.545   3.144
 3515TIP3    H110430   7.139   2.449   3.150
 3515TIP3    H210431   7.035   2.548   3.101
 3516TIP3   OH210432   7.100   2.196   1.339
 3516TIP3    H110433   7.156   2.161   1.411
 3516TIP3    H210434   7.167   2.200   1.267
 3517TIP3   OH210435   7.731   2.631   2.918
 3517TIP3    H110436   7.689   2.648   2.832
 3517TIP3    H210437   7.762   2.538   2.910
 3518TIP3   OH210438   7.610   2.390   1.150
 3518TIP3    H110439   7.613   2.401   1.247
 3518TIP3    H210440   7.616   2.292   1.144
 3519TIP3   OH210441   8.224   2.640   2.526
 3519TIP3    H110442   8.297   2.686   2.482
 3519TIP3    H210443   8.151   2.703   2.511
 3520TIP3   OH210444   7.241   2.279   3.128
 3520TIP3    H110445   7.318   2.226   3.104
 3520TIP3    H210446   7.268   2.313   3.217
 3521TIP3   OH210447   7.308   2.100   1.560
 3521TIP3    H110448   7.283   2.055   1.641
 3521TIP3    H210449   7.346   2.027   1.507
 3522TIP3   OH210450   7.578   2.164   2.790
 3522TIP3    H110451   7.500   2.224   2.791
 3522TIP3    H210452   7.627   2.198   2.712
 3523TIP3   OH210453   7.409   1.894   1.402
 3523TIP3    H110454   7.384   1.894   1.308
 3523TIP3    H210455   7.507   1.897   1.396
 3524TIP3   OH210456   8.095   2.567   2.923
 3524TIP3    H110457   8.174   2.541   2.875
 3524TIP3    H210458   8.091   2.500   2.993
 3525TIP3   OH210459   8.226   2.218   1.044
 3525TIP3    H110460   8.192   2.177   0.961
 3525TIP3    H210461   8.196   2.310   1.029
 3526TIP3   OH210462   7.701   1.952   2.914
 3526TIP3    H110463   7.701   1.873   2.857
 3526TIP3    H210464   7.657   2.019   2.856
 3527TIP3   OH210465   7.703   1.739   2.723
 3527TIP3    H110466   7.731   1.780   2.639
 3527TIP3    H210467   7.610   1.716   2.703
 3528TIP3   OH210468   7.729   2.275   2.597
 3528TIP3    H110469   7.812   2.282   2.549
 3528TIP3    H210470   7.673   2.341   2.551
 3529TIP3   OH210471   8.313   2.242   2.977
 3529TIP3    H110472   8.361   2.158   2.984
 3529TIP3    H210473   8.382   2.302   2.943
 3530TIP3   OH210474   8.353   2.494   2.713
 3530TIP3    H110475   8.296   2.548   2.653
 3530TIP3    H210476   8.441   2.513   2.673
 3531TIP3   OH210477   7.580   2.062   3.146
 3531TIP3    H110478   7.510   1.995   3.160
 3531TIP3    H210479   7.613   2.038   3.057
 3532TIP3   OH210480   7.835   1.503   2.791
 3532TIP3    H110481   7.786   1.585   2.767
 3532TIP3    H210482   7.766   1.435   2.777
 3533TIP3   OH210483   7.961   2.006   3.005
 3533TIP3    H110484   7.947   1.994   3.101
 3533TIP3    H210485   7.872   1.982   2.973
 3534TIP3   OH210486   8.201   1.958   2.862
 3534TIP3    H110487   8.125   1.958   2.923
 3534TIP3    H210488   8.274   1.926   2.918
 3535TIP3   OH210489   8.431   1.897   3.013
 3535TIP3    H110490   8.440   1.801   3.030
 3535TIP3    H210491   8.425   1.935   3.103
 3536TIP3   OH210492   7.417   1.844   3.199
 3536TIP3    H110493   7.423   1.753   3.164
 3536TIP3    H210494   7.453   1.831   3.289
 3537TIP3   OH210495   7.929   1.510   3.049
 3537TIP3    H110496   7.995   1.439   3.040
 3537TIP3    H210497   7.889   1.507   2.959
 3538TIP3   OH210498   7.995   1.726   3.207
 3538TIP3    H110499   7.973   1.656   3.142
 3538TIP3    H210500   7.918   1.786   3.199
 3539TIP3   OH210501   7.217   2.958   1.307
 3539TIP3    H110502   7.312   2.951   1.287
 3539TIP3    H210503   7.188   3.006   1.227
 3540TIP3   OH210504   6.696   2.337   1.522
 3540TIP3    H110505   6.791   2.359   1.507
 3540TIP3    H210506   6.690   2.249   1.481
 3541TIP3   OH210507   6.610   2.950   1.937
 3541TIP3    H110508   6.544   2.888   1.900
 3541TIP3    H210509   6.655   2.892   2.002
 3542TIP3   OH210510   6.745   2.801   2.124
 3542TIP3    H110511   6.735   2.727   2.185
 3542TIP3    H210512   6.798   2.862   2.178
 3543TIP3   OH210513   8.477   3.197   1.924
 3543TIP3    H110514   8.503   3.233   2.011
 3543TIP3    H210515   8.537   3.243   1.864
 3544TIP3   OH210516   8.504   3.222   2.207
 3544TIP3    H110517   8.459   3.134   2.200
 3544TIP3    H210518   8.578   3.196   2.264
 3545TIP3   OH210519   8.547   2.902   2.774
 3545TIP3    H110520   8.476   2.909   2.841
 3545TIP3    H210521   8.592   2.989   2.783
 3546TIP3   OH210522   8.361   2.407   1.390
 3546TIP3    H110523   8.426   2.477   1.369
 3546TIP3    H210524   8.402   2.367   1.470
 3547TIP3   OH210525   8.476   2.279   1.599
 3547TIP3    H110526   8.409   2.232   1.654
 3547TIP3    H210527   8.533   2.320   1.666
 3548TIP3   OH210528   8.547   2.665   2.028
 3548TIP3    H110529   8.585   2.610   1.957
 3548TIP3    H210530   8.534   2.749   1.981
 3549TIP3   OH210531   8.378   2.971   2.227
 3549TIP3    H110532   8.308   3.014   2.280
 3549TIP3    H210533   8.326   2.925   2.158
 3550TIP3   OH210534   8.410   2.173   1.249
 3550TIP3    H110535   8.343   2.179   1.177
 3550TIP3    H210536   8.383   2.249   1.304
 3551TIP3   OH210537   8.292   1.838   1.209
 3551TIP3    H110538   8.291   1.900   1.137
 3551TIP3    H210539   8.332   1.760   1.165
 3552TIP3   OH210540   8.304   2.131   1.746
 3552TIP3    H110541   8.313   2.034   1.738
 3552TIP3    H210542   8.289   2.143   1.842
 3553TIP3   OH210543   6.933   2.208   2.495
 3553TIP3    H110544   6.931   2.176   2.402
 3553TIP3    H210545   7.030   2.210   2.511
 3554TIP3   OH210546   8.598   2.560   2.607
 3554TIP3    H110547   8.672   2.496   2.596
 3554TIP3    H210548   8.624   2.631   2.545
 3555TIP3   OH210549   8.793   2.372   2.621
 3555TIP3    H110550   8.714   2.325   2.656
 3555TIP3    H210551   8.858   2.299   2.630
 3556TIP3   OH210552   8.310   1.848   1.640
 3556TIP3    H110553   8.353   1.761   1.656
 3556TIP3    H210554   8.365   1.879   1.566
 3557TIP3   OH210555   8.454   2.042   2.130
 3557TIP3    H110556   8.536   2.075   2.088
 3557TIP3    H210557   8.477   2.053   2.225
 3558TIP3   OH210558   8.536   2.171   2.376
 3558TIP3    H110559   8.454   2.203   2.420
 3558TIP3    H210560   8.565   2.250   2.327
 3559TIP3   OH210561   7.150   1.894   3.168
 3559TIP3    H110562   7.248   1.889   3.170
 3559TIP3    H210563   7.127   1.809   3.209
 3560TIP3   OH210564   8.424   1.601   1.696
 3560TIP3    H110565   8.448   1.587   1.789
 3560TIP3    H210566   8.360   1.529   1.683
 3561TIP3   OH210567   7.113   1.588   2.504
 3561TIP3    H110568   7.175   1.512   2.510
 3561TIP3    H210569   7.176   1.662   2.494
 3562TIP3   OH210570   6.915   1.861   2.573
 3562TIP3    H110571   6.963   1.852   2.489
 3562TIP3    H210572   6.945   1.948   2.603
 3563TIP3   OH210573   8.844   1.885   2.751
 3563TIP3    H110574   8.771   1.943   2.780
 3563TIP3    H210575   8.798   1.832   2.683
 3564TIP3   OH210576   6.898   1.372   2.081
 3564TIP3    H110577   6.803   1.361   2.098
 3564TIP3    H210578   6.898   1.425   1.998
 3565TIP3   OH210579   8.059   3.068   1.580
 3565TIP3    H110580   8.109   3.053   1.497
 3565TIP3    H210581   8.113   3.135   1.624
 3566TIP3   OH210582   7.119   1.443   2.889
 3566TIP3    H110583   7.067   1.441   2.970
 3566TIP3    H210584   7.054   1.482   2.826
 3567TIP3   OH210585   7.158   2.873   2.965
 3567TIP3    H110586   7.066   2.846   2.948
 3567TIP3    H210587   7.168   2.853   3.059
 3568TIP3   OH210588   7.337   2.905   2.513
 3568TIP3    H110589   7.289   2.981   2.473
 3568TIP3    H210590   7.423   2.918   2.468
 3569TIP3   OH210591   7.781   3.149   2.650
 3569TIP3    H110592   7.823   3.149   2.739
 3569TIP3    H210593   7.847   3.200   2.599
 3570TIP3   OH210594   7.960   3.302   2.509
 3570TIP3    H110595   8.030   3.249   2.467
 3570TIP3    H210596   8.013   3.358   2.570
 3571TIP3   OH210597   8.743   1.662   2.613
 3571TIP3    H110598   8.658   1.671   2.566
 3571TIP3    H210599   8.775   1.576   2.580
 3572TIP3   OH210600   7.013   3.163   2.534
 3572TIP3    H110601   6.923   3.197   2.512
 3572TIP3    H210602   7.023   3.197   2.624
 3573TIP3   OH210603   7.250   3.141   2.394
 3573TIP3    H110604   7.163   3.153   2.438
 3573TIP3    H210605   7.230   3.172   2.304
 3574TIP3   OH210606   7.675   3.168   2.192
 3574TIP3    H110607   7.606   3.187   2.126
 3574TIP3    H210608   7.687   3.256   2.233
 3575TIP3   OH210609   7.944   3.109   2.244
 3575TIP3    H110610   7.850   3.124   2.224
 3575TIP3    H210611   7.986   3.183   2.199
 3576TIP3   OH210612   8.153   3.301   2.158
 3576TIP3    H110613   8.137   3.385   2.109
 3576TIP3    H210614   8.177   3.240   2.085
 3577TIP3   OH210615   6.924   2.955   2.282
 3577TIP3    H110616   6.952   2.928   2.372
 3577TIP3    H210617   6.996   2.912   2.230
 3578TIP3   OH210618   7.118   2.827   2.139
 3578TIP3    H110619   7.134   2.743   2.187
 3578TIP3    H210620   7.209   2.863   2.134
 3579TIP3   OH210621   7.386   2.921   2.141
 3579TIP3    H110622   7.416   2.830   2.128
 3579TIP3    H210623   7.431   2.941   2.225
 3580TIP3   OH210624   7.962   1.578   2.230
 3580TIP3    H110625   7.919   1.506   2.280
 3580TIP3    H210626   8.031   1.530   2.181
 3581TIP3   OH210627   8.480   1.453   2.150
 3581TIP3    H110628   8.521   1.500   2.074
 3581TIP3    H210629   8.385   1.472   2.136
 3582TIP3   OH210630   8.589   1.550   1.918
 3582TIP3    H110631   8.655   1.521   1.854
 3582TIP3    H210632   8.598   1.648   1.910
 3583TIP3   OH210633   7.208   1.288   2.245
 3583TIP3    H110634   7.115   1.256   2.244
 3583TIP3    H210635   7.256   1.202   2.241
 3584TIP3   OH210636   7.006   1.153   1.891
 3584TIP3    H110637   7.027   1.211   1.816
 3584TIP3    H210638   6.969   1.217   1.955
 3585TIP3   OH210639   7.652   1.322   2.122
 3585TIP3    H110640   7.713   1.370   2.063
 3585TIP3    H210641   7.677   1.356   2.208
 3586TIP3   OH210642   8.202   1.468   2.098
 3586TIP3    H110643   8.191   1.441   2.005
 3586TIP3    H210644   8.185   1.385   2.148
 3587TIP3   OH210645   8.216   1.420   1.786
 3587TIP3    H110646   8.183   1.427   1.694
 3587TIP3    H210647   8.217   1.323   1.796
 3588TIP3   OH210648   6.712   2.728   1.671
 3588TIP3    H110649   6.627   2.694   1.637
 3588TIP3    H210650   6.701   2.822   1.649
 3589TIP3   OH210651   7.114   1.317   1.662
 3589TIP3    H110652   7.157   1.260   1.596
 3589TIP3    H210653   7.189   1.368   1.697
 3590TIP3   OH210654   7.629   1.486   1.760
 3590TIP3    H110655   7.693   1.453   1.825
 3590TIP3    H210656   7.642   1.582   1.776
 3591TIP3   OH210657   7.484   2.916   1.254
 3591TIP3    H110658   7.573   2.937   1.217
 3591TIP3    H210659   7.462   2.841   1.195
 3592TIP3   OH210660   8.205   3.034   1.347
 3592TIP3    H110661   8.196   2.936   1.335
 3592TIP3    H210662   8.158   3.066   1.267
 3593TIP3   OH210663   7.416   1.566   3.135
 3593TIP3    H110664   7.382   1.496   3.193
 3593TIP3    H210665   7.510   1.567   3.162
 3594TIP3   OH210666   7.665   1.564   3.255
 3594TIP3    H110667   7.750   1.541   3.213
 3594TIP3    H210668   7.655   1.492   3.320
 3595TIP3   OH210669   6.790   2.753   1.310
 3595TIP3    H110670   6.791   2.774   1.404
 3595TIP3    H210671   6.877   2.710   1.297
 3596TIP3   OH210672   8.489   1.625   3.043
 3596TIP3    H110673   8.511   1.596   3.134
 3596TIP3    H210674   8.577   1.624   3.000
 3597TIP3   OH210675   8.426   3.178   2.536
 3597TIP3    H110676   8.348   3.147   2.486
 3597TIP3    H210677   8.407   3.274   2.540
 3598TIP3   OH210678   8.651   2.063   1.572
 3598TIP3    H110679   8.581   2.131   1.573
 3598TIP3    H210680   8.605   1.995   1.520
 3599TIP3   OH210681   8.710   2.349   1.731
 3599TIP3    H110682   8.734   2.258   1.755
 3599TIP3    H210683   8.741   2.351   1.639
 3600TIP3   OH210684   8.559   2.591   1.328
 3600TIP3    H110685   8.566   2.576   1.233
 3600TIP3    H210686   8.595   2.682   1.337
 3601TIP3   OH210687   8.751   2.695   2.220
 3601TIP3    H110688   8.679   2.666   2.160
 3601TIP3    H210689   8.785   2.610   2.256
 3602TIP3   OH210690   8.612   2.903   1.869
 3602TIP3    H110691   8.708   2.911   1.864
 3602TIP3    H210692   8.590   2.984   1.917
 3603TIP3   OH210693   8.748   3.123   1.411
 3603TIP3    H110694   8.801   3.117   1.492
 3603TIP3    H210695   8.703   3.036   1.409
 3604TIP3   OH210696   8.900   2.917   2.244
 3604TIP3    H110697   8.921   2.902   2.337
 3604TIP3    H210698   8.836   2.845   2.228
 3605TIP3   OH210699   8.660   1.806   1.857
 3605TIP3    H110700   8.730   1.847   1.908
 3605TIP3    H210701   8.688   1.822   1.765
 3606TIP3   OH210702   8.854   2.488   2.371
 3606TIP3    H110703   8.868   2.458   2.462
 3606TIP3    H210704   8.783   2.427   2.342
 3607TIP3   OH210705   8.635   2.301   1.141
 3607TIP3    H110706   8.682   2.222   1.110
 3607TIP3    H210707   8.562   2.259   1.192
 3608TIP3   OH210708   8.795   3.091   2.016
 3608TIP3    H110709   8.835   3.022   2.072
 3608TIP3    H210710   8.822   3.172   2.063
 3609TIP3   OH210711   8.630   2.860   1.362
 3609TIP3    H110712   8.552   2.879   1.416
 3609TIP3    H210713   8.603   2.900   1.275
 3610TIP3   OH210714   8.784   3.389   2.434
 3610TIP3    H110715   8.873   3.371   2.468
 3610TIP3    H210716   8.751   3.298   2.427
 3611TIP3   OH210717   8.924   2.820   2.614
 3611TIP3    H110718   8.947   2.742   2.666
 3611TIP3    H210719   8.837   2.797   2.575
 3612TIP3   OH210720   8.489   2.600   0.982
 3612TIP3    H110721   8.584   2.593   1.006
 3612TIP3    H210722   8.470   2.507   0.958
 3613TIP3   OH210723   8.406   3.208   1.424
 3613TIP3    H110724   8.340   3.145   1.387
 3613TIP3    H210725   8.452   3.150   1.488
 3614TIP3   OH210726   8.535   3.056   1.615
 3614TIP3    H110727   8.524   2.983   1.678
 3614TIP3    H210728   8.592   3.117   1.667
 3615TIP3   OH210729   8.759   2.451   1.982
 3615TIP3    H110730   8.732   2.421   1.892
 3615TIP3    H210731   8.836   2.506   1.961
 3616TIP3   OH210732   8.929   2.138   2.633
 3616TIP3    H110733   9.021   2.172   2.642
 3616TIP3    H210734   8.929   2.064   2.696
 3617TIP3   OH210735   8.699   2.137   2.032
 3617TIP3    H110736   8.765   2.066   2.038
 3617TIP3    H210737   8.747   2.216   2.061
 3618TIP3   OH210738   8.949   3.142   2.478
 3618TIP3    H110739   8.866   3.105   2.445
 3618TIP3    H210740   8.955   3.105   2.568
 3619TIP3   OH210741   8.800   3.409   2.026
 3619TIP3    H110742   8.713   3.448   2.000
 3619TIP3    H210743   8.817   3.461   2.106
 3620TIP3   OH210744   9.052   3.401   1.894
 3620TIP3    H110745   8.961   3.402   1.926
 3620TIP3    H210746   9.042   3.432   1.802
 3621TIP3   OH210747   8.723   3.209   1.765
 3621TIP3    H110748   8.749   3.188   1.857
 3621TIP3    H210749   8.801   3.174   1.717
 3622TIP3   OH210750   8.931   3.097   1.615
 3622TIP3    H110751   8.958   3.004   1.610
 3622TIP3    H210752   9.019   3.140   1.624
 3623TIP3   OH210753   8.509   2.982   1.155
 3623TIP3    H110754   8.422   2.951   1.123
 3623TIP3    H210755   8.499   3.077   1.140
 3624TIP3   OH210756   8.609   3.021   0.813
 3624TIP3    H110757   8.571   3.049   0.898
 3624TIP3    H210758   8.665   2.947   0.839
 3625TIP3   OH210759   0.374   3.114   3.535
 3625TIP3    H110760   0.338   3.197   3.497
 3625TIP3    H210761   0.311   3.051   3.495
 3626TIP3   OH210762   0.339   3.089   3.886
 3626TIP3    H110763   0.372   3.037   3.961
 3626TIP3    H210764   0.323   3.019   3.819
 3627TIP3   OH210765  -0.351   2.982   4.245
 3627TIP3    H110766  -0.324   2.920   4.314
 3627TIP3    H210767  -0.275   3.043   4.242
 3628TIP3   OH210768   0.593   3.394   3.560
 3628TIP3    H110769   0.572   3.314   3.610
 3628TIP3    H210770   0.625   3.455   3.628
 3629TIP3   OH210771  -0.367   3.388   3.973
 3629TIP3    H110772  -0.382   3.291   3.978
 3629TIP3    H210773  -0.271   3.391   3.964
 3630TIP3   OH210774   0.243   3.848   3.585
 3630TIP3    H110775   0.290   3.778   3.535
 3630TIP3    H210776   0.236   3.807   3.672
 3631TIP3   OH210777   0.149   3.305   3.936
 3631TIP3    H110778   0.188   3.228   3.890
 3631TIP3    H210779   0.231   3.353   3.956
 3632TIP3   OH210780   1.172   2.624   3.934
 3632TIP3    H110781   1.198   2.713   3.963
 3632TIP3    H210782   1.175   2.634   3.837
 3633TIP3   OH210783  -0.113   2.481   3.902
 3633TIP3    H110784  -0.129   2.538   3.825
 3633TIP3    H210785  -0.078   2.402   3.853
 3634TIP3   OH210786  -0.469   2.656   4.036
 3634TIP3    H110787  -0.389   2.639   4.090
 3634TIP3    H210788  -0.432   2.662   3.947
 3635TIP3   OH210789  -0.019   2.866   3.834
 3635TIP3    H110790   0.078   2.853   3.848
 3635TIP3    H210791  -0.040   2.786   3.785
 3636TIP3   OH210792   1.243   2.839   4.102
 3636TIP3    H110793   1.159   2.883   4.078
 3636TIP3    H210794   1.250   2.865   4.195
 3637TIP3   OH210795  -0.107   2.458   4.360
 3637TIP3    H110796  -0.172   2.489   4.294
 3637TIP3    H210797  -0.157   2.474   4.443
 3638TIP3   OH210798   0.253   3.315   3.386
 3638TIP3    H110799   0.217   3.286   3.300
 3638TIP3    H210800   0.199   3.394   3.402
 3639TIP3   OH210801   0.010   3.224   4.163
 3639TIP3    H110802  -0.053   3.292   4.197
 3639TIP3    H210803   0.051   3.272   4.088
 3640TIP3   OH210804   0.853   2.541   3.760
 3640TIP3    H110805   0.758   2.527   3.769
 3640TIP3    H210806   0.859   2.637   3.759
 3641TIP3   OH210807  -0.216   2.590   4.141
 3641TIP3    H110808  -0.146   2.653   4.163
 3641TIP3    H210809  -0.178   2.544   4.064
 3642TIP3   OH210810  -0.160   3.418   4.255
 3642TIP3    H110811  -0.185   3.504   4.216
 3642TIP3    H210812  -0.240   3.404   4.312
 3643TIP3   OH210813   0.667   3.629   3.738
 3643TIP3    H110814   0.576   3.619   3.774
 3643TIP3    H210815   0.658   3.714   3.690
 3644TIP3   OH210816   0.963   2.533   4.099
 3644TIP3    H110817   0.879   2.559   4.057
 3644TIP3    H210818   1.024   2.553   4.025
 3645TIP3   OH210819   0.261   2.177   4.107
 3645TIP3    H110820   0.236   2.083   4.094
 3645TIP3    H210821   0.174   2.213   4.133
 3646TIP3   OH210822   0.365   3.678   3.409
 3646TIP3    H110823   0.414   3.595   3.391
 3646TIP3    H210824   0.421   3.741   3.359
 3647TIP3   OH210825   0.514   3.470   3.305
 3647TIP3    H110826   0.487   3.388   3.260
 3647TIP3    H210827   0.545   3.432   3.391
 3648TIP3   OH210828   0.891   3.538   4.078
 3648TIP3    H110829   0.880   3.462   4.017
 3648TIP3    H210830   0.874   3.614   4.017
 3649TIP3   OH210831   0.217   2.979   3.364
 3649TIP3    H110832   0.127   3.010   3.336
 3649TIP3    H210833   0.264   2.981   3.278
 3650TIP3   OH210834   1.086   3.180   3.925
 3650TIP3    H110835   1.002   3.230   3.927
 3650TIP3    H210836   1.116   3.199   3.833
 3651TIP3   OH210837   0.537   3.031   3.318
 3651TIP3    H110838   0.489   3.055   3.400
 3651TIP3    H210839   0.618   2.990   3.355
 3652TIP3   OH210840   0.765   3.056   4.219
 3652TIP3    H110841   0.762   3.143   4.263
 3652TIP3    H210842   0.681   3.058   4.170
 3653TIP3   OH210843  -0.225   3.022   3.730
 3653TIP3    H110844  -0.280   2.949   3.694
 3653TIP3    H210845  -0.147   2.972   3.761
 3654TIP3   OH210846  -0.104   3.425   3.868
 3654TIP3    H110847  -0.127   3.386   3.782
 3654TIP3    H210848  -0.016   3.387   3.886
 3655TIP3   OH210849  -0.095   2.982   4.077
 3655TIP3    H110850  -0.068   2.962   3.985
 3655TIP3    H210851  -0.061   3.074   4.089
 3656TIP3   OH210852   0.423   3.624   3.853
 3656TIP3    H110853   0.410   3.703   3.908
 3656TIP3    H210854   0.409   3.550   3.915
 3657TIP3   OH210855   0.038   3.538   4.407
 3657TIP3    H110856  -0.023   3.603   4.448
 3657TIP3    H210857  -0.025   3.487   4.353
 3658TIP3   OH210858   0.363   2.909   3.139
 3658TIP3    H110859   0.441   2.936   3.190
 3658TIP3    H210860   0.400   2.904   3.048
 3659TIP3   OH210861  -0.188   3.101   4.499
 3659TIP3    H110862  -0.191   3.190   4.538
 3659TIP3    H210863  -0.281   3.073   4.513
 3660TIP3   OH210864   0.110   3.560   3.400
 3660TIP3    H110865   0.189   3.612   3.424
 3660TIP3    H210866   0.048   3.628   3.369
 3661TIP3   OH210867  -0.161   3.709   4.490
 3661TIP3    H110868  -0.198   3.708   4.399
 3661TIP3    H210869  -0.235   3.672   4.543
 3662TIP3   OH210870   0.715   3.526   2.741
 3662TIP3    H110871   0.679   3.531   2.651
 3662TIP3    H210872   0.793   3.467   2.726
 3663TIP3   OH210873  -0.590   3.258   4.425
 3663TIP3    H110874  -0.649   3.233   4.352
 3663TIP3    H210875  -0.580   3.171   4.468
 3664TIP3   OH210876   1.128   3.886   4.124
 3664TIP3    H110877   1.127   3.789   4.135
 3664TIP3    H210878   1.045   3.910   4.169
 3665TIP3   OH210879   0.237   3.667   4.262
 3665TIP3    H110880   0.234   3.761   4.291
 3665TIP3    H210881   0.163   3.629   4.314
 3666TIP3   OH210882  -0.000   3.799   3.219
 3666TIP3    H110883  -0.039   3.784   3.131
 3666TIP3    H210884  -0.033   3.889   3.241
 3667TIP3   OH210885  -0.544   3.636   3.572
 3667TIP3    H110886  -0.507   3.617   3.661
 3667TIP3    H210887  -0.604   3.559   3.559
 3668TIP3   OH210888   0.206   3.699   2.849
 3668TIP3    H110889   0.270   3.632   2.813
 3668TIP3    H210890   0.239   3.709   2.941
 3669TIP3   OH210891   0.246   3.743   3.121
 3669TIP3    H110892   0.159   3.762   3.162
 3669TIP3    H210893   0.286   3.686   3.188
 3670TIP3   OH210894   1.015   3.013   4.400
 3670TIP3    H110895   0.939   3.027   4.341
 3670TIP3    H210896   1.033   2.918   4.385
 3671TIP3   OH210897  -0.374   3.425   4.419
 3671TIP3    H110898  -0.337   3.425   4.509
 3671TIP3    H210899  -0.450   3.363   4.427
 3672TIP3   OH210900   0.005   2.247   4.210
 3672TIP3    H110901  -0.069   2.222   4.153
 3672TIP3    H210902  -0.033   2.322   4.261
 3673TIP3   OH210903   0.542   2.365   4.403
 3673TIP3    H110904   0.614   2.332   4.460
 3673TIP3    H210905   0.462   2.337   4.451
 3674TIP3   OH210906   0.795   2.797   4.323
 3674TIP3    H110907   0.738   2.793   4.403
 3674TIP3    H210908   0.769   2.882   4.283
 3675TIP3   OH210909   0.465   2.929   2.883
 3675TIP3    H110910   0.408   2.902   2.811
 3675TIP3    H210911   0.517   3.000   2.845
 3676TIP3   OH210912  -0.025   2.806   4.263
 3676TIP3    H110913  -0.108   2.789   4.314
 3676TIP3    H210914  -0.061   2.855   4.185
 3677TIP3   OH210915   0.286   2.731   3.459
 3677TIP3    H110916   0.259   2.821   3.431
 3677TIP3    H210917   0.369   2.721   3.408
 3678TIP3   OH210918   0.496   3.018   4.559
 3678TIP3    H110919   0.468   2.944   4.617
 3678TIP3    H210920   0.592   3.017   4.574
 3679TIP3   OH210921  -0.213   2.801   4.452
 3679TIP3    H110922  -0.267   2.863   4.505
 3679TIP3    H210923  -0.236   2.716   4.492
 3680TIP3   OH210924   0.494   2.987   4.128
 3680TIP3    H110925   0.520   2.915   4.068
 3680TIP3    H210926   0.460   2.939   4.205
 3681TIP3   OH210927   0.188   2.480   3.816
 3681TIP3    H110928   0.120   2.497   3.883
 3681TIP3    H210929   0.267   2.521   3.856
 3682TIP3   OH210930   0.820   4.235   4.222
 3682TIP3    H110931   0.817   4.259   4.128
 3682TIP3    H210932   0.898   4.285   4.253
 3683TIP3   OH210933  -0.215   3.338   4.645
 3683TIP3    H110934  -0.139   3.379   4.691
 3683TIP3    H210935  -0.285   3.351   4.711
 3684TIP3   OH210936   0.236   2.792   3.903
 3684TIP3    H110937   0.319   2.770   3.855
 3684TIP3    H210938   0.255   2.746   3.986
 3685TIP3   OH210939   0.214   2.683   4.190
 3685TIP3    H110940   0.129   2.727   4.198
 3685TIP3    H210941   0.277   2.744   4.233
 3686TIP3   OH210942  -0.032   3.076   3.310
 3686TIP3    H110943  -0.114   3.030   3.286
 3686TIP3    H210944  -0.058   3.120   3.395
 3687TIP3   OH210945   0.851   3.323   3.913
 3687TIP3    H110946   0.876   3.371   3.831
 3687TIP3    H210947   0.768   3.277   3.886
 3688TIP3   OH210948   0.345   3.400   4.284
 3688TIP3    H110949   0.394   3.400   4.367
 3688TIP3    H210950   0.313   3.492   4.278
 3689TIP3   OH210951   0.503   2.683   3.304
 3689TIP3    H110952   0.601   2.675   3.300
 3689TIP3    H210953   0.478   2.677   3.210
 3690TIP3   OH210954  -0.349   3.114   3.960
 3690TIP3    H110955  -0.313   3.086   3.873
 3690TIP3    H210956  -0.321   3.042   4.018
 3691TIP3   OH210957   0.106   3.256   3.157
 3691TIP3    H110958   0.046   3.330   3.135
 3691TIP3    H210959   0.046   3.194   3.205
 3692TIP3   OH210960  -0.431   2.993   4.574
 3692TIP3    H110961  -0.436   3.016   4.668
 3692TIP3    H210962  -0.526   2.984   4.552
 3693TIP3   OH210963   0.513   3.660   4.181
 3693TIP3    H110964   0.416   3.664   4.190
 3693TIP3    H210965   0.541   3.716   4.256
 3694TIP3   OH210966   0.927   2.728   3.088
 3694TIP3    H110967   0.866   2.693   3.019
 3694TIP3    H210968   0.934   2.819   3.057
 3695TIP3   OH210969   1.141   3.595   4.165
 3695TIP3    H110970   1.044   3.588   4.156
 3695TIP3    H210971   1.168   3.564   4.075
 3696TIP3   OH210972   0.632   3.586   2.998
 3696TIP3    H110973   0.602   3.523   3.067
 3696TIP3    H210974   0.642   3.525   2.922
 3697TIP3   OH210975   0.620   3.177   3.837
 3697TIP3    H110976   0.524   3.159   3.840
 3697TIP3    H210977   0.650   3.097   3.789
 3698TIP3   OH210978  -0.253   3.417   3.582
 3698TIP3    H110979  -0.256   3.501   3.533
 3698TIP3    H210980  -0.347   3.396   3.590
 3699TIP3   OH210981  -0.116   3.187   3.538
 3699TIP3    H110982  -0.152   3.276   3.556
 3699TIP3    H210983  -0.157   3.133   3.609
 3700TIP3   OH210984   0.017   3.759   4.050
 3700TIP3    H110985   0.059   3.831   3.999
 3700TIP3    H210986   0.094   3.722   4.097
 3701TIP3   OH210987  -0.311   3.656   3.437
 3701TIP3    H110988  -0.401   3.660   3.477
 3701TIP3    H210989  -0.285   3.750   3.440
 3702TIP3   OH210990   0.404   3.392   4.011
 3702TIP3    H110991   0.396   3.384   4.108
 3702TIP3    H210992   0.479   3.334   3.992
 3703TIP3   OH210993   0.371   3.278   2.896
 3703TIP3    H110994   0.414   3.260   2.983
 3703TIP3    H210995   0.287   3.228   2.905
 3704TIP3   OH210996   0.652   3.924   4.063
 3704TIP3    H110997   0.571   3.869   4.053
 3704TIP3    H210998   0.639   3.989   3.991
 3705TIP3   OH210999  -0.254   2.533   4.586
 3705TIP3    H111000  -0.349   2.531   4.601
 3705TIP3    H211001  -0.223   2.467   4.651
 3706TIP3   OH211002   0.532   3.231   3.123
 3706TIP3    H111003   0.523   3.157   3.187
 3706TIP3    H211004   0.630   3.227   3.108
 3707TIP3   OH211005  -0.505   3.646   4.202
 3707TIP3    H111006  -0.481   3.553   4.212
 3707TIP3    H211007  -0.519   3.672   4.294
 3708TIP3   OH211008  -0.309   3.296   3.240
 3708TIP3    H111009  -0.273   3.303   3.329
 3708TIP3    H211010  -0.318   3.391   3.216
 3709TIP3   OH211011   0.551   2.637   4.315
 3709TIP3    H111012   0.639   2.643   4.274
 3709TIP3    H211013   0.540   2.540   4.323
 3710TIP3   OH211014   0.548   2.406   3.416
 3710TIP3    H111015   0.455   2.397   3.390
 3710TIP3    H211016   0.551   2.496   3.451
 3711TIP3   OH211017  -0.054   3.467   3.078
 3711TIP3    H111018  -0.137   3.487   3.127
 3711TIP3    H211019  -0.017   3.555   3.067
 3712TIP3   OH211020   0.218   2.482   3.528
 3712TIP3    H111021   0.240   2.572   3.494
 3712TIP3    H211022   0.193   2.504   3.619
 3713TIP3   OH211023   0.391   2.849   4.349
 3713TIP3    H111024   0.436   2.901   4.419
 3713TIP3    H211025   0.449   2.770   4.343
 3714TIP3   OH211026   0.350   2.263   3.663
 3714TIP3    H111027   0.308   2.318   3.731
 3714TIP3    H211028   0.379   2.330   3.600
 3715TIP3   OH211029  -0.291   3.559   3.181
 3715TIP3    H111030  -0.309   3.631   3.115
 3715TIP3    H211031  -0.303   3.606   3.266
 3716TIP3   OH211032   1.059   2.747   4.318
 3716TIP3    H111033   0.961   2.748   4.324
 3716TIP3    H211034   1.068   2.704   4.231
 3717TIP3   OH211035   0.690   2.926   3.716
 3717TIP3    H111036   0.626   2.856   3.742
 3717TIP3    H211037   0.771   2.888   3.757
 3718TIP3   OH211038   0.673   3.900   3.656
 3718TIP3    H111039   0.630   3.945   3.579
 3718TIP3    H211040   0.767   3.920   3.635
 3719TIP3   OH211041   4.944   9.078   9.197
 3719TIP3    H111042   4.848   9.091   9.185
 3719TIP3    H211043   4.967   9.028   9.118
 3720TIP3   OH211044  -0.079   3.896   4.682
 3720TIP3    H111045   0.017   3.882   4.683
 3720TIP3    H211046  -0.106   3.836   4.610
 3721TIP3   OH211047   0.563   3.800   4.414
 3721TIP3    H111048   0.558   3.729   4.483
 3721TIP3    H211049   0.641   3.851   4.443
 3722TIP3   OH211050   0.369   3.520   2.736
 3722TIP3    H111051   0.372   3.434   2.784
 3722TIP3    H211052   0.422   3.497   2.658
 3723TIP3   OH211053  -0.408   3.319   4.844
 3723TIP3    H111054  -0.376   3.227   4.838
 3723TIP3    H211055  -0.503   3.303   4.828
 3724TIP3   OH211056   0.182   3.414   4.604
 3724TIP3    H111057   0.135   3.444   4.523
 3724TIP3    H211058   0.247   3.352   4.568
 3725TIP3   OH211059   0.675   3.430   4.219
 3725TIP3    H111060   0.752   3.469   4.172
 3725TIP3    H211061   0.608   3.498   4.199
 3726TIP3   OH211062  -0.324   3.056   4.835
 3726TIP3    H111063  -0.260   2.989   4.808
 3726TIP3    H211064  -0.287   3.089   4.919
 3727TIP3   OH211065   0.541   3.352   4.611
 3727TIP3    H111066   0.617   3.333   4.556
 3727TIP3    H211067   0.543   3.280   4.676
 3728TIP3   OH211068   0.162   2.512   4.409
 3728TIP3    H111069   0.188   2.552   4.325
 3728TIP3    H211070   0.067   2.494   4.394
 3729TIP3   OH211071   0.172   3.056   4.298
 3729TIP3    H111072   0.258   3.071   4.252
 3729TIP3    H211073   0.120   3.129   4.253
 3730TIP3   OH211074   0.779   3.032   4.684
 3730TIP3    H111075   0.800   2.943   4.652
 3730TIP3    H211076   0.839   3.086   4.630
 3731TIP3   OH211077   0.804   3.286   4.407
 3731TIP3    H111078   0.748   3.339   4.345
 3731TIP3    H211079   0.893   3.303   4.367
 3732TIP3   OH211080   0.287   2.286   4.527
 3732TIP3    H111081   0.251   2.368   4.484
 3732TIP3    H211082   0.229   2.221   4.481
 3733TIP3   OH211083   0.393   2.806   4.697
 3733TIP3    H111084   0.387   2.801   4.794
 3733TIP3    H211085   0.347   2.725   4.672
 3734TIP3   OH211086   0.672   2.778   4.567
 3734TIP3    H111087   0.594   2.727   4.592
 3734TIP3    H211088   0.744   2.729   4.611
 3735TIP3   OH211089   0.887   2.683   4.708
 3735TIP3    H111090   0.899   2.587   4.719
 3735TIP3    H211091   0.886   2.716   4.800
 3736TIP3   OH211092  -0.124   2.635   4.889
 3736TIP3    H111093  -0.119   2.544   4.854
 3736TIP3    H211094  -0.087   2.621   4.978
 3737TIP3   OH211095   0.454   2.538   4.863
 3737TIP3    H111096   0.408   2.456   4.842
 3737TIP3    H211097   0.378   2.591   4.894
 3738TIP3   OH211098  -0.317   3.756   2.992
 3738TIP3    H111099  -0.229   3.784   2.961
 3738TIP3    H211100  -0.372   3.787   2.918
 3739TIP3   OH211101   0.924   3.995   3.612
 3739TIP3    H111102   0.954   4.025   3.700
 3739TIP3    H211103   0.994   4.029   3.554
 3740TIP3   OH211104   0.955   4.010   3.895
 3740TIP3    H111105   0.912   3.922   3.890
 3740TIP3    H211106   1.032   3.987   3.949
 3741TIP3   OH211107   1.003   3.686   4.469
 3741TIP3    H111108   0.930   3.695   4.532
 3741TIP3    H211109   1.044   3.775   4.471
 3742TIP3   OH211110   0.804   3.218   3.104
 3742TIP3    H111111   0.880   3.257   3.056
 3742TIP3    H211112   0.851   3.157   3.164
 3743TIP3   OH211113   0.945   3.059   3.288
 3743TIP3    H111114   0.877   3.018   3.346
 3743TIP3    H211115   1.002   3.105   3.351
 3744TIP3   OH211116   1.001   3.458   3.724
 3744TIP3    H111117   1.053   3.391   3.676
 3744TIP3    H211118   0.994   3.530   3.658
 3745TIP3   OH211119   0.832   3.759   3.920
 3745TIP3    H111120   0.759   3.801   3.969
 3745TIP3    H211121   0.784   3.711   3.849
 3746TIP3   OH211122   0.763   2.651   2.888
 3746TIP3    H111123   0.688   2.701   2.851
 3746TIP3    H211124   0.733   2.559   2.877
 3747TIP3   OH211125   0.760   2.919   3.442
 3747TIP3    H111126   0.762   2.824   3.423
 3747TIP3    H211127   0.737   2.922   3.538
 3748TIP3   OH211128  -0.607   3.028   4.145
 3748TIP3    H111129  -0.604   2.943   4.099
 3748TIP3    H211130  -0.520   3.027   4.189
 3749TIP3   OH211131   1.048   3.348   4.296
 3749TIP3    H111132   1.120   3.282   4.286
 3749TIP3    H211133   1.072   3.414   4.230
 3750TIP3   OH211134   1.232   3.152   4.316
 3750TIP3    H111135   1.157   3.100   4.352
 3750TIP3    H211136   1.305   3.089   4.329
 3751TIP3   OH211137   0.778   2.649   3.321
 3751TIP3    H111138   0.809   2.560   3.346
 3751TIP3    H211139   0.837   2.670   3.246
 3752TIP3   OH211140   0.919   2.823   3.828
 3752TIP3    H111141   1.005   2.843   3.785
 3752TIP3    H211142   0.937   2.852   3.918
 3753TIP3   OH211143   0.993   2.961   4.065
 3753TIP3    H111144   0.910   2.994   4.105
 3753TIP3    H211145   1.024   3.038   4.014
 3754TIP3   OH211146  -0.397   2.668   4.875
 3754TIP3    H111147  -0.303   2.683   4.854
 3754TIP3    H211148  -0.390   2.589   4.929
 3755TIP3   OH211149   1.437   2.548   4.615
 3755TIP3    H111150   1.497   2.483   4.573
 3755TIP3    H211151   1.408   2.602   4.538
 3756TIP3   OH211152   0.871   2.385   3.362
 3756TIP3    H111153   0.921   2.373   3.446
 3756TIP3    H211154   0.790   2.337   3.383
 3757TIP3   OH211155  -0.588   2.673   4.300
 3757TIP3    H111156  -0.572   2.654   4.206
 3757TIP3    H211157  -0.659   2.739   4.296
 3758TIP3   OH211158   1.307   2.687   4.420
 3758TIP3    H111159   1.218   2.727   4.425
 3758TIP3    H211160   1.286   2.612   4.361
 3759TIP3   OH211161   1.023   2.306   3.005
 3759TIP3    H111162   1.033   2.276   2.913
 3759TIP3    H211163   1.073   2.390   3.003
 3760TIP3   OH211164   0.525   3.845   3.262
 3760TIP3    H111165   0.601   3.786   3.260
 3760TIP3    H211166   0.555   3.919   3.317
 3761TIP3   OH211167  -0.432   2.250   4.596
 3761TIP3    H111168  -0.498   2.226   4.662
 3761TIP3    H211169  -0.488   2.275   4.521
 3762TIP3   OH211170  -0.358   3.621   4.658
 3762TIP3    H111171  -0.439   3.673   4.642
 3762TIP3    H211172  -0.361   3.614   4.756
 3763TIP3   OH211173  -0.198   3.688   4.208
 3763TIP3    H111174  -0.264   3.749   4.171
 3763TIP3    H211175  -0.120   3.715   4.155
 3764TIP3   OH211176   0.235   3.934   4.338
 3764TIP3    H111177   0.275   3.939   4.427
 3764TIP3    H211178   0.299   3.987   4.286
 3765TIP3   OH211179   0.412   4.089   4.199
 3765TIP3    H111180   0.483   4.040   4.156
 3765TIP3    H211181   0.464   4.146   4.260
 3766TIP3   OH211182   1.207   2.450   4.300
 3766TIP3    H111183   1.118   2.445   4.261
 3766TIP3    H211184   1.238   2.357   4.288
 3767TIP3   OH211185  -0.301   3.930   4.089
 3767TIP3    H111186  -0.389   3.932   4.130
 3767TIP3    H211187  -0.319   3.964   3.999
 3768TIP3   OH211188   0.129   3.956   3.882
 3768TIP3    H111189   0.061   3.976   3.815
 3768TIP3    H211190   0.141   4.044   3.924
 3769TIP3   OH211191   0.397   3.896   3.936
 3769TIP3    H111192   0.303   3.913   3.915
 3769TIP3    H211193   0.440   3.970   3.891
 3770TIP3   OH211194   0.604   4.088   3.849
 3770TIP3    H111195   0.590   4.172   3.801
 3770TIP3    H211196   0.631   4.027   3.776
 3771TIP3   OH211197  -0.571   3.769   3.959
 3771TIP3    H111198  -0.550   3.728   4.046
 3771TIP3    H211199  -0.519   3.708   3.902
 3772TIP3   OH211200  -0.419   3.599   3.811
 3772TIP3    H111201  -0.409   3.518   3.868
 3772TIP3    H211202  -0.328   3.634   3.812
 3773TIP3   OH211203  -0.157   3.711   3.829
 3773TIP3    H111204  -0.127   3.619   3.815
 3773TIP3    H211205  -0.114   3.729   3.915
 3774TIP3   OH211206   0.951   2.249   3.829
 3774TIP3    H111207   0.978   2.311   3.759
 3774TIP3    H211208   0.853   2.260   3.823
 3775TIP3   OH211209   1.033   2.339   3.578
 3775TIP3    H111210   1.111   2.297   3.537
 3775TIP3    H211211   1.060   2.434   3.578
 3776TIP3   OH211212   0.682   2.245   3.796
 3776TIP3    H111213   0.610   2.255   3.733
 3776TIP3    H211214   0.647   2.174   3.854
 3777TIP3   OH211215  -0.043   3.720   2.953
 3777TIP3    H111216   0.044   3.720   2.907
 3777TIP3    H211217  -0.097   3.665   2.894
 3778TIP3   OH211218  -0.112   2.362   4.840
 3778TIP3    H111219  -0.147   2.285   4.889
 3778TIP3    H211220  -0.016   2.344   4.848
 3779TIP3   OH211221   0.944   2.414   4.731
 3779TIP3    H111222   0.965   2.380   4.821
 3779TIP3    H211223   1.031   2.409   4.686
 3780TIP3   OH211224   0.880   3.965   4.226
 3780TIP3    H111225   0.803   3.935   4.175
 3780TIP3    H211226   0.862   4.062   4.228
 3781TIP3   OH211227   2.150   3.341   2.992
 3781TIP3    H111228   2.119   3.431   2.969
 3781TIP3    H211229   2.077   3.288   2.954
 3782TIP3   OH211230   2.151   3.340   3.371
 3782TIP3    H111231   2.178   3.306   3.458
 3782TIP3    H211232   2.106   3.264   3.332
 3783TIP3   OH211233   1.446   3.238   3.741
 3783TIP3    H111234   1.479   3.167   3.800
 3783TIP3    H211235   1.529   3.279   3.712
 3784TIP3   OH211236   2.393   3.642   3.052
 3784TIP3    H111237   2.374   3.571   3.115
 3784TIP3    H211238   2.421   3.714   3.110
 3785TIP3   OH211239   1.419   3.646   3.463
 3785TIP3    H111240   1.411   3.548   3.463
 3785TIP3    H211241   1.516   3.654   3.452
 3786TIP3   OH211242   1.125   2.846   3.252
 3786TIP3    H111243   1.075   2.930   3.260
 3786TIP3    H211244   1.055   2.787   3.221
 3787TIP3   OH211245   1.187   3.137   3.420
 3787TIP3    H111246   1.235   3.058   3.453
 3787TIP3    H211247   1.232   3.153   3.335
 3788TIP3   OH211248   2.043   4.104   3.072
 3788TIP3    H111249   2.086   4.034   3.019
 3788TIP3    H211250   2.033   4.061   3.157
 3789TIP3   OH211251   1.944   3.566   3.422
 3789TIP3    H111252   1.978   3.491   3.371
 3789TIP3    H211253   2.030   3.608   3.444
 3790TIP3   OH211254   2.961   2.883   3.418
 3790TIP3    H111255   2.989   2.967   3.459
 3790TIP3    H211256   2.982   2.901   3.324
 3791TIP3   OH211257   2.359   3.065   3.452
 3791TIP3    H111258   2.401   2.979   3.470
 3791TIP3    H211259   2.327   3.051   3.361
 3792TIP3   OH211260   1.702   2.720   3.423
 3792TIP3    H111261   1.680   2.792   3.359
 3792TIP3    H211262   1.657   2.645   3.378
 3793TIP3   OH211263   2.392   2.815   3.040
 3793TIP3    H111264   2.466   2.801   3.104
 3793TIP3    H211265   2.440   2.852   2.964
 3794TIP3   OH211266   1.329   2.927   3.529
 3794TIP3    H111267   1.414   2.907   3.573
 3794TIP3    H211268   1.338   2.871   3.450
 3795TIP3   OH211269   1.769   3.127   3.330
 3795TIP3    H111270   1.863   3.101   3.332
 3795TIP3    H211271   1.729   3.049   3.286
 3796TIP3   OH211272   3.033   3.091   3.589
 3796TIP3    H111273   2.950   3.139   3.569
 3796TIP3    H211274   3.051   3.123   3.679
 3797TIP3   OH211275   1.693   2.709   3.853
 3797TIP3    H111276   1.635   2.745   3.783
 3797TIP3    H211277   1.639   2.729   3.932
 3798TIP3   OH211278   2.043   3.561   2.859
 3798TIP3    H111279   1.997   3.535   2.778
 3798TIP3    H211280   1.993   3.642   2.883
 3799TIP3   OH211281   1.802   3.485   3.647
 3799TIP3    H111282   1.739   3.551   3.682
 3799TIP3    H211283   1.842   3.533   3.572
 3800TIP3   OH211284   2.602   2.817   3.213
 3800TIP3    H111285   2.585   2.776   3.299
 3800TIP3    H211286   2.654   2.896   3.239
 3801TIP3   OH211287   1.566   2.823   3.637
 3801TIP3    H111288   1.629   2.896   3.657
 3801TIP3    H211289   1.612   2.782   3.560
 3802TIP3   OH211290   1.629   3.679   3.746
 3802TIP3    H111291   1.602   3.763   3.704
 3802TIP3    H211292   1.549   3.662   3.801
 3803TIP3   OH211293   1.010   3.358   2.985
 3803TIP3    H111294   0.989   3.369   2.891
 3803TIP3    H211295   1.060   3.437   3.009
 3804TIP3   OH211296   2.462   3.885   3.222
 3804TIP3    H111297   2.372   3.875   3.261
 3804TIP3    H211298   2.453   3.970   3.175
 3805TIP3   OH211299   2.753   2.782   3.583
 3805TIP3    H111300   2.665   2.811   3.553
 3805TIP3    H211301   2.812   2.815   3.512
 3806TIP3   OH211302   2.053   2.429   3.572
 3806TIP3    H111303   2.034   2.334   3.581
 3806TIP3    H211304   1.974   2.468   3.614
 3807TIP3   OH211305   2.162   3.932   2.894
 3807TIP3    H111306   2.211   3.848   2.875
 3807TIP3    H211307   2.224   3.996   2.852
 3808TIP3   OH211308   2.305   3.717   2.802
 3808TIP3    H111309   2.267   3.638   2.762
 3808TIP3    H211310   2.342   3.681   2.885
 3809TIP3   OH211311   2.688   3.796   3.563
 3809TIP3    H111312   2.676   3.719   3.504
 3809TIP3    H211313   2.670   3.871   3.502
 3810TIP3   OH211314   1.985   3.196   2.823
 3810TIP3    H111315   1.894   3.230   2.808
 3810TIP3    H211316   2.019   3.188   2.733
 3811TIP3   OH211317   1.941   2.980   2.535
 3811TIP3    H111318   2.011   3.029   2.582
 3811TIP3    H211319   1.995   2.913   2.489
 3812TIP3   OH211320   2.883   3.434   3.409
 3812TIP3    H111321   2.799   3.485   3.414
 3812TIP3    H211322   2.912   3.457   3.319
 3813TIP3   OH211323   2.327   3.276   2.792
 3813TIP3    H111324   2.271   3.299   2.870
 3813TIP3    H211325   2.410   3.249   2.837
 3814TIP3   OH211326   2.562   3.311   3.706
 3814TIP3    H111327   2.558   3.396   3.754
 3814TIP3    H211328   2.475   3.313   3.660
 3815TIP3   OH211329   1.556   3.272   3.211
 3815TIP3    H111330   1.538   3.217   3.131
 3815TIP3    H211331   1.636   3.225   3.242
 3816TIP3   OH211332   1.687   3.683   3.357
 3816TIP3    H111333   1.665   3.643   3.272
 3816TIP3    H211334   1.776   3.647   3.374
 3817TIP3   OH211335   1.693   3.240   3.571
 3817TIP3    H111336   1.721   3.213   3.481
 3817TIP3    H211337   1.737   3.327   3.582
 3818TIP3   OH211338   2.221   3.880   3.341
 3818TIP3    H111339   2.207   3.958   3.397
 3818TIP3    H211340   2.205   3.805   3.403
 3819TIP3   OH211341   1.833   3.798   3.889
 3819TIP3    H111342   1.772   3.861   3.934
 3819TIP3    H211343   1.769   3.745   3.838
 3820TIP3   OH211344   2.171   3.127   2.619
 3820TIP3    H111345   2.226   3.190   2.671
 3820TIP3    H211346   2.196   3.152   2.527
 3821TIP3   OH211347   1.591   3.351   3.997
 3821TIP3    H111348   1.592   3.441   4.037
 3821TIP3    H211349   1.495   3.334   3.994
 3822TIP3   OH211350   1.910   3.810   2.898
 3822TIP3    H111351   1.991   3.864   2.908
 3822TIP3    H211352   1.851   3.870   2.851
 3823TIP3   OH211353   1.627   3.967   3.975
 3823TIP3    H111354   1.593   3.966   3.883
 3823TIP3    H211355   1.547   3.944   4.027
 3824TIP3   OH211356   2.683   2.370   2.668
 3824TIP3    H111357   2.602   2.395   2.717
 3824TIP3    H211358   2.699   2.452   2.616
 3825TIP3   OH211359   2.482   3.739   2.216
 3825TIP3    H111360   2.491   3.835   2.201
 3825TIP3    H211361   2.575   3.709   2.203
 3826TIP3   OH211362   1.205   3.498   3.921
 3826TIP3    H111363   1.140   3.477   3.851
 3826TIP3    H211364   1.243   3.411   3.943
 3827TIP3   OH211365   1.060   3.690   3.554
 3827TIP3    H111366   1.155   3.677   3.540
 3827TIP3    H211367   1.058   3.769   3.610
 3828TIP3   OH211368   2.924   4.142   3.610
 3828TIP3    H111369   2.923   4.045   3.623
 3828TIP3    H211370   2.841   4.167   3.656
 3829TIP3   OH211371   2.031   3.927   3.746
 3829TIP3    H111372   2.029   4.020   3.777
 3829TIP3    H211373   1.959   3.887   3.799
 3830TIP3   OH211374   1.792   4.056   2.696
 3830TIP3    H111375   1.746   4.034   2.613
 3830TIP3    H211376   1.758   4.145   2.717
 3831TIP3   OH211377   1.231   3.908   3.084
 3831TIP3    H111378   1.281   3.900   3.168
 3831TIP3    H211379   1.182   3.823   3.087
 3832TIP3   OH211380   1.993   3.958   2.336
 3832TIP3    H111381   2.051   3.888   2.300
 3832TIP3    H211382   2.027   3.966   2.428
 3833TIP3   OH211383   2.044   4.007   2.607
 3833TIP3    H111384   1.955   4.015   2.648
 3833TIP3    H211385   2.092   3.961   2.677
 3834TIP3   OH211386   2.814   3.272   3.885
 3834TIP3    H111387   2.733   3.284   3.833
 3834TIP3    H211388   2.829   3.176   3.875
 3835TIP3   OH211389   1.410   3.681   3.910
 3835TIP3    H111390   1.460   3.662   3.992
 3835TIP3    H211391   1.336   3.617   3.916
 3836TIP3   OH211392   1.812   2.502   3.694
 3836TIP3    H111393   1.722   2.472   3.667
 3836TIP3    H211394   1.788   2.587   3.736
 3837TIP3   OH211395   2.345   2.618   3.889
 3837TIP3    H111396   2.412   2.591   3.954
 3837TIP3    H211397   2.260   2.599   3.935
 3838TIP3   OH211398   2.583   3.047   3.807
 3838TIP3    H111399   2.533   3.045   3.892
 3838TIP3    H211400   2.559   3.134   3.771
 3839TIP3   OH211401   2.247   3.179   2.366
 3839TIP3    H111402   2.208   3.154   2.280
 3839TIP3    H211403   2.329   3.224   2.337
 3840TIP3   OH211404   1.962   2.549   2.670
 3840TIP3    H111405   1.925   2.553   2.760
 3840TIP3    H211406   1.915   2.471   2.636
 3841TIP3   OH211407   1.746   3.017   3.715
 3841TIP3    H111408   1.692   3.038   3.795
 3841TIP3    H211409   1.730   3.098   3.661
 3842TIP3   OH211410   1.630   2.904   3.240
 3842TIP3    H111411   1.536   2.880   3.248
 3842TIP3    H211412   1.631   2.941   3.148
 3843TIP3   OH211413   2.120   2.996   2.957
 3843TIP3    H111414   2.063   3.065   2.916
 3843TIP3    H211415   2.168   2.963   2.880
 3844TIP3   OH211416   2.291   3.269   4.042
 3844TIP3    H111417   2.269   3.196   4.103
 3844TIP3    H211418   2.386   3.282   4.062
 3845TIP3   OH211419   2.274   3.020   3.193
 3845TIP3    H111420   2.213   3.049   3.122
 3845TIP3    H211421   2.306   2.938   3.149
 3846TIP3   OH211422   1.563   3.049   3.921
 3846TIP3    H111423   1.589   3.112   3.989
 3846TIP3    H211424   1.549   2.967   3.972
 3847TIP3   OH211425   1.609   2.523   2.638
 3847TIP3    H111426   1.599   2.522   2.735
 3847TIP3    H211427   1.549   2.597   2.618
 3848TIP3   OH211428   1.151   2.573   3.512
 3848TIP3    H111429   1.233   2.603   3.556
 3848TIP3    H211430   1.181   2.544   3.424
 3849TIP3   OH211431   1.138   2.554   3.025
 3849TIP3    H111432   1.174   2.598   2.945
 3849TIP3    H211433   1.072   2.622   3.049
 3850TIP3   OH211434   2.288   3.264   3.618
 3850TIP3    H111435   2.319   3.193   3.558
 3850TIP3    H211436   2.255   3.211   3.693
 3851TIP3   OH211437   1.955   2.711   3.291
 3851TIP3    H111438   1.868   2.720   3.335
 3851TIP3    H211439   2.015   2.730   3.365
 3852TIP3   OH211440   1.383   2.780   3.307
 3852TIP3    H111441   1.292   2.796   3.275
 3852TIP3    H211442   1.406   2.696   3.266
 3853TIP3   OH211443   1.677   2.754   2.967
 3853TIP3    H111444   1.752   2.815   2.968
 3853TIP3    H211445   1.609   2.815   2.930
 3854TIP3   OH211446   2.445   2.801   3.491
 3854TIP3    H111447   2.411   2.816   3.582
 3854TIP3    H211448   2.376   2.741   3.456
 3855TIP3   OH211449   1.494   2.763   2.747
 3855TIP3    H111450   1.421   2.764   2.683
 3855TIP3    H211451   1.554   2.830   2.707
 3856TIP3   OH211452   2.616   4.492   3.710
 3856TIP3    H111453   2.614   4.515   3.615
 3856TIP3    H211454   2.695   4.540   3.740
 3857TIP3   OH211455   1.571   3.602   4.131
 3857TIP3    H111456   1.651   3.633   4.178
 3857TIP3    H211457   1.507   3.602   4.205
 3858TIP3   OH211458   2.039   3.055   3.386
 3858TIP3    H111459   2.111   3.017   3.334
 3858TIP3    H211460   2.049   3.010   3.472
 3859TIP3   OH211461   1.576   2.537   3.266
 3859TIP3    H111462   1.525   2.461   3.300
 3859TIP3    H211463   1.580   2.522   3.171
 3860TIP3   OH211464   2.014   2.949   3.678
 3860TIP3    H111465   1.923   2.985   3.688
 3860TIP3    H211466   2.069   3.014   3.726
 3861TIP3   OH211467   1.737   3.336   2.779
 3861TIP3    H111468   1.681   3.258   2.796
 3861TIP3    H211469   1.733   3.377   2.869
 3862TIP3   OH211470   2.649   3.579   3.399
 3862TIP3    H111471   2.673   3.628   3.318
 3862TIP3    H211472   2.564   3.536   3.374
 3863TIP3   OH211473   2.211   2.652   2.637
 3863TIP3    H111474   2.114   2.636   2.642
 3863TIP3    H211475   2.218   2.748   2.657
 3864TIP3   OH211476   2.152   3.663   3.766
 3864TIP3    H111477   2.172   3.640   3.858
 3864TIP3    H211478   2.110   3.750   3.774
 3865TIP3   OH211479   2.277   2.902   2.738
 3865TIP3    H111480   2.374   2.911   2.751
 3865TIP3    H211481   2.255   2.981   2.685
 3866TIP3   OH211482   1.446   3.372   3.444
 3866TIP3    H111483   1.476   3.342   3.356
 3866TIP3    H211484   1.476   3.299   3.500
 3867TIP3   OH211485   1.891   3.489   2.600
 3867TIP3    H111486   1.845   3.576   2.604
 3867TIP3    H211487   1.834   3.433   2.657
 3868TIP3   OH211488   1.320   3.287   4.060
 3868TIP3    H111489   1.339   3.269   4.154
 3868TIP3    H211490   1.252   3.220   4.040
 3869TIP3   OH211491   2.048   3.399   4.081
 3869TIP3    H111492   1.987   3.343   4.030
 3869TIP3    H211493   2.135   3.365   4.051
 3870TIP3   OH211494   2.310   3.924   3.662
 3870TIP3    H111495   2.213   3.919   3.675
 3870TIP3    H211496   2.336   3.975   3.742
 3871TIP3   OH211497   2.718   2.994   2.573
 3871TIP3    H111498   2.657   2.949   2.510
 3871TIP3    H211499   2.716   3.082   2.531
 3872TIP3   OH211500   2.938   3.852   3.652
 3872TIP3    H111501   2.840   3.845   3.644
 3872TIP3    H211502   2.964   3.821   3.562
 3873TIP3   OH211503   2.422   3.812   2.482
 3873TIP3    H111504   2.393   3.741   2.542
 3873TIP3    H211505   2.432   3.765   2.397
 3874TIP3   OH211506   2.416   3.441   3.320
 3874TIP3    H111507   2.322   3.416   3.331
 3874TIP3    H211508   2.449   3.362   3.273
 3875TIP3   OH211509   1.543   3.672   3.080
 3875TIP3    H111510   1.541   3.749   3.019
 3875TIP3    H211511   1.451   3.643   3.076
 3876TIP3   OH211512   1.693   3.444   3.023
 3876TIP3    H111513   1.647   3.526   3.046
 3876TIP3    H211514   1.649   3.379   3.081
 3877TIP3   OH211515   1.812   4.013   3.541
 3877TIP3    H111516   1.854   4.084   3.489
 3877TIP3    H211517   1.889   3.976   3.587
 3878TIP3   OH211518   1.460   3.910   2.922
 3878TIP3    H111519   1.377   3.918   2.972
 3878TIP3    H211520   1.493   4.002   2.926
 3879TIP3   OH211521   2.201   3.648   3.498
 3879TIP3    H111522   2.192   3.645   3.596
 3879TIP3    H211523   2.277   3.590   3.484
 3880TIP3   OH211524   2.175   3.544   2.380
 3880TIP3    H111525   2.227   3.517   2.460
 3880TIP3    H211526   2.087   3.510   2.404
 3881TIP3   OH211527   2.449   4.181   3.551
 3881TIP3    H111528   2.370   4.123   3.544
 3881TIP3    H211529   2.432   4.244   3.477
 3882TIP3   OH211530   2.514   4.014   2.201
 3882TIP3    H111531   2.551   4.088   2.148
 3882TIP3    H211532   2.434   4.058   2.235
 3883TIP3   OH211533   1.532   2.793   4.067
 3883TIP3    H111534   1.434   2.796   4.075
 3883TIP3    H211535   1.555   2.729   4.137
 3884TIP3   OH211536   2.335   3.477   2.598
 3884TIP3    H111537   2.323   3.410   2.668
 3884TIP3    H211538   2.432   3.472   2.586
 3885TIP3   OH211539   1.248   3.876   3.699
 3885TIP3    H111540   1.301   3.799   3.725
 3885TIP3    H211541   1.282   3.943   3.759
 3886TIP3   OH211542   1.540   3.521   2.382
 3886TIP3    H111543   1.550   3.429   2.351
 3886TIP3    H211544   1.518   3.505   2.476
 3887TIP3   OH211545   1.482   3.527   2.656
 3887TIP3    H111546   1.554   3.491   2.711
 3887TIP3    H211547   1.495   3.624   2.665
 3888TIP3   OH211548   1.253   3.244   2.849
 3888TIP3    H111549   1.171   3.226   2.897
 3888TIP3    H211550   1.229   3.316   2.790
 3889TIP3   OH211551   2.371   2.856   3.750
 3889TIP3    H111552   2.452   2.893   3.788
 3889TIP3    H211553   2.358   2.775   3.803
 3890TIP3   OH211554   2.259   2.599   2.913
 3890TIP3    H111555   2.237   2.624   2.821
 3890TIP3    H211556   2.291   2.685   2.949
 3891TIP3   OH211557   1.754   3.723   2.605
 3891TIP3    H111558   1.667   3.751   2.639
 3891TIP3    H211559   1.765   3.785   2.532
 3892TIP3   OH211560   1.965   2.774   3.018
 3892TIP3    H111561   2.014   2.858   3.000
 3892TIP3    H211562   1.949   2.779   3.114
 3893TIP3   OH211563   2.209   3.104   3.824
 3893TIP3    H111564   2.231   3.157   3.903
 3893TIP3    H211565   2.264   3.025   3.835
 3894TIP3   OH211566   2.088   2.511   3.119
 3894TIP3    H111567   2.064   2.591   3.169
 3894TIP3    H211568   2.148   2.550   3.051
 3895TIP3   OH211569   1.499   3.801   2.670
 3895TIP3    H111570   1.468   3.870   2.607
 3895TIP3    H211571   1.482   3.844   2.757
 3896TIP3   OH211572   1.604   2.498   2.921
 3896TIP3    H111573   1.594   2.596   2.929
 3896TIP3    H211574   1.702   2.496   2.924
 3897TIP3   OH211575   2.849   3.004   3.806
 3897TIP3    H111576   2.751   3.002   3.812
 3897TIP3    H211577   2.861   2.968   3.717
 3898TIP3   OH211578   2.501   3.199   3.193
 3898TIP3    H111579   2.424   3.140   3.203
 3898TIP3    H211580   2.571   3.150   3.241
 3899TIP3   OH211581   1.215   3.443   2.657
 3899TIP3    H111582   1.299   3.493   2.665
 3899TIP3    H211583   1.248   3.374   2.596
 3900TIP3   OH211584   1.142   2.714   2.807
 3900TIP3    H111585   1.163   2.809   2.801
 3900TIP3    H211586   1.072   2.706   2.741
 3901TIP3   OH211587   2.469   4.157   3.142
 3901TIP3    H111588   2.426   4.204   3.067
 3901TIP3    H211589   2.563   4.175   3.121
 3902TIP3   OH211590   1.548   2.423   3.666
 3902TIP3    H111591   1.514   2.392   3.579
 3902TIP3    H211592   1.534   2.344   3.723
 3903TIP3   OH211593   1.098   3.666   3.056
 3903TIP3    H111594   1.009   3.683   3.091
 3903TIP3    H211595   1.086   3.667   2.960
 3904TIP3   OH211596   1.241   4.184   4.122
 3904TIP3    H111597   1.328   4.184   4.168
 3904TIP3    H211598   1.221   4.089   4.119
 3905TIP3   OH211599   1.722   4.147   4.167
 3905TIP3    H111600   1.817   4.128   4.172
 3905TIP3    H211601   1.696   4.088   4.093
 3906TIP3   OH211602   1.706   3.723   2.298
 3906TIP3    H111603   1.649   3.651   2.333
 3906TIP3    H211604   1.779   3.671   2.261
 3907TIP3   OH211605   2.359   4.056   3.901
 3907TIP3    H111606   2.352   3.985   3.969
 3907TIP3    H211607   2.438   4.105   3.930
 3908TIP3   OH211608   2.142   3.765   2.207
 3908TIP3    H111609   2.180   3.697   2.266
 3908TIP3    H211610   2.198   3.760   2.128
 3909TIP3   OH211611   1.370   3.589   4.323
 3909TIP3    H111612   1.388   3.493   4.324
 3909TIP3    H211613   1.284   3.592   4.276
 3910TIP3   OH211614   1.337   3.247   2.513
 3910TIP3    H111615   1.374   3.196   2.586
 3910TIP3    H211616   1.412   3.246   2.449
 3911TIP3   OH211617   1.978   3.675   4.096
 3911TIP3    H111618   1.937   3.693   4.009
 3911TIP3    H211619   2.009   3.582   4.086
 3912TIP3   OH211620   1.864   3.442   2.326
 3912TIP3    H111621   1.862   3.450   2.423
 3912TIP3    H211622   1.863   3.344   2.316
 3913TIP3   OH211623   2.473   3.684   3.704
 3913TIP3    H111624   2.547   3.729   3.658
 3913TIP3    H211625   2.400   3.748   3.688
 3914TIP3   OH211626   1.488   3.325   4.306
 3914TIP3    H111627   1.566   3.276   4.275
 3914TIP3    H211628   1.519   3.357   4.394
 3915TIP3   OH211629   1.828   3.210   3.968
 3915TIP3    H111630   1.749   3.268   3.969
 3915TIP3    H211631   1.876   3.243   3.889
 3916TIP3   OH211632   1.658   2.910   2.573
 3916TIP3    H111633   1.631   2.938   2.483
 3916TIP3    H211634   1.750   2.942   2.577
 3917TIP3   OH211635   2.344   3.611   4.100
 3917TIP3    H111636   2.421   3.584   4.048
 3917TIP3    H211637   2.340   3.543   4.169
 3918TIP3   OH211638   2.481   3.270   2.241
 3918TIP3    H111639   2.458   3.223   2.158
 3918TIP3    H211640   2.447   3.359   2.218
 3919TIP3   OH211641   1.949   2.997   4.092
 3919TIP3    H111642   1.949   2.918   4.034
 3919TIP3    H211643   1.906   3.064   4.034
 3920TIP3   OH211644   1.952   2.783   3.900
 3920TIP3    H111645   1.979   2.825   3.816
 3920TIP3    H211646   1.858   2.761   3.881
 3921TIP3   OH211647   1.979   3.322   3.775
 3921TIP3    H111648   2.061   3.328   3.724
 3921TIP3    H211649   1.921   3.386   3.729
 3922TIP3   OH211650   2.561   3.286   4.153
 3922TIP3    H111651   2.609   3.202   4.161
 3922TIP3    H211652   2.629   3.344   4.116
 3923TIP3   OH211653   2.602   3.540   3.891
 3923TIP3    H111654   2.544   3.593   3.831
 3923TIP3    H211655   2.689   3.559   3.851
 3924TIP3   OH211656   1.828   3.107   4.325
 3924TIP3    H111657   1.760   3.038   4.336
 3924TIP3    H211658   1.861   3.086   4.235
 3925TIP3   OH211659   2.083   2.547   3.967
 3925TIP3    H111660   2.035   2.629   3.943
 3925TIP3    H211661   2.014   2.479   3.954
 3926TIP3   OH211662   2.210   3.050   4.182
 3926TIP3    H111663   2.196   3.037   4.277
 3926TIP3    H211664   2.120   3.027   4.149
 3927TIP3   OH211665   2.449   3.002   4.037
 3927TIP3    H111666   2.373   3.002   4.099
 3927TIP3    H211667   2.523   2.971   4.094
 3928TIP3   OH211668   2.677   2.941   4.189
 3928TIP3    H111669   2.690   2.846   4.206
 3928TIP3    H211670   2.674   2.980   4.279
 3929TIP3   OH211671   1.666   2.888   4.376
 3929TIP3    H111672   1.671   2.798   4.338
 3929TIP3    H211673   1.703   2.873   4.465
 3930TIP3   OH211674   2.177   2.556   4.224
 3930TIP3    H111675   2.244   2.485   4.218
 3930TIP3    H211676   2.138   2.552   4.135
 3931TIP3   OH211677   2.244   2.771   4.383
 3931TIP3    H111678   2.222   2.700   4.318
 3931TIP3    H211679   2.166   2.830   4.375
 3932TIP3   OH211680   1.466   4.006   2.485
 3932TIP3    H111681   1.561   3.997   2.464
 3932TIP3    H211682   1.435   4.051   2.404
 3933TIP3   OH211683   0.946   3.389   2.699
 3933TIP3    H111684   1.040   3.398   2.674
 3933TIP3    H211685   0.936   3.290   2.692
 3934TIP3   OH211686   0.982   3.854   3.293
 3934TIP3    H111687   0.982   3.777   3.351
 3934TIP3    H211688   1.036   3.915   3.346
 3935TIP3   OH211689   2.722   4.248   3.099
 3935TIP3    H111690   2.751   4.278   3.187
 3935TIP3    H211691   2.788   4.288   3.040
 3936TIP3   OH211692   2.753   4.266   3.382
 3936TIP3    H111693   2.707   4.180   3.377
 3936TIP3    H211694   2.827   4.242   3.439
 3937TIP3   OH211695   2.798   3.943   3.955
 3937TIP3    H111696   2.725   3.952   4.019
 3937TIP3    H211697   2.840   4.031   3.959
 3938TIP3   OH211698   2.614   3.456   2.574
 3938TIP3    H111699   2.683   3.519   2.545
 3938TIP3    H211700   2.658   3.417   2.653
 3939TIP3   OH211701   2.743   3.324   2.778
 3939TIP3    H111702   2.676   3.281   2.836
 3939TIP3    H211703   2.806   3.361   2.842
 3940TIP3   OH211704   2.798   3.716   3.211
 3940TIP3    H111705   2.849   3.649   3.161
 3940TIP3    H211706   2.790   3.788   3.146
 3941TIP3   OH211707   2.628   4.017   3.405
 3941TIP3    H111708   2.555   4.057   3.456
 3941TIP3    H211709   2.578   3.969   3.335
 3942TIP3   OH211710   2.680   3.231   2.426
 3942TIP3    H111711   2.609   3.232   2.357
 3942TIP3    H211712   2.651   3.307   2.480
 3943TIP3   OH211713   2.552   2.904   2.379
 3943TIP3    H111714   2.508   2.943   2.303
 3943TIP3    H211715   2.527   2.809   2.369
 3944TIP3   OH211716   2.557   3.181   2.924
 3944TIP3    H111717   2.562   3.084   2.915
 3944TIP3    H211718   2.542   3.193   3.020
 3945TIP3   OH211719   1.181   3.251   3.673
 3945TIP3    H111720   1.179   3.220   3.580
 3945TIP3    H211721   1.278   3.255   3.689
 3946TIP3   OH211722   2.845   3.605   3.782
 3946TIP3    H111723   2.917   3.538   3.772
 3946TIP3    H211724   2.870   3.673   3.718
 3947TIP3   OH211725   3.030   3.409   3.796
 3947TIP3    H111726   2.955   3.359   3.836
 3947TIP3    H211727   3.103   3.345   3.811
 3948TIP3   OH211728   2.495   2.638   2.365
 3948TIP3    H111729   2.567   2.605   2.421
 3948TIP3    H211730   2.419   2.580   2.386
 3949TIP3   OH211731   2.554   2.898   2.820
 3949TIP3    H111732   2.595   2.810   2.834
 3949TIP3    H211733   2.610   2.931   2.747
 3950TIP3   OH211734   2.714   3.067   3.315
 3950TIP3    H111735   2.799   3.094   3.273
 3950TIP3    H211736   2.727   3.106   3.403
 3951TIP3   OH211737   2.784   3.214   3.546
 3951TIP3    H111738   2.705   3.248   3.593
 3951TIP3    H211739   2.816   3.295   3.500
 3952TIP3   OH211740   1.399   2.942   4.354
 3952TIP3    H111741   1.497   2.934   4.349
 3952TIP3    H211742   1.376   2.853   4.389
 3953TIP3   OH211743   3.225   2.800   4.099
 3953TIP3    H111744   3.290   2.739   4.058
 3953TIP3    H211745   3.202   2.860   4.024
 3954TIP3   OH211746   2.662   2.647   2.856
 3954TIP3    H111747   2.709   2.630   2.941
 3954TIP3    H211748   2.601   2.571   2.854
 3955TIP3   OH211749   1.365   2.632   3.681
 3955TIP3    H111750   1.428   2.558   3.686
 3955TIP3    H211751   1.426   2.708   3.669
 3956TIP3   OH211752   1.168   2.906   3.755
 3956TIP3    H111753   1.211   2.891   3.668
 3956TIP3    H211754   1.197   2.996   3.773
 3957TIP3   OH211755   3.105   2.946   3.904
 3957TIP3    H111756   3.019   2.987   3.926
 3957TIP3    H211757   3.074   2.873   3.847
 3958TIP3   OH211758   2.743   2.578   2.493
 3958TIP3    H111759   2.782   2.509   2.434
 3958TIP3    H211760   2.807   2.651   2.484
 3959TIP3   OH211761   1.153   2.431   3.269
 3959TIP3    H111762   1.059   2.410   3.281
 3959TIP3    H211763   1.153   2.475   3.181
 3960TIP3   OH211764   2.307   4.115   2.757
 3960TIP3    H111765   2.356   4.098   2.673
 3960TIP3    H211766   2.365   4.178   2.801
 3961TIP3   OH211767   1.369   2.487   4.067
 3961TIP3    H111768   1.315   2.484   4.147
 3961TIP3    H211769   1.307   2.529   4.004
 3962TIP3   OH211770   1.407   3.918   4.141
 3962TIP3    H111771   1.315   3.890   4.123
 3962TIP3    H211772   1.416   3.899   4.235
 3963TIP3   OH211773   1.585   3.951   3.690
 3963TIP3    H111774   1.538   4.027   3.650
 3963TIP3    H211775   1.671   3.963   3.645
 3964TIP3   OH211776   2.029   4.194   3.827
 3964TIP3    H111777   2.072   4.194   3.915
 3964TIP3    H211778   2.095   4.244   3.775
 3965TIP3   OH211779   2.208   4.346   3.686
 3965TIP3    H111780   2.278   4.294   3.643
 3965TIP3    H211781   2.261   4.403   3.746
 3966TIP3   OH211782   3.003   2.709   3.786
 3966TIP3    H111783   2.913   2.705   3.750
 3966TIP3    H211784   3.033   2.615   3.774
 3967TIP3   OH211785   1.261   4.208   3.711
 3967TIP3    H111786   1.172   4.241   3.689
 3967TIP3    H211787   1.272   4.244   3.800
 3968TIP3   OH211788   1.499   4.186   3.571
 3968TIP3    H111789   1.411   4.198   3.615
 3968TIP3    H211790   1.479   4.217   3.481
 3969TIP3   OH211791   1.923   4.213   3.369
 3969TIP3    H111792   1.855   4.232   3.303
 3969TIP3    H211793   1.936   4.301   3.411
 3970TIP3   OH211794   2.193   4.154   3.422
 3970TIP3    H111795   2.098   4.169   3.401
 3970TIP3    H211796   2.235   4.227   3.376
 3971TIP3   OH211797   2.401   4.345   3.335
 3971TIP3    H111798   2.386   4.429   3.286
 3971TIP3    H211799   2.427   4.284   3.262
 3972TIP3   OH211800   1.171   3.999   3.458
 3972TIP3    H111801   1.199   3.972   3.548
 3972TIP3    H211802   1.242   3.955   3.406
 3973TIP3   OH211803   1.368   3.873   3.317
 3973TIP3    H111804   1.383   3.788   3.363
 3973TIP3    H211805   1.459   3.907   3.311
 3974TIP3   OH211806   1.635   3.966   3.317
 3974TIP3    H111807   1.664   3.874   3.302
 3974TIP3    H211808   1.680   3.984   3.402
 3975TIP3   OH211809   2.221   2.626   3.418
 3975TIP3    H111810   2.168   2.556   3.460
 3975TIP3    H211811   2.283   2.576   3.362
 3976TIP3   OH211812   2.733   2.499   3.310
 3976TIP3    H111813   2.769   2.553   3.236
 3976TIP3    H211814   2.637   2.521   3.305
 3977TIP3   OH211815   2.827   2.600   3.074
 3977TIP3    H111816   2.900   2.550   3.032
 3977TIP3    H211817   2.859   2.692   3.060
 3978TIP3   OH211818   1.457   2.326   3.420
 3978TIP3    H111819   1.363   2.299   3.416
 3978TIP3    H211820   1.500   2.239   3.419
 3979TIP3   OH211821   1.284   2.188   3.087
 3979TIP3    H111822   1.315   2.242   3.011
 3979TIP3    H211823   1.210   2.242   3.118
 3980TIP3   OH211824   1.914   2.362   3.303
 3980TIP3    H111825   1.966   2.419   3.244
 3980TIP3    H211826   1.911   2.417   3.383
 3981TIP3   OH211827   2.452   2.510   3.285
 3981TIP3    H111828   2.443   2.478   3.195
 3981TIP3    H211829   2.434   2.428   3.338
 3982TIP3   OH211830   2.478   2.433   2.847
 3982TIP3    H111831   2.395   2.483   2.861
 3982TIP3    H211832   2.457   2.350   2.894
 3983TIP3   OH211833   0.864   3.782   2.858
 3983TIP3    H111834   0.906   3.717   2.798
 3983TIP3    H211835   0.891   3.867   2.814
 3984TIP3   OH211836   1.372   2.342   2.877
 3984TIP3    H111837   1.398   2.299   2.793
 3984TIP3    H211838   1.444   2.406   2.891
 3985TIP3   OH211839   1.878   2.525   2.937
 3985TIP3    H111840   1.952   2.506   2.997
 3985TIP3    H211841   1.873   2.622   2.951
 3986TIP3   OH211842   1.732   3.962   2.429
 3986TIP3    H111843   1.821   3.982   2.393
 3986TIP3    H211844   1.710   3.886   2.371
 3987TIP3   OH211845   2.453   4.079   2.524
 3987TIP3    H111846   2.446   3.981   2.513
 3987TIP3    H211847   2.407   4.109   2.443
 3988TIP3   OH211848   1.664   2.611   4.315
 3988TIP3    H111849   1.631   2.539   4.371
 3988TIP3    H211850   1.759   2.612   4.340
 3989TIP3   OH211851   1.914   2.610   4.432
 3989TIP3    H111852   1.999   2.586   4.391
 3989TIP3    H211853   1.904   2.538   4.497
 3990TIP3   OH211854   1.042   3.796   2.488
 3990TIP3    H111855   1.064   3.840   2.571
 3990TIP3    H211856   1.126   3.749   2.467
 3991TIP3   OH211857   2.740   2.671   4.219
 3991TIP3    H111858   2.759   2.641   4.310
 3991TIP3    H211859   2.829   2.666   4.178
 3992TIP3   OH211860   2.678   4.223   3.711
 3992TIP3    H111861   2.599   4.191   3.662
 3992TIP3    H211862   2.658   4.318   3.716
 3993TIP3   OH211863   3.946   3.598   2.477
 3993TIP3    H111864   3.914   3.688   2.454
 3993TIP3    H211865   3.872   3.545   2.442
 3994TIP3   OH211866   3.944   3.597   2.859
 3994TIP3    H111867   3.975   3.565   2.946
 3994TIP3    H211868   3.904   3.518   2.821
 3995TIP3   OH211869   3.242   3.490   3.225
 3995TIP3    H111870   3.273   3.422   3.287
 3995TIP3    H211871   3.323   3.542   3.211
 3996TIP3   OH211872   4.189   3.899   2.539
 3996TIP3    H111873   4.171   3.827   2.601
 3996TIP3    H211874   4.217   3.971   2.598
 3997TIP3   OH211875   3.215   3.901   2.949
 3997TIP3    H111876   3.206   3.803   2.950
 3997TIP3    H211877   3.312   3.909   2.941
 3998TIP3   OH211878   2.920   3.101   2.735
 3998TIP3    H111879   2.872   3.185   2.748
 3998TIP3    H211880   2.851   3.049   2.691
 3999TIP3   OH211881   2.982   3.391   2.907
 3999TIP3    H111882   3.030   3.313   2.941
 3999TIP3    H211883   3.036   3.416   2.831
 4000TIP3   OH211884   3.839   4.361   2.558
 4000TIP3    H111885   3.883   4.290   2.507
 4000TIP3    H211886   3.829   4.319   2.644
 4001TIP3   OH211887   3.742   3.822   2.907
 4001TIP3    H111888   3.779   3.744   2.861
 4001TIP3    H211889   3.826   3.866   2.931
 4002TIP3   OH211890   4.758   3.140   2.905
 4002TIP3    H111891   4.786   3.224   2.946
 4002TIP3    H211892   4.777   3.157   2.811
 4003TIP3   OH211893   4.156   3.322   2.938
 4003TIP3    H111894   4.196   3.235   2.957
 4003TIP3    H211895   4.122   3.307   2.847
 4004TIP3   OH211896   3.489   2.982   2.907
 4004TIP3    H111897   3.474   3.054   2.841
 4004TIP3    H211898   3.444   2.908   2.861
 4005TIP3   OH211899   4.187   3.075   2.528
 4005TIP3    H111900   4.261   3.059   2.592
 4005TIP3    H211901   4.237   3.107   2.451
 4006TIP3   OH211902   3.126   3.182   3.011
 4006TIP3    H111903   3.209   3.163   3.058
 4006TIP3    H211904   3.139   3.128   2.930
 4007TIP3   OH211905   3.566   3.381   2.807
 4007TIP3    H111906   3.661   3.357   2.819
 4007TIP3    H211907   3.529   3.296   2.773
 4008TIP3   OH211908   4.831   3.350   3.074
 4008TIP3    H111909   4.746   3.396   3.054
 4008TIP3    H211910   4.844   3.376   3.166
 4009TIP3   OH211911   3.489   2.965   3.339
 4009TIP3    H111912   3.430   3.002   3.270
 4009TIP3    H211913   3.436   2.984   3.419
 4010TIP3   OH211914   3.838   3.819   2.345
 4010TIP3    H111915   3.792   3.792   2.265
 4010TIP3    H211916   3.790   3.901   2.369
 4011TIP3   OH211917   3.597   3.741   3.132
 4011TIP3    H111918   3.534   3.807   3.169
 4011TIP3    H211919   3.638   3.790   3.059
 4012TIP3   OH211920   4.399   3.076   2.698
 4012TIP3    H111921   4.385   3.025   2.779
 4012TIP3    H211922   4.450   3.152   2.730
 4013TIP3   OH211923   3.360   3.080   3.124
 4013TIP3    H111924   3.422   3.153   3.146
 4013TIP3    H211925   3.407   3.040   3.048
 4014TIP3   OH211926   3.424   3.935   3.232
 4014TIP3    H111927   3.398   4.021   3.193
 4014TIP3    H211928   3.345   3.918   3.287
 4015TIP3   OH211929   2.817   3.625   2.467
 4015TIP3    H111930   2.776   3.650   2.382
 4015TIP3    H211931   2.849   3.710   2.501
 4016TIP3   OH211932   4.258   4.142   2.709
 4016TIP3    H111933   4.168   4.132   2.748
 4016TIP3    H211934   4.248   4.227   2.662
 4017TIP3   OH211935   4.549   3.041   3.072
 4017TIP3    H111936   4.461   3.066   3.039
 4017TIP3    H211937   4.607   3.072   2.999
 4018TIP3   OH211938   3.844   2.684   3.052
 4018TIP3    H111939   3.829   2.589   3.067
 4018TIP3    H211940   3.767   2.722   3.099
 4019TIP3   OH211941   3.958   4.188   2.380
 4019TIP3    H111942   4.008   4.104   2.362
 4019TIP3    H211943   4.020   4.252   2.339
 4020TIP3   OH211944   4.102   3.973   2.288
 4020TIP3    H111945   4.061   3.894   2.251
 4020TIP3    H211946   4.139   3.938   2.372
 4021TIP3   OH211947   4.484   4.053   3.050
 4021TIP3    H111948   4.472   3.975   2.992
 4021TIP3    H211949   4.466   4.127   2.988
 4022TIP3   OH211950   3.777   3.453   2.307
 4022TIP3    H111951   3.692   3.497   2.284
 4022TIP3    H211952   3.818   3.443   2.220
 4023TIP3   OH211953   3.738   3.237   2.018
 4023TIP3    H111954   3.808   3.282   2.069
 4023TIP3    H211955   3.790   3.167   1.974
 4024TIP3   OH211956   4.679   3.692   2.897
 4024TIP3    H111957   4.595   3.742   2.901
 4024TIP3    H211958   4.708   3.714   2.806
 4025TIP3   OH211959   4.124   3.533   2.279
 4025TIP3    H111960   4.068   3.556   2.358
 4025TIP3    H211961   4.207   3.505   2.324
 4026TIP3   OH211962   4.358   3.568   3.192
 4026TIP3    H111963   4.354   3.652   3.241
 4026TIP3    H211964   4.271   3.570   3.147
 4027TIP3   OH211965   3.355   3.529   2.697
 4027TIP3    H111966   3.308   3.471   2.634
 4027TIP3    H211967   3.431   3.474   2.725
 4028TIP3   OH211968   3.485   3.940   2.844
 4028TIP3    H111969   3.463   3.899   2.759
 4028TIP3    H211970   3.574   3.904   2.862
 4029TIP3   OH211971   3.490   3.498   3.053
 4029TIP3    H111972   3.522   3.474   2.963
 4029TIP3    H211973   3.534   3.584   3.069
 4030TIP3   OH211974   4.017   4.136   2.828
 4030TIP3    H111975   4.004   4.215   2.884
 4030TIP3    H211976   4.002   4.062   2.890
 4031TIP3   OH211977   3.629   4.055   3.375
 4031TIP3    H111978   3.569   4.117   3.421
 4031TIP3    H211979   3.564   4.002   3.325
 4032TIP3   OH211980   3.968   3.384   2.108
 4032TIP3    H111981   4.024   3.446   2.159
 4032TIP3    H211982   3.992   3.409   2.015
 4033TIP3   OH211983   3.385   3.610   3.478
 4033TIP3    H111984   3.388   3.698   3.522
 4033TIP3    H211985   3.289   3.591   3.486
 4034TIP3   OH211986   3.707   4.066   2.382
 4034TIP3    H111987   3.787   4.120   2.395
 4034TIP3    H211988   3.646   4.128   2.340
 4035TIP3   OH211989   3.423   4.223   3.462
 4035TIP3    H111990   3.388   4.222   3.371
 4035TIP3    H211991   3.343   4.201   3.515
 4036TIP3   OH211992   4.479   2.627   2.154
 4036TIP3    H111993   4.398   2.647   2.205
 4036TIP3    H211994   4.492   2.711   2.105
 4037TIP3   OH211995   3.212   3.368   2.517
 4037TIP3    H111996   3.155   3.415   2.452
 4037TIP3    H211997   3.186   3.277   2.500
 4038TIP3   OH211998   4.278   3.995   1.703
 4038TIP3    H111999   4.287   4.092   1.688
 4038TIP3    H212000   4.371   3.965   1.690
 4039TIP3   OH212001   3.002   3.754   3.408
 4039TIP3    H112002   2.936   3.733   3.339
 4039TIP3    H212003   3.039   3.667   3.431
 4040TIP3   OH212004   2.856   3.947   3.040
 4040TIP3    H112005   2.952   3.938   3.031
 4040TIP3    H212006   2.849   4.025   3.096
 4041TIP3   OH212007   4.721   4.398   3.096
 4041TIP3    H112008   4.720   4.302   3.110
 4041TIP3    H212009   4.638   4.423   3.142
 4042TIP3   OH212010   3.826   4.184   3.232
 4042TIP3    H112011   3.825   4.276   3.264
 4042TIP3    H212012   3.755   4.144   3.286
 4043TIP3   OH212013   3.589   4.314   2.182
 4043TIP3    H112014   3.541   4.292   2.101
 4043TIP3    H212015   3.554   4.401   2.206
 4044TIP3   OH212016   3.026   4.162   2.568
 4044TIP3    H112017   3.072   4.152   2.654
 4044TIP3    H212018   2.974   4.080   2.566
 4045TIP3   OH212019   3.789   4.215   1.823
 4045TIP3    H112020   3.848   4.144   1.787
 4045TIP3    H212021   3.823   4.223   1.915
 4046TIP3   OH212022   3.840   4.262   2.093
 4046TIP3    H112023   3.751   4.272   2.134
 4046TIP3    H212024   3.889   4.218   2.164
 4047TIP3   OH212025   4.611   3.529   3.371
 4047TIP3    H112026   4.529   3.541   3.321
 4047TIP3    H212027   4.626   3.433   3.361
 4048TIP3   OH212028   3.207   3.937   3.397
 4048TIP3    H112029   3.257   3.919   3.479
 4048TIP3    H212030   3.133   3.873   3.404
 4049TIP3   OH212031   3.607   2.759   3.183
 4049TIP3    H112032   3.517   2.729   3.155
 4049TIP3    H212033   3.582   2.842   3.228
 4050TIP3   OH212034   4.141   2.875   3.376
 4050TIP3    H112035   4.208   2.848   3.441
 4050TIP3    H212036   4.057   2.855   3.421
 4051TIP3   OH212037   4.381   3.305   3.296
 4051TIP3    H112038   4.330   3.302   3.380
 4051TIP3    H212039   4.355   3.391   3.258
 4052TIP3   OH212040   4.040   3.435   1.851
 4052TIP3    H112041   4.005   3.409   1.764
 4052TIP3    H212042   4.123   3.480   1.825
 4053TIP3   OH212043   3.539   3.275   3.200
 4053TIP3    H112044   3.488   3.297   3.281
 4053TIP3    H212045   3.523   3.356   3.147
 4054TIP3   OH212046   3.426   3.159   2.709
 4054TIP3    H112047   3.333   3.134   2.725
 4054TIP3    H212048   3.437   3.135   2.616
 4055TIP3   OH212049   3.917   3.262   2.445
 4055TIP3    H112050   3.861   3.327   2.399
 4055TIP3    H212051   3.962   3.218   2.370
 4056TIP3   OH212052   4.087   3.526   3.528
 4056TIP3    H112053   4.065   3.453   3.590
 4056TIP3    H212054   4.181   3.539   3.550
 4057TIP3   OH212055   4.069   3.277   2.680
 4057TIP3    H112056   4.008   3.303   2.607
 4057TIP3    H212057   4.104   3.195   2.639
 4058TIP3   OH212058   3.358   3.305   3.409
 4058TIP3    H112059   3.386   3.368   3.476
 4058TIP3    H212060   3.346   3.223   3.460
 4059TIP3   OH212061   2.950   2.824   2.993
 4059TIP3    H112062   3.026   2.858   3.044
 4059TIP3    H212063   2.989   2.798   2.908
 4060TIP3   OH212064   2.922   2.807   2.513
 4060TIP3    H112065   2.961   2.845   2.431
 4060TIP3    H212066   2.859   2.880   2.533
 4061TIP3   OH212067   4.083   3.521   3.103
 4061TIP3    H112068   4.115   3.449   3.044
 4061TIP3    H212069   4.052   3.468   3.179
 4062TIP3   OH212070   3.745   2.988   2.792
 4062TIP3    H112071   3.664   2.982   2.847
 4062TIP3    H212072   3.816   2.982   2.858
 4063TIP3   OH212073   3.184   3.041   2.782
 4063TIP3    H112074   3.090   3.049   2.754
 4063TIP3    H212075   3.206   2.949   2.758
 4064TIP3   OH212076   4.241   3.058   2.979
 4064TIP3    H112077   4.205   3.072   3.070
 4064TIP3    H212078   4.175   2.994   2.944
 4065TIP3   OH212079   3.255   3.098   2.249
 4065TIP3    H112080   3.208   3.043   2.184
 4065TIP3    H212081   3.347   3.071   2.228
 4066TIP3   OH212082   4.412   4.749   3.197
 4066TIP3    H112083   4.411   4.772   3.102
 4066TIP3    H212084   4.492   4.796   3.228
 4067TIP3   OH212085   3.368   3.859   3.617
 4067TIP3    H112086   3.448   3.889   3.665
 4067TIP3    H212087   3.304   3.857   3.691
 4068TIP3   OH212088   3.833   3.314   2.873
 4068TIP3    H112089   3.901   3.272   2.818
 4068TIP3    H212090   3.843   3.267   2.958
 4069TIP3   OH212091   3.358   2.802   2.748
 4069TIP3    H112092   3.326   2.720   2.791
 4069TIP3    H212093   3.411   2.768   2.675
 4070TIP3   OH212094   3.808   3.207   3.165
 4070TIP3    H112095   3.719   3.245   3.177
 4070TIP3    H212096   3.866   3.270   3.213
 4071TIP3   OH212097   3.542   3.603   2.256
 4071TIP3    H112098   3.472   3.533   2.247
 4071TIP3    H212099   3.525   3.634   2.348
 4072TIP3   OH212100   4.445   3.836   2.886
 4072TIP3    H112101   4.469   3.885   2.805
 4072TIP3    H212102   4.360   3.793   2.861
 4073TIP3   OH212103   3.974   2.916   2.120
 4073TIP3    H112104   3.879   2.926   2.139
 4073TIP3    H212105   4.010   3.003   2.146
 4074TIP3   OH212106   3.948   3.920   3.253
 4074TIP3    H112107   3.969   3.896   3.344
 4074TIP3    H212108   3.906   4.007   3.263
 4075TIP3   OH212109   4.075   3.152   2.219
 4075TIP3    H112110   4.170   3.163   2.238
 4075TIP3    H212111   4.053   3.235   2.171
 4076TIP3   OH212112   3.240   3.625   2.933
 4076TIP3    H112113   3.276   3.596   2.847
 4076TIP3    H212114   3.278   3.559   2.993
 4077TIP3   OH212115   3.690   3.749   2.079
 4077TIP3    H112116   3.643   3.835   2.086
 4077TIP3    H212117   3.635   3.693   2.138
 4078TIP3   OH212118   3.119   3.542   3.546
 4078TIP3    H112119   3.138   3.528   3.641
 4078TIP3    H212120   3.049   3.476   3.529
 4079TIP3   OH212121   3.845   3.657   3.566
 4079TIP3    H112122   3.785   3.598   3.517
 4079TIP3    H212123   3.932   3.622   3.538
 4080TIP3   OH212124   4.105   4.182   3.148
 4080TIP3    H112125   4.009   4.176   3.162
 4080TIP3    H212126   4.133   4.231   3.228
 4081TIP3   OH212127   4.516   3.250   2.058
 4081TIP3    H112128   4.453   3.205   1.996
 4081TIP3    H212129   4.512   3.339   2.018
 4082TIP3   OH212130   4.734   4.109   3.139
 4082TIP3    H112131   4.636   4.102   3.131
 4082TIP3    H212132   4.760   4.078   3.049
 4083TIP3   OH212133   4.218   4.068   1.969
 4083TIP3    H112134   4.189   3.999   2.030
 4083TIP3    H212135   4.228   4.021   1.884
 4084TIP3   OH212136   4.212   3.697   2.805
 4084TIP3    H112137   4.118   3.672   2.818
 4084TIP3    H212138   4.245   3.617   2.760
 4085TIP3   OH212139   3.339   3.927   2.561
 4085TIP3    H112140   3.337   4.007   2.505
 4085TIP3    H212141   3.245   3.905   2.566
 4086TIP3   OH212142   2.900   3.230   2.257
 4086TIP3    H112143   2.951   3.310   2.282
 4086TIP3    H212144   2.826   3.233   2.322
 4087TIP3   OH212145   3.479   3.693   2.504
 4087TIP3    H112146   3.442   3.781   2.523
 4087TIP3    H212147   3.441   3.640   2.577
 4088TIP3   OH212148   3.608   4.269   3.027
 4088TIP3    H112149   3.651   4.341   2.976
 4088TIP3    H212150   3.685   4.233   3.075
 4089TIP3   OH212151   3.257   4.165   2.410
 4089TIP3    H112152   3.172   4.172   2.457
 4089TIP3    H212153   3.288   4.258   2.413
 4090TIP3   OH212154   3.997   3.904   2.985
 4090TIP3    H112155   3.987   3.902   3.083
 4090TIP3    H212156   4.074   3.847   2.972
 4091TIP3   OH212157   3.971   3.800   1.868
 4091TIP3    H112158   4.024   3.774   1.947
 4091TIP3    H212159   3.884   3.768   1.895
 4092TIP3   OH212160   4.245   4.437   3.038
 4092TIP3    H112161   4.167   4.378   3.032
 4092TIP3    H212162   4.227   4.500   2.964
 4093TIP3   OH212163   4.311   4.271   1.687
 4093TIP3    H112164   4.348   4.345   1.637
 4093TIP3    H212165   4.230   4.315   1.722
 4094TIP3   OH212166   3.329   3.048   3.554
 4094TIP3    H112167   3.233   3.052   3.567
 4094TIP3    H212168   3.357   2.991   3.627
 4095TIP3   OH212169   4.132   3.732   2.084
 4095TIP3    H112170   4.120   3.666   2.155
 4095TIP3    H212171   4.229   3.728   2.072
 4096TIP3   OH212172   3.046   4.132   3.186
 4096TIP3    H112173   3.098   4.056   3.215
 4096TIP3    H212174   3.076   4.200   3.248
 4097TIP3   OH212175   3.336   3.776   1.868
 4097TIP3    H112176   3.349   3.684   1.840
 4097TIP3    H212177   3.316   3.763   1.963
 4098TIP3   OH212178   3.280   3.782   2.140
 4098TIP3    H112179   3.353   3.749   2.194
 4098TIP3    H212180   3.289   3.880   2.151
 4099TIP3   OH212181   3.019   3.474   2.345
 4099TIP3    H112182   2.951   3.519   2.400
 4099TIP3    H212183   3.033   3.543   2.276
 4100TIP3   OH212184   4.165   3.115   3.240
 4100TIP3    H112185   4.249   3.149   3.276
 4100TIP3    H212186   4.152   3.032   3.290
 4101TIP3   OH212187   4.065   2.853   2.397
 4101TIP3    H112188   4.024   2.881   2.313
 4101TIP3    H212189   4.084   2.939   2.440
 4102TIP3   OH212190   3.549   3.980   2.090
 4102TIP3    H112191   3.462   4.006   2.126
 4102TIP3    H212192   3.562   4.049   2.024
 4103TIP3   OH212193   3.804   3.019   2.524
 4103TIP3    H112194   3.823   3.111   2.498
 4103TIP3    H212195   3.759   3.031   2.610
 4104TIP3   OH212196   4.005   3.361   3.310
 4104TIP3    H112197   4.029   3.412   3.390
 4104TIP3    H212198   4.059   3.280   3.320
 4105TIP3   OH212199   3.901   2.773   2.624
 4105TIP3    H112200   3.852   2.856   2.641
 4105TIP3    H212201   3.944   2.800   2.541
 4106TIP3   OH212202   3.294   4.057   2.157
 4106TIP3    H112203   3.262   4.126   2.095
 4106TIP3    H212204   3.276   4.098   2.244
 4107TIP3   OH212205   4.647   3.260   3.291
 4107TIP3    H112206   4.549   3.261   3.300
 4107TIP3    H212207   4.655   3.218   3.204
 4108TIP3   OH212208   4.296   3.456   2.680
 4108TIP3    H112209   4.220   3.396   2.689
 4108TIP3    H212210   4.367   3.406   2.728
 4109TIP3   OH212211   3.011   3.684   2.147
 4109TIP3    H112212   3.082   3.749   2.157
 4109TIP3    H212213   3.054   3.624   2.082
 4110TIP3   OH212214   2.945   2.954   2.288
 4110TIP3    H112215   2.966   3.049   2.278
 4110TIP3    H212216   2.869   2.945   2.230
 4111TIP3   OH212217   4.265   4.414   2.629
 4111TIP3    H112218   4.222   4.461   2.554
 4111TIP3    H212219   4.359   4.432   2.608
 4112TIP3   OH212220   3.342   2.681   3.156
 4112TIP3    H112221   3.311   2.649   3.069
 4112TIP3    H212222   3.330   2.601   3.212
 4113TIP3   OH212223   2.883   3.906   2.536
 4113TIP3    H112224   2.811   3.930   2.595
 4113TIP3    H212225   2.851   3.943   2.451
 4114TIP3   OH212226   3.038   4.442   3.608
 4114TIP3    H112227   3.124   4.441   3.655
 4114TIP3    H212228   3.017   4.347   3.606
 4115TIP3   OH212229   3.518   4.405   3.652
 4115TIP3    H112230   3.613   4.384   3.659
 4115TIP3    H212231   3.492   4.345   3.579
 4116TIP3   OH212232   3.500   3.979   1.782
 4116TIP3    H112233   3.443   3.908   1.819
 4116TIP3    H212234   3.575   3.925   1.751
 4117TIP3   OH212235   4.157   4.311   3.386
 4117TIP3    H112236   4.149   4.241   3.455
 4117TIP3    H212237   4.235   4.361   3.417
 4118TIP3   OH212238   3.937   4.021   1.694
 4118TIP3    H112239   3.975   3.953   1.753
 4118TIP3    H212240   3.995   4.016   1.616
 4119TIP3   OH212241   3.167   3.847   3.808
 4119TIP3    H112242   3.184   3.751   3.814
 4119TIP3    H212243   3.080   3.849   3.764
 4120TIP3   OH212244   3.145   3.497   2.002
 4120TIP3    H112245   3.196   3.454   2.074
 4120TIP3    H212246   3.214   3.501   1.933
 4121TIP3   OH212247   3.775   3.932   3.582
 4121TIP3    H112248   3.733   3.949   3.495
 4121TIP3    H212249   3.806   3.839   3.574
 4122TIP3   OH212250   3.657   3.697   1.809
 4122TIP3    H112251   3.658   3.707   1.906
 4122TIP3    H212252   3.657   3.599   1.802
 4123TIP3   OH212253   4.269   3.941   3.190
 4123TIP3    H112254   4.343   3.986   3.145
 4123TIP3    H212255   4.196   4.004   3.174
 4124TIP3   OH212256   3.287   3.582   3.791
 4124TIP3    H112257   3.363   3.527   3.767
 4124TIP3    H212258   3.313   3.614   3.880
 4125TIP3   OH212259   3.352   3.405   2.232
 4125TIP3    H112260   3.320   3.343   2.299
 4125TIP3    H212261   3.390   3.341   2.168
 4126TIP3   OH212262   3.622   3.465   3.453
 4126TIP3    H112263   3.544   3.525   3.454
 4126TIP3    H212264   3.672   3.499   3.375
 4127TIP3   OH212265   3.456   3.230   2.060
 4127TIP3    H112266   3.425   3.194   1.975
 4127TIP3    H212267   3.549   3.200   2.062
 4128TIP3   OH212268   4.139   3.868   3.586
 4128TIP3    H112269   4.218   3.841   3.537
 4128TIP3    H212270   4.135   3.801   3.657
 4129TIP3   OH212271   4.275   3.526   1.728
 4129TIP3    H112272   4.254   3.479   1.644
 4129TIP3    H212273   4.242   3.616   1.704
 4130TIP3   OH212274   3.745   3.253   3.578
 4130TIP3    H112275   3.746   3.174   3.520
 4130TIP3    H212276   3.701   3.320   3.520
 4131TIP3   OH212277   3.748   3.039   3.386
 4131TIP3    H112278   3.776   3.082   3.303
 4131TIP3    H212279   3.654   3.017   3.367
 4132TIP3   OH212280   3.774   3.576   3.261
 4132TIP3    H112281   3.857   3.583   3.212
 4132TIP3    H212282   3.718   3.642   3.214
 4133TIP3   OH212283   4.356   3.543   3.639
 4133TIP3    H112284   4.404   3.459   3.650
 4133TIP3    H212285   4.425   3.601   3.604
 4134TIP3   OH212286   4.398   3.796   3.377
 4134TIP3    H112287   4.340   3.849   3.318
 4134TIP3    H212288   4.486   3.816   3.336
 4135TIP3   OH212289   3.624   3.365   3.810
 4135TIP3    H112290   3.555   3.297   3.824
 4135TIP3    H212291   3.658   3.339   3.722
 4136TIP3   OH212292   3.880   2.804   3.453
 4136TIP3    H112293   3.832   2.886   3.429
 4136TIP3    H212294   3.811   2.736   3.440
 4137TIP3   OH212295   4.006   3.308   3.669
 4137TIP3    H112296   3.994   3.294   3.764
 4137TIP3    H212297   3.916   3.283   3.638
 4138TIP3   OH212298   4.246   3.258   3.525
 4138TIP3    H112299   4.169   3.259   3.586
 4138TIP3    H212300   4.319   3.227   3.582
 4139TIP3   OH212301   4.478   3.199   3.675
 4139TIP3    H112302   4.487   3.103   3.693
 4139TIP3    H212303   4.471   3.238   3.765
 4140TIP3   OH212304   3.462   3.145   3.862
 4140TIP3    H112305   3.470   3.054   3.827
 4140TIP3    H212306   3.501   3.133   3.951
 4141TIP3   OH212307   3.971   2.813   3.711
 4141TIP3    H112308   4.037   2.741   3.707
 4141TIP3    H212309   3.934   2.808   3.621
 4142TIP3   OH212310   4.045   3.033   3.858
 4142TIP3    H112311   4.019   2.960   3.798
 4142TIP3    H212312   3.964   3.089   3.858
 4143TIP3   OH212313   3.262   4.262   1.971
 4143TIP3    H112314   3.357   4.253   1.950
 4143TIP3    H212315   3.232   4.308   1.891
 4144TIP3   OH212316   2.742   3.639   2.185
 4144TIP3    H112317   2.837   3.660   2.171
 4144TIP3    H212318   2.735   3.550   2.145
 4145TIP3   OH212319   2.655   4.252   2.600
 4145TIP3    H112320   2.589   4.190   2.563
 4145TIP3    H212321   2.700   4.194   2.665
 4146TIP3   OH212322   2.789   4.103   2.787
 4146TIP3    H112323   2.779   4.028   2.848
 4146TIP3    H212324   2.842   4.163   2.843
 4147TIP3   OH212325   4.518   4.505   2.586
 4147TIP3    H112326   4.546   4.534   2.674
 4147TIP3    H212327   4.585   4.546   2.529
 4148TIP3   OH212328   4.549   4.523   2.868
 4148TIP3    H112329   4.503   4.436   2.864
 4148TIP3    H212330   4.623   4.498   2.927
 4149TIP3   OH212331   4.594   4.200   3.441
 4149TIP3    H112332   4.521   4.208   3.506
 4149TIP3    H212333   4.636   4.288   3.446
 4150TIP3   OH212334   4.411   3.712   2.061
 4150TIP3    H112335   4.480   3.775   2.033
 4150TIP3    H212336   4.454   3.673   2.141
 4151TIP3   OH212337   4.538   3.580   2.265
 4151TIP3    H112338   4.472   3.536   2.323
 4151TIP3    H212339   4.602   3.617   2.330
 4152TIP3   OH212340   4.594   3.973   2.697
 4152TIP3    H112341   4.646   3.906   2.649
 4152TIP3    H212342   4.585   4.044   2.631
 4153TIP3   OH212343   4.424   4.274   2.891
 4153TIP3    H112344   4.352   4.313   2.944
 4153TIP3    H212345   4.374   4.225   2.821
 4154TIP3   OH212346   4.476   3.488   1.911
 4154TIP3    H112347   4.404   3.490   1.843
 4154TIP3    H212348   4.448   3.563   1.966
 4155TIP3   OH212349   4.349   3.160   1.864
 4155TIP3    H112350   4.303   3.196   1.787
 4155TIP3    H212351   4.324   3.065   1.857
 4156TIP3   OH212352   4.353   3.436   2.410
 4156TIP3    H112353   4.358   3.339   2.403
 4156TIP3    H212354   4.338   3.448   2.507
 4157TIP3   OH212355   2.977   3.509   3.159
 4157TIP3    H112356   2.976   3.477   3.066
 4157TIP3    H212357   3.075   3.511   3.175
 4158TIP3   OH212358   4.642   3.861   3.268
 4158TIP3    H112359   4.714   3.795   3.258
 4158TIP3    H212360   4.668   3.930   3.204
 4159TIP3   OH212361   4.827   3.666   3.282
 4159TIP3    H112362   4.752   3.616   3.321
 4159TIP3    H212363   4.899   3.602   3.298
 4160TIP3   OH212364   4.290   2.895   1.851
 4160TIP3    H112365   4.363   2.861   1.907
 4160TIP3    H212366   4.215   2.836   1.873
 4161TIP3   OH212367   4.349   3.154   2.305
 4161TIP3    H112368   4.389   3.065   2.322
 4161TIP3    H212369   4.407   3.185   2.234
 4162TIP3   OH212370   4.510   3.325   2.801
 4162TIP3    H112371   4.596   3.351   2.760
 4162TIP3    H212372   4.523   3.363   2.890
 4163TIP3   OH212373   4.580   3.471   3.033
 4163TIP3    H112374   4.502   3.504   3.081
 4163TIP3    H212375   4.612   3.552   2.988
 4164TIP3   OH212376   3.196   3.197   3.831
 4164TIP3    H112377   3.294   3.191   3.835
 4164TIP3    H212378   3.172   3.111   3.872
 4165TIP3   OH212379   5.030   3.061   3.588
 4165TIP3    H112380   5.090   2.997   3.544
 4165TIP3    H212381   5.001   3.116   3.513
 4166TIP3   OH212382   4.458   2.903   2.343
 4166TIP3    H112383   4.504   2.886   2.427
 4166TIP3    H212384   4.396   2.827   2.340
 4167TIP3   OH212385   3.157   2.889   3.166
 4167TIP3    H112386   3.220   2.815   3.173
 4167TIP3    H212387   3.219   2.964   3.157
 4168TIP3   OH212388   2.960   3.162   3.237
 4168TIP3    H112389   3.008   3.155   3.152
 4168TIP3    H212390   2.988   3.249   3.267
 4169TIP3   OH212391   4.901   3.200   3.395
 4169TIP3    H112392   4.815   3.243   3.414
 4169TIP3    H212393   4.871   3.129   3.335
 4170TIP3   OH212394   4.538   2.836   1.977
 4170TIP3    H112395   4.577   2.764   1.922
 4170TIP3    H212396   4.605   2.906   1.970
 4171TIP3   OH212397   2.943   2.665   2.740
 4171TIP3    H112398   2.849   2.662   2.763
 4171TIP3    H212399   2.942   2.723   2.660
 4172TIP3   OH212400   4.103   4.371   2.243
 4172TIP3    H112401   4.153   4.355   2.160
 4172TIP3    H212402   4.159   4.434   2.289
 4173TIP3   OH212403   3.163   2.742   3.551
 4173TIP3    H112404   3.112   2.742   3.633
 4173TIP3    H212405   3.098   2.784   3.490
 4174TIP3   OH212406   3.203   4.175   3.628
 4174TIP3    H112407   3.111   4.147   3.611
 4174TIP3    H212408   3.213   4.154   3.721
 4175TIP3   OH212409   3.382   4.207   3.176
 4175TIP3    H112410   3.334   4.282   3.137
 4175TIP3    H212411   3.468   4.220   3.132
 4176TIP3   OH212412   3.826   4.451   3.313
 4176TIP3    H112413   3.868   4.450   3.402
 4176TIP3    H212414   3.892   4.501   3.262
 4177TIP3   OH212415   4.005   4.603   3.172
 4177TIP3    H112416   4.075   4.550   3.131
 4177TIP3    H212417   4.057   4.659   3.233
 4178TIP3   OH212418   4.799   2.964   3.273
 4178TIP3    H112419   4.709   2.959   3.236
 4178TIP3    H212420   4.830   2.872   3.261
 4179TIP3   OH212421   3.058   4.465   3.198
 4179TIP3    H112422   2.968   4.498   3.176
 4179TIP3    H212423   3.067   4.498   3.288
 4180TIP3   OH212424   3.295   4.443   3.058
 4180TIP3    H112425   3.208   4.455   3.102
 4180TIP3    H212426   3.275   4.473   2.967
 4181TIP3   OH212427   3.720   4.470   2.855
 4181TIP3    H112428   3.650   4.489   2.790
 4181TIP3    H212429   3.732   4.557   2.898
 4182TIP3   OH212430   3.989   4.410   2.908
 4182TIP3    H112431   3.894   4.425   2.887
 4182TIP3    H212432   4.031   4.485   2.863
 4183TIP3   OH212433   4.198   4.602   2.822
 4183TIP3    H112434   4.183   4.686   2.773
 4183TIP3    H212435   4.223   4.541   2.749
 4184TIP3   OH212436   2.969   4.257   2.945
 4184TIP3    H112437   2.996   4.230   3.036
 4184TIP3    H212438   3.041   4.213   2.894
 4185TIP3   OH212439   3.163   4.128   2.803
 4185TIP3    H112440   3.178   4.044   2.851
 4185TIP3    H212441   3.254   4.163   2.797
 4186TIP3   OH212442   3.431   4.223   2.804
 4186TIP3    H112443   3.460   4.131   2.791
 4186TIP3    H212444   3.476   4.242   2.889
 4187TIP3   OH212445   4.013   2.884   2.911
 4187TIP3    H112446   3.963   2.812   2.952
 4187TIP3    H212447   4.048   2.841   2.832
 4188TIP3   OH212448   4.532   2.761   2.799
 4188TIP3    H112449   4.566   2.812   2.722
 4188TIP3    H212450   4.435   2.772   2.790
 4189TIP3   OH212451   4.623   2.858   2.560
 4189TIP3    H112452   4.696   2.808   2.520
 4189TIP3    H212453   4.655   2.950   2.546
 4190TIP3   OH212454   3.254   2.588   2.909
 4190TIP3    H112455   3.162   2.557   2.908
 4190TIP3    H212456   3.302   2.503   2.902
 4191TIP3   OH212457   3.047   2.455   2.557
 4191TIP3    H112458   3.074   2.511   2.482
 4191TIP3    H212459   3.014   2.522   2.620
 4192TIP3   OH212460   3.699   2.617   2.792
 4192TIP3    H112461   3.750   2.663   2.723
 4192TIP3    H212462   3.731   2.661   2.872
 4193TIP3   OH212463   4.259   2.765   2.768
 4193TIP3    H112464   4.227   2.736   2.681
 4193TIP3    H212465   4.233   2.689   2.825
 4194TIP3   OH212466   4.277   2.689   2.333
 4194TIP3    H112467   4.195   2.741   2.351
 4194TIP3    H212468   4.255   2.605   2.378
 4195TIP3   OH212469   2.758   4.029   2.333
 4195TIP3    H112470   2.673   3.994   2.300
 4195TIP3    H212471   2.745   4.123   2.312
 4196TIP3   OH212472   3.154   2.610   2.322
 4196TIP3    H112473   3.206   2.553   2.262
 4196TIP3    H212474   3.215   2.683   2.337
 4197TIP3   OH212475   3.529   4.216   1.916
 4197TIP3    H112476   3.618   4.238   1.880
 4197TIP3    H212477   3.507   4.141   1.857
 4198TIP3   OH212478   4.250   4.335   2.011
 4198TIP3    H112479   4.242   4.237   1.999
 4198TIP3    H212480   4.203   4.366   1.930
 4199TIP3   OH212481   3.466   2.866   3.798
 4199TIP3    H112482   3.425   2.800   3.856
 4199TIP3    H212483   3.559   2.863   3.830
 4200TIP3   OH212484   3.715   2.848   3.930
 4200TIP3    H112485   3.792   2.844   3.872
 4200TIP3    H212486   3.746   2.792   4.004
 4201TIP3   OH212487   2.835   4.056   1.974
 4201TIP3    H112488   2.834   4.073   2.069
 4201TIP3    H212489   2.922   4.012   1.962
 4202TIP3   OH212490   4.537   2.926   3.704
 4202TIP3    H112491   4.556   2.899   3.797
 4202TIP3    H212492   4.626   2.925   3.663
 4203TIP3   OH212493   4.475   4.479   3.197
 4203TIP3    H112494   4.395   4.447   3.149
 4203TIP3    H212495   4.454   4.575   3.203
 4204TIP3   OH212496   5.741   3.853   1.964
 4204TIP3    H112497   5.711   3.943   1.942
 4204TIP3    H212498   5.666   3.801   1.930
 4205TIP3   OH212499   5.740   3.854   2.347
 4205TIP3    H112500   5.772   3.822   2.433
 4205TIP3    H212501   5.699   3.773   2.311
 4206TIP3   OH212502   5.038   3.746   2.710
 4206TIP3    H112503   5.068   3.678   2.773
 4206TIP3    H212504   5.119   3.800   2.702
 4207TIP3   OH212505   5.984   4.155   2.027
 4207TIP3    H112506   5.968   4.083   2.089
 4207TIP3    H212507   6.013   4.227   2.084
 4208TIP3   OH212508   5.011   4.158   2.435
 4208TIP3    H112509   5.002   4.060   2.436
 4208TIP3    H212510   5.108   4.166   2.430
 4209TIP3   OH212511   4.718   3.361   2.219
 4209TIP3    H112512   4.667   3.443   2.234
 4209TIP3    H212513   4.649   3.305   2.180
 4210TIP3   OH212514   4.777   3.647   2.394
 4210TIP3    H112515   4.825   3.569   2.429
 4210TIP3    H212516   4.833   3.673   2.320
 4211TIP3   OH212517   5.635   4.618   2.045
 4211TIP3    H112518   5.679   4.546   1.993
 4211TIP3    H212519   5.625   4.575   2.131
 4212TIP3   OH212520   5.538   4.078   2.394
 4212TIP3    H112521   5.575   4.001   2.349
 4212TIP3    H212522   5.622   4.123   2.417
 4213TIP3   OH212523   6.552   3.398   2.391
 4213TIP3    H112524   6.582   3.481   2.432
 4213TIP3    H212525   6.576   3.413   2.298
 4214TIP3   OH212526   5.951   3.580   2.425
 4214TIP3    H112527   5.994   3.494   2.445
 4214TIP3    H212528   5.920   3.563   2.334
 4215TIP3   OH212529   5.290   3.238   2.390
 4215TIP3    H112530   5.269   3.311   2.327
 4215TIP3    H212531   5.242   3.164   2.347
 4216TIP3   OH212532   5.983   3.331   2.012
 4216TIP3    H112533   6.055   3.314   2.077
 4216TIP3    H212534   6.036   3.364   1.937
 4217TIP3   OH212535   4.922   3.440   2.498
 4217TIP3    H112536   5.005   3.419   2.545
 4217TIP3    H212537   4.935   3.384   2.418
 4218TIP3   OH212538   5.363   3.638   2.293
 4218TIP3    H112539   5.457   3.613   2.305
 4218TIP3    H212540   5.324   3.554   2.260
 4219TIP3   OH212541   6.627   3.607   2.559
 4219TIP3    H112542   6.542   3.652   2.541
 4219TIP3    H212543   6.637   3.626   2.654
 4220TIP3   OH212544   5.286   3.222   2.825
 4220TIP3    H112545   5.226   3.258   2.757
 4220TIP3    H212546   5.233   3.240   2.906
 4221TIP3   OH212547   5.631   4.073   1.834
 4221TIP3    H112548   5.590   4.052   1.749
 4221TIP3    H212549   5.585   4.156   1.857
 4222TIP3   OH212550   5.393   3.998   2.619
 4222TIP3    H112551   5.330   4.063   2.656
 4222TIP3    H212552   5.434   4.048   2.546
 4223TIP3   OH212553   6.192   3.333   2.185
 4223TIP3    H112554   6.185   3.282   2.267
 4223TIP3    H212555   6.246   3.409   2.213
 4224TIP3   OH212556   5.157   3.336   2.609
 4224TIP3    H112557   5.220   3.409   2.632
 4224TIP3    H212558   5.205   3.296   2.534
 4225TIP3   OH212559   5.220   4.191   2.718
 4225TIP3    H112560   5.194   4.278   2.680
 4225TIP3    H212561   5.142   4.174   2.774
 4226TIP3   OH212562   4.615   3.881   1.953
 4226TIP3    H112563   4.572   3.907   1.870
 4226TIP3    H212564   4.645   3.967   1.989
 4227TIP3   OH212565   6.056   4.399   2.197
 4227TIP3    H112566   5.965   4.389   2.236
 4227TIP3    H212567   6.045   4.483   2.149
 4228TIP3   OH212568   6.345   3.299   2.558
 4228TIP3    H112569   6.257   3.325   2.525
 4228TIP3    H212570   6.405   3.330   2.486
 4229TIP3   OH212571   5.641   2.940   2.539
 4229TIP3    H112572   5.628   2.845   2.556
 4229TIP3    H212573   5.563   2.978   2.586
 4230TIP3   OH212574   5.754   4.445   1.867
 4230TIP3    H112575   5.803   4.361   1.848
 4230TIP3    H212576   5.816   4.509   1.826
 4231TIP3   OH212577   5.897   4.230   1.776
 4231TIP3    H112578   5.864   4.149   1.733
 4231TIP3    H212579   5.933   4.194   1.859
 4232TIP3   OH212580   6.283   4.310   2.537
 4232TIP3    H112581   6.269   4.231   2.480
 4232TIP3    H212582   6.262   4.382   2.474
 4233TIP3   OH212583   5.572   3.705   1.795
 4233TIP3    H112584   5.492   3.755   1.772
 4233TIP3    H212585   5.618   3.699   1.709
 4234TIP3   OH212586   5.530   3.489   1.511
 4234TIP3    H112587   5.599   3.539   1.558
 4234TIP3    H212588   5.586   3.424   1.463
 4235TIP3   OH212589   6.475   3.950   2.384
 4235TIP3    H112590   6.391   3.999   2.387
 4235TIP3    H212591   6.504   3.970   2.292
 4236TIP3   OH212592   5.919   3.787   1.765
 4236TIP3    H112593   5.865   3.811   1.844
 4236TIP3    H212594   6.003   3.760   1.809
 4237TIP3   OH212595   6.154   3.825   2.679
 4237TIP3    H112596   6.149   3.908   2.730
 4237TIP3    H212597   6.067   3.827   2.633
 4238TIP3   OH212598   5.152   3.784   2.183
 4238TIP3    H112599   5.109   3.726   2.117
 4238TIP3    H212600   5.227   3.729   2.213
 4239TIP3   OH212601   5.282   4.198   2.330
 4239TIP3    H112602   5.259   4.155   2.246
 4239TIP3    H212603   5.371   4.161   2.348
 4240TIP3   OH212604   5.288   3.754   2.539
 4240TIP3    H112605   5.320   3.731   2.449
 4240TIP3    H212606   5.331   3.840   2.556
 4241TIP3   OH212607   5.813   4.394   2.315
 4241TIP3    H112608   5.800   4.471   2.372
 4241TIP3    H212609   5.798   4.318   2.376
 4242TIP3   OH212610   5.425   4.312   2.861
 4242TIP3    H112611   5.365   4.373   2.908
 4242TIP3    H212612   5.360   4.258   2.811
 4243TIP3   OH212613   5.758   3.645   1.592
 4243TIP3    H112614   5.818   3.704   1.644
 4243TIP3    H212615   5.785   3.668   1.500
 4244TIP3   OH212616   5.180   3.868   2.963
 4244TIP3    H112617   5.184   3.955   3.008
 4244TIP3    H212618   5.085   3.847   2.974
 4245TIP3   OH212619   5.503   4.323   1.869
 4245TIP3    H112620   5.584   4.376   1.882
 4245TIP3    H212621   5.443   4.385   1.827
 4246TIP3   OH212622   5.219   4.479   2.949
 4246TIP3    H112623   5.184   4.478   2.858
 4246TIP3    H212624   5.140   4.458   3.003
 4247TIP3   OH212625   6.276   2.885   1.641
 4247TIP3    H112626   6.194   2.905   1.691
 4247TIP3    H212627   6.288   2.967   1.591
 4248TIP3   OH212628   5.017   3.627   1.990
 4248TIP3    H112629   4.950   3.670   1.933
 4248TIP3    H212630   4.980   3.539   2.000
 4249TIP3   OH212631   6.075   4.252   1.190
 4249TIP3    H112632   6.084   4.348   1.175
 4249TIP3    H212633   6.168   4.222   1.177
 4250TIP3   OH212634   4.799   4.011   2.895
 4250TIP3    H112635   4.732   3.988   2.827
 4250TIP3    H212636   4.836   3.923   2.918
 4251TIP3   OH212637   4.653   4.205   2.524
 4251TIP3    H112638   4.749   4.195   2.518
 4251TIP3    H212639   4.644   4.281   2.583
 4252TIP3   OH212640   6.497   4.650   2.606
 4252TIP3    H112641   6.504   4.552   2.601
 4252TIP3    H212642   6.401   4.662   2.624
 4253TIP3   OH212643   5.622   4.440   2.718
 4253TIP3    H112644   5.620   4.533   2.751
 4253TIP3    H212645   5.551   4.400   2.772
 4254TIP3   OH212646   5.385   4.569   1.670
 4254TIP3    H112647   5.338   4.548   1.587
 4254TIP3    H212648   5.350   4.658   1.693
 4255TIP3   OH212649   4.822   4.419   2.055
 4255TIP3    H112650   4.868   4.409   2.141
 4255TIP3    H212651   4.770   4.336   2.053
 4256TIP3   OH212652   5.585   4.471   1.310
 4256TIP3    H112653   5.644   4.401   1.273
 4256TIP3    H212654   5.620   4.479   1.401
 4257TIP3   OH212655   5.636   4.519   1.580
 4257TIP3    H112656   5.548   4.528   1.622
 4257TIP3    H212657   5.686   4.475   1.651
 4258TIP3   OH212658   6.406   3.787   2.856
 4258TIP3    H112659   6.324   3.794   2.806
 4258TIP3    H212660   6.424   3.691   2.849
 4259TIP3   OH212661   5.003   4.194   2.884
 4259TIP3    H112662   5.053   4.176   2.966
 4259TIP3    H212663   4.929   4.130   2.890
 4260TIP3   OH212664   5.403   3.016   2.669
 4260TIP3    H112665   5.314   2.985   2.641
 4260TIP3    H212666   5.377   3.098   2.715
 4261TIP3   OH212667   5.937   3.132   2.863
 4261TIP3    H112668   6.006   3.104   2.926
 4261TIP3    H212669   5.854   3.111   2.910
 4262TIP3   OH212670   6.176   3.561   2.782
 4262TIP3    H112671   6.126   3.557   2.866
 4262TIP3    H212672   6.149   3.648   2.746
 4263TIP3   OH212673   5.836   3.693   1.338
 4263TIP3    H112674   5.801   3.666   1.251
 4263TIP3    H212675   5.920   3.736   1.312
 4264TIP3   OH212676   5.548   3.065   1.639
 4264TIP3    H112677   5.514   3.062   1.731
 4264TIP3    H212678   5.509   2.983   1.604
 4265TIP3   OH212679   5.335   3.532   2.688
 4265TIP3    H112680   5.284   3.552   2.768
 4265TIP3    H212681   5.319   3.613   2.634
 4266TIP3   OH212682   5.218   3.419   2.201
 4266TIP3    H112683   5.125   3.392   2.219
 4266TIP3    H212684   5.231   3.378   2.112
 4267TIP3   OH212685   5.710   3.505   1.930
 4267TIP3    H112686   5.657   3.576   1.886
 4267TIP3    H212687   5.764   3.472   1.855
 4268TIP3   OH212688   5.884   3.783   3.015
 4268TIP3    H112689   5.861   3.709   3.076
 4268TIP3    H212690   5.978   3.795   3.037
 4269TIP3   OH212691   5.866   3.533   2.166
 4269TIP3    H112692   5.805   3.559   2.095
 4269TIP3    H212693   5.901   3.451   2.124
 4270TIP3   OH212694   5.154   3.561   2.895
 4270TIP3    H112695   5.181   3.623   2.964
 4270TIP3    H212696   5.141   3.479   2.946
 4271TIP3   OH212697   5.204   3.040   1.605
 4271TIP3    H112698   5.195   3.036   1.702
 4271TIP3    H212699   5.124   3.090   1.580
 4272TIP3   OH212700   4.746   3.084   2.477
 4272TIP3    H112701   4.823   3.114   2.529
 4272TIP3    H212702   4.785   3.049   2.395
 4273TIP3   OH212703   4.718   3.064   1.996
 4273TIP3    H112704   4.763   3.102   1.917
 4273TIP3    H212705   4.656   3.136   2.016
 4274TIP3   OH212706   5.878   3.779   2.590
 4274TIP3    H112707   5.910   3.707   2.531
 4274TIP3    H212708   5.848   3.725   2.667
 4275TIP3   OH212709   5.547   3.243   2.262
 4275TIP3    H112710   5.465   3.239   2.315
 4275TIP3    H212711   5.616   3.236   2.331
 4276TIP3   OH212712   4.980   3.296   2.270
 4276TIP3    H112713   4.885   3.304   2.242
 4276TIP3    H212714   5.003   3.204   2.247
 4277TIP3   OH212715   5.248   3.293   1.959
 4277TIP3    H112716   5.342   3.307   1.937
 4277TIP3    H212717   5.201   3.315   1.875
 4278TIP3   OH212718   6.038   3.317   2.466
 4278TIP3    H112719   6.002   3.329   2.557
 4278TIP3    H212720   5.973   3.255   2.428
 4279TIP3   OH212721   5.091   3.328   1.737
 4279TIP3    H112722   5.020   3.282   1.690
 4279TIP3    H212723   5.143   3.363   1.661
 4280TIP3   OH212724   6.210   5.013   2.676
 4280TIP3    H112725   6.207   5.023   2.579
 4280TIP3    H212726   6.248   5.097   2.702
 4281TIP3   OH212727   5.165   4.116   3.104
 4281TIP3    H112728   5.244   4.146   3.153
 4281TIP3    H212729   5.100   4.113   3.177
 4282TIP3   OH212730   5.629   3.570   2.360
 4282TIP3    H112731   5.699   3.529   2.309
 4282TIP3    H212732   5.636   3.525   2.446
 4283TIP3   OH212733   5.152   3.056   2.239
 4283TIP3    H112734   5.116   2.977   2.286
 4283TIP3    H212735   5.199   3.015   2.165
 4284TIP3   OH212736   5.605   3.466   2.648
 4284TIP3    H112737   5.515   3.501   2.663
 4284TIP3    H212738   5.662   3.527   2.699
 4285TIP3   OH212739   5.340   3.857   1.743
 4285TIP3    H112740   5.269   3.790   1.732
 4285TIP3    H212741   5.322   3.890   1.834
 4286TIP3   OH212742   6.241   4.094   2.373
 4286TIP3    H112743   6.265   4.142   2.291
 4286TIP3    H212744   6.157   4.050   2.348
 4287TIP3   OH212745   5.800   3.167   1.610
 4287TIP3    H112746   5.703   3.149   1.616
 4287TIP3    H212747   5.807   3.262   1.632
 4288TIP3   OH212748   5.749   4.179   2.740
 4288TIP3    H112749   5.763   4.150   2.830
 4288TIP3    H212750   5.701   4.263   2.751
 4289TIP3   OH212751   5.868   3.417   1.712
 4289TIP3    H112752   5.965   3.421   1.726
 4289TIP3    H212753   5.851   3.496   1.657
 4290TIP3   OH212754   5.036   3.882   2.419
 4290TIP3    H112755   5.073   3.851   2.334
 4290TIP3    H212756   5.073   3.817   2.481
 4291TIP3   OH212757   5.487   4.006   1.566
 4291TIP3    H112758   5.439   4.092   1.572
 4291TIP3    H212759   5.433   3.950   1.626
 4292TIP3   OH212760   4.915   3.799   3.033
 4292TIP3    H112761   4.934   3.784   3.128
 4292TIP3    H212762   4.846   3.733   3.016
 4293TIP3   OH212763   5.641   3.914   3.052
 4293TIP3    H112764   5.581   3.854   3.005
 4293TIP3    H212765   5.728   3.878   3.025
 4294TIP3   OH212766   5.902   4.444   2.631
 4294TIP3    H112767   5.807   4.432   2.646
 4294TIP3    H212768   5.928   4.489   2.714
 4295TIP3   OH212769   6.311   3.507   1.546
 4295TIP3    H112770   6.249   3.462   1.484
 4295TIP3    H212771   6.308   3.596   1.504
 4296TIP3   OH212772   6.531   4.377   2.619
 4296TIP3    H112773   6.434   4.361   2.614
 4296TIP3    H212774   6.558   4.340   2.532
 4297TIP3   OH212775   6.012   4.325   1.454
 4297TIP3    H112776   5.987   4.253   1.514
 4297TIP3    H212777   6.025   4.279   1.369
 4298TIP3   OH212778   6.008   3.954   2.292
 4298TIP3    H112779   5.915   3.929   2.304
 4298TIP3    H212780   6.042   3.874   2.247
 4299TIP3   OH212781   5.135   4.183   2.046
 4299TIP3    H112782   5.134   4.263   1.991
 4299TIP3    H212783   5.041   4.163   2.054
 4300TIP3   OH212784   4.699   3.486   1.749
 4300TIP3    H112785   4.745   3.570   1.771
 4300TIP3    H212786   4.622   3.491   1.810
 4301TIP3   OH212787   5.273   3.948   1.989
 4301TIP3    H112788   5.238   4.037   2.008
 4301TIP3    H212789   5.237   3.896   2.063
 4302TIP3   OH212790   5.404   4.526   2.514
 4302TIP3    H112791   5.447   4.598   2.463
 4302TIP3    H212792   5.481   4.489   2.562
 4303TIP3   OH212793   5.053   4.422   1.896
 4303TIP3    H112794   4.968   4.429   1.944
 4303TIP3    H212795   5.084   4.515   1.899
 4304TIP3   OH212796   5.794   4.161   2.471
 4304TIP3    H112797   5.784   4.159   2.569
 4304TIP3    H212798   5.869   4.102   2.458
 4305TIP3   OH212799   5.768   4.056   1.356
 4305TIP3    H112800   5.821   4.030   1.435
 4305TIP3    H212801   5.680   4.024   1.383
 4306TIP3   OH212802   6.043   4.694   2.526
 4306TIP3    H112803   5.966   4.634   2.524
 4306TIP3    H212804   6.022   4.755   2.452
 4307TIP3   OH212805   6.107   4.528   1.174
 4307TIP3    H112806   6.146   4.601   1.124
 4307TIP3    H212807   6.026   4.572   1.207
 4308TIP3   OH212808   5.125   3.305   3.040
 4308TIP3    H112809   5.028   3.309   3.053
 4308TIP3    H212810   5.152   3.246   3.112
 4309TIP3   OH212811   5.928   3.990   1.573
 4309TIP3    H112812   5.917   3.922   1.643
 4309TIP3    H212813   6.025   3.985   1.560
 4310TIP3   OH212814   4.843   4.388   2.673
 4310TIP3    H112815   4.895   4.312   2.703
 4310TIP3    H212816   4.870   4.455   2.736
 4311TIP3   OH212817   5.132   4.034   1.355
 4311TIP3    H112818   5.146   3.942   1.326
 4311TIP3    H212819   5.112   4.021   1.450
 4312TIP3   OH212820   5.077   4.039   1.628
 4312TIP3    H112821   5.150   4.009   1.684
 4312TIP3    H212822   5.083   4.136   1.636
 4313TIP3   OH212823   4.814   3.731   1.831
 4313TIP3    H112824   4.747   3.775   1.887
 4313TIP3    H212825   4.828   3.800   1.763
 4314TIP3   OH212826   5.962   3.370   2.725
 4314TIP3    H112827   6.044   3.406   2.762
 4314TIP3    H212828   5.949   3.288   2.778
 4315TIP3   OH212829   5.842   3.119   1.889
 4315TIP3    H112830   5.829   3.141   1.795
 4315TIP3    H212831   5.882   3.202   1.924
 4316TIP3   OH212832   5.345   4.236   1.577
 4316TIP3    H112833   5.258   4.263   1.612
 4316TIP3    H212834   5.359   4.305   1.511
 4317TIP3   OH212835   5.532   3.300   1.990
 4317TIP3    H112836   5.597   3.371   1.973
 4317TIP3    H212837   5.537   3.292   2.088
 4318TIP3   OH212838   5.802   3.618   2.797
 4318TIP3    H112839   5.825   3.668   2.877
 4318TIP3    H212840   5.856   3.537   2.807
 4319TIP3   OH212841   5.676   3.025   2.092
 4319TIP3    H112842   5.671   3.102   2.151
 4319TIP3    H212843   5.737   3.059   2.023
 4320TIP3   OH212844   5.089   4.312   1.644
 4320TIP3    H112845   5.058   4.382   1.582
 4320TIP3    H212846   5.072   4.354   1.731
 4321TIP3   OH212847   5.188   3.025   1.882
 4321TIP3    H112848   5.186   3.115   1.919
 4321TIP3    H212849   5.284   3.006   1.889
 4322TIP3   OH212850   6.442   3.520   2.776
 4322TIP3    H112851   6.344   3.519   2.785
 4322TIP3    H212852   6.451   3.470   2.693
 4323TIP3   OH212853   6.093   3.713   2.167
 4323TIP3    H112854   6.017   3.653   2.177
 4323TIP3    H212855   6.164   3.665   2.214
 4324TIP3   OH212856   4.807   3.940   1.635
 4324TIP3    H112857   4.877   4.007   1.645
 4324TIP3    H212858   4.850   3.883   1.568
 4325TIP3   OH212859   4.750   3.216   1.770
 4325TIP3    H112860   4.748   3.314   1.766
 4325TIP3    H212861   4.668   3.192   1.725
 4326TIP3   OH212862   6.061   4.671   2.116
 4326TIP3    H112863   6.018   4.718   2.041
 4326TIP3    H212864   6.156   4.689   2.095
 4327TIP3   OH212865   5.138   2.937   2.642
 4327TIP3    H112866   5.107   2.903   2.555
 4327TIP3    H212867   5.127   2.858   2.699
 4328TIP3   OH212868   4.679   4.161   2.023
 4328TIP3    H112869   4.608   4.186   2.083
 4328TIP3    H212870   4.646   4.199   1.938
 4329TIP3   OH212871   4.834   4.698   3.094
 4329TIP3    H112872   4.920   4.697   3.141
 4329TIP3    H212873   4.812   4.604   3.093
 4330TIP3   OH212874   5.315   4.662   3.137
 4330TIP3    H112875   5.409   4.639   3.146
 4330TIP3    H212876   5.288   4.602   3.065
 4331TIP3   OH212877   5.297   4.236   1.269
 4331TIP3    H112878   5.240   4.165   1.306
 4331TIP3    H212879   5.372   4.184   1.235
 4332TIP3   OH212880   5.957   4.565   2.871
 4332TIP3    H112881   5.944   4.496   2.940
 4332TIP3    H212882   6.028   4.620   2.909
 4333TIP3   OH212883   5.733   4.277   1.180
 4333TIP3    H112884   5.773   4.211   1.239
 4333TIP3    H212885   5.790   4.274   1.101
 4334TIP3   OH212886   4.964   4.104   3.295
 4334TIP3    H112887   4.980   4.008   3.301
 4334TIP3    H212888   4.876   4.106   3.251
 4335TIP3   OH212889   4.941   3.754   1.489
 4335TIP3    H112890   4.996   3.719   1.561
 4335TIP3    H212891   5.008   3.758   1.417
 4336TIP3   OH212892   5.572   4.189   3.068
 4336TIP3    H112893   5.529   4.204   2.982
 4336TIP3    H212894   5.603   4.096   3.061
 4337TIP3   OH212895   5.452   3.953   1.296
 4337TIP3    H112896   5.454   3.964   1.393
 4337TIP3    H212897   5.453   3.855   1.290
 4338TIP3   OH212898   6.066   4.197   2.677
 4338TIP3    H112899   6.137   4.244   2.630
 4338TIP3    H212900   5.990   4.256   2.662
 4339TIP3   OH212901   5.084   3.839   3.277
 4339TIP3    H112902   5.158   3.781   3.256
 4339TIP3    H212903   5.110   3.871   3.366
 4340TIP3   OH212904   5.150   3.658   1.711
 4340TIP3    H112905   5.122   3.615   1.793
 4340TIP3    H212906   5.186   3.583   1.659
 4341TIP3   OH212907   5.418   3.723   2.940
 4341TIP3    H112908   5.340   3.782   2.941
 4341TIP3    H212909   5.468   3.757   2.862
 4342TIP3   OH212910   5.250   3.453   1.551
 4342TIP3    H112911   5.224   3.455   1.456
 4342TIP3    H212912   5.348   3.456   1.543
 4343TIP3   OH212913   5.937   4.125   3.072
 4343TIP3    H112914   6.015   4.095   3.025
 4343TIP3    H212915   5.930   4.059   3.144
 4344TIP3   OH212916   6.071   3.783   1.215
 4344TIP3    H112917   6.050   3.736   1.132
 4344TIP3    H212918   6.038   3.872   1.191
 4345TIP3   OH212919   5.541   3.510   3.065
 4345TIP3    H112920   5.542   3.431   3.008
 4345TIP3    H212921   5.497   3.576   3.007
 4346TIP3   OH212922   5.544   3.297   2.872
 4346TIP3    H112923   5.572   3.337   2.788
 4346TIP3    H212924   5.451   3.274   2.854
 4347TIP3   OH212925   5.570   3.833   2.747
 4347TIP3    H112926   5.653   3.838   2.698
 4347TIP3    H212927   5.514   3.898   2.700
 4348TIP3   OH212928   6.152   3.798   3.125
 4348TIP3    H112929   6.197   3.714   3.141
 4348TIP3    H212930   6.224   3.852   3.091
 4349TIP3   OH212931   6.196   4.054   2.865
 4349TIP3    H112932   6.137   4.106   2.805
 4349TIP3    H212933   6.283   4.072   2.824
 4350TIP3   OH212934   5.419   3.621   3.296
 4350TIP3    H112935   5.351   3.553   3.310
 4350TIP3    H212936   5.454   3.595   3.208
 4351TIP3   OH212937   5.676   3.061   2.940
 4351TIP3    H112938   5.627   3.142   2.917
 4351TIP3    H212939   5.607   2.992   2.928
 4352TIP3   OH212940   5.802   3.565   3.156
 4352TIP3    H112941   5.791   3.551   3.251
 4352TIP3    H212942   5.712   3.540   3.126
 4353TIP3   OH212943   6.042   3.515   3.011
 4353TIP3    H112944   5.966   3.515   3.074
 4353TIP3    H212945   6.115   3.483   3.067
 4354TIP3   OH212946   6.270   3.454   3.160
 4354TIP3    H112947   6.284   3.359   3.178
 4354TIP3    H212948   6.266   3.493   3.250
 4355TIP3   OH212949   5.259   3.401   3.349
 4355TIP3    H112950   5.265   3.310   3.315
 4355TIP3    H212951   5.295   3.389   3.439
 4356TIP3   OH212952   5.769   3.069   3.199
 4356TIP3    H112953   5.837   3.000   3.193
 4356TIP3    H212954   5.730   3.064   3.109
 4357TIP3   OH212955   5.836   3.285   3.356
 4357TIP3    H112956   5.815   3.214   3.292
 4357TIP3    H212957   5.758   3.343   3.349
 4358TIP3   OH212958   5.059   4.518   1.458
 4358TIP3    H112959   5.154   4.509   1.437
 4358TIP3    H212960   5.029   4.564   1.377
 4359TIP3   OH212961   4.537   3.896   1.671
 4359TIP3    H112962   4.632   3.917   1.657
 4359TIP3    H212963   4.531   3.807   1.631
 4360TIP3   OH212964   4.452   4.509   2.087
 4360TIP3    H112965   4.385   4.446   2.050
 4360TIP3    H212966   4.496   4.451   2.152
 4361TIP3   OH212967   4.586   4.359   2.274
 4361TIP3    H112968   4.575   4.285   2.336
 4361TIP3    H212969   4.638   4.420   2.330
 4362TIP3   OH212970   6.314   4.762   2.073
 4362TIP3    H112971   6.347   4.800   2.156
 4362TIP3    H212972   6.379   4.796   2.009
 4363TIP3   OH212973   6.344   4.779   2.357
 4363TIP3    H112974   6.292   4.696   2.349
 4363TIP3    H212975   6.426   4.744   2.392
 4364TIP3   OH212976   6.398   4.464   2.928
 4364TIP3    H112977   6.322   4.464   2.990
 4364TIP3    H212978   6.417   4.557   2.915
 4365TIP3   OH212979   6.206   3.970   1.548
 4365TIP3    H112980   6.275   4.032   1.518
 4365TIP3    H212981   6.250   3.930   1.627
 4366TIP3   OH212982   6.334   3.838   1.752
 4366TIP3    H112983   6.269   3.794   1.811
 4366TIP3    H212984   6.400   3.873   1.815
 4367TIP3   OH212985   6.391   4.229   2.184
 4367TIP3    H112986   6.443   4.161   2.137
 4367TIP3    H212987   6.383   4.300   2.118
 4368TIP3   OH212988   6.220   4.530   2.379
 4368TIP3    H112989   6.145   4.569   2.428
 4368TIP3    H212990   6.173   4.482   2.307
 4369TIP3   OH212991   6.272   3.745   1.398
 4369TIP3    H112992   6.200   3.746   1.331
 4369TIP3    H212993   6.244   3.821   1.453
 4370TIP3   OH212994   6.142   3.418   1.353
 4370TIP3    H112995   6.101   3.452   1.272
 4370TIP3    H212996   6.119   3.323   1.346
 4371TIP3   OH212997   6.148   3.693   1.897
 4371TIP3    H112998   6.156   3.596   1.890
 4371TIP3    H212999   6.134   3.705   1.994
 4372TIP3   OH213000   4.774   3.767   2.645
 4372TIP3    H113001   4.772   3.734   2.552
 4372TIP3    H213002   4.871   3.768   2.661
 4373TIP3   OH213003   6.440   4.120   2.755
 4373TIP3    H113004   6.509   4.050   2.748
 4373TIP3    H213005   6.463   4.178   2.682
 4374TIP3   OH213006   6.623   3.923   2.771
 4374TIP3    H113007   6.548   3.872   2.808
 4374TIP3    H213008   6.696   3.859   2.786
 4375TIP3   OH213009   6.086   3.153   1.339
 4375TIP3    H113010   6.161   3.119   1.393
 4375TIP3    H213011   6.013   3.092   1.360
 4376TIP3   OH213012   6.145   3.410   1.792
 4376TIP3    H113013   6.185   3.321   1.807
 4376TIP3    H213014   6.203   3.441   1.720
 4377TIP3   OH213015   6.306   3.583   2.287
 4377TIP3    H113016   6.392   3.609   2.246
 4377TIP3    H213017   6.320   3.618   2.377
 4378TIP3   OH213018   6.376   3.727   2.519
 4378TIP3    H113019   6.298   3.761   2.567
 4378TIP3    H213020   6.408   3.808   2.474
 4379TIP3   OH213021   4.992   3.453   3.321
 4379TIP3    H113022   5.090   3.447   3.322
 4379TIP3    H213023   4.968   3.367   3.361
 4380TIP3   OH213024   6.824   3.318   3.074
 4380TIP3    H113025   6.885   3.253   3.033
 4380TIP3    H213026   6.799   3.373   2.997
 4381TIP3   OH213027   6.252   3.160   1.831
 4381TIP3    H113028   6.301   3.142   1.914
 4381TIP3    H213029   6.192   3.082   1.829
 4382TIP3   OH213030   4.954   3.145   2.651
 4382TIP3    H113031   5.016   3.070   2.659
 4382TIP3    H213032   5.016   3.219   2.643
 4383TIP3   OH213033   4.756   3.419   2.723
 4383TIP3    H113034   4.804   3.411   2.639
 4383TIP3    H213035   4.786   3.505   2.754
 4384TIP3   OH213036   6.698   3.459   2.877
 4384TIP3    H113037   6.611   3.497   2.899
 4384TIP3    H213038   6.669   3.384   2.821
 4385TIP3   OH213039   6.334   3.093   1.463
 4385TIP3    H113040   6.373   3.021   1.409
 4385TIP3    H213041   6.402   3.163   1.456
 4386TIP3   OH213042   4.740   2.925   2.227
 4386TIP3    H113043   4.646   2.919   2.251
 4386TIP3    H213044   4.736   2.982   2.146
 4387TIP3   OH213045   5.899   4.628   1.730
 4387TIP3    H113046   5.948   4.611   1.647
 4387TIP3    H213047   5.957   4.692   1.774
 4388TIP3   OH213048   4.960   3.001   3.039
 4388TIP3    H113049   4.908   2.998   3.121
 4388TIP3    H213050   4.894   3.040   2.977
 4389TIP3   OH213051   4.999   4.432   3.115
 4389TIP3    H113052   4.907   4.404   3.098
 4389TIP3    H213053   5.010   4.409   3.209
 4390TIP3   OH213054   5.178   4.463   2.663
 4390TIP3    H113055   5.129   4.538   2.624
 4390TIP3    H213056   5.264   4.476   2.618
 4391TIP3   OH213057   5.621   4.706   2.800
 4391TIP3    H113058   5.663   4.706   2.889
 4391TIP3    H213059   5.686   4.758   2.749
 4392TIP3   OH213060   5.799   4.860   2.660
 4392TIP3    H113061   5.867   4.807   2.616
 4392TIP3    H213062   5.853   4.915   2.720
 4393TIP3   OH213063   6.597   3.219   2.759
 4393TIP3    H113064   6.505   3.210   2.726
 4393TIP3    H213065   6.630   3.127   2.749
 4394TIP3   OH213066   4.854   4.722   2.684
 4394TIP3    H113067   4.764   4.756   2.663
 4394TIP3    H213068   4.863   4.753   2.775
 4395TIP3   OH213069   5.091   4.700   2.545
 4395TIP3    H113070   5.004   4.712   2.589
 4395TIP3    H213071   5.071   4.730   2.454
 4396TIP3   OH213072   5.517   4.726   2.342
 4396TIP3    H113073   5.447   4.745   2.277
 4396TIP3    H213074   5.528   4.814   2.384
 4397TIP3   OH213075   5.785   4.669   2.396
 4397TIP3    H113076   5.691   4.682   2.375
 4397TIP3    H213077   5.827   4.742   2.349
 4398TIP3   OH213078   5.995   4.858   2.309
 4398TIP3    H113079   5.979   4.941   2.260
 4398TIP3    H213080   6.019   4.797   2.236
 4399TIP3   OH213081   4.766   4.514   2.432
 4399TIP3    H113082   4.793   4.486   2.522
 4399TIP3    H213083   4.837   4.469   2.380
 4400TIP3   OH213084   4.959   4.385   2.289
 4400TIP3    H113085   4.974   4.300   2.338
 4400TIP3    H213086   5.051   4.420   2.284
 4401TIP3   OH213087   5.228   4.479   2.291
 4401TIP3    H113088   5.257   4.387   2.278
 4401TIP3    H213089   5.272   4.499   2.376
 4402TIP3   OH213090   5.800   3.135   2.378
 4402TIP3    H113091   5.758   3.064   2.430
 4402TIP3    H213092   5.873   3.088   2.334
 4403TIP3   OH213093   6.323   3.019   2.285
 4403TIP3    H113094   6.360   3.068   2.209
 4403TIP3    H213095   6.228   3.034   2.276
 4404TIP3   OH213096   6.419   3.116   2.048
 4404TIP3    H113097   6.492   3.063   2.008
 4404TIP3    H213098   6.453   3.207   2.032
 4405TIP3   OH213099   5.050   2.844   2.395
 4405TIP3    H113100   4.957   2.811   2.396
 4405TIP3    H213101   5.098   2.759   2.391
 4406TIP3   OH213102   4.839   2.714   2.044
 4406TIP3    H113103   4.867   2.770   1.970
 4406TIP3    H213104   4.809   2.780   2.110
 4407TIP3   OH213105   5.494   2.877   2.275
 4407TIP3    H113106   5.552   2.924   2.214
 4407TIP3    H213107   5.520   2.914   2.360
 4408TIP3   OH213108   6.040   3.023   2.258
 4408TIP3    H113109   6.040   2.984   2.170
 4408TIP3    H213110   6.027   2.944   2.315
 4409TIP3   OH213111   6.071   2.946   1.822
 4409TIP3    H113112   5.983   2.987   1.833
 4409TIP3    H213113   6.057   2.860   1.867
 4410TIP3   OH213114   4.554   4.285   1.819
 4410TIP3    H113115   4.469   4.250   1.787
 4410TIP3    H213116   4.542   4.379   1.800
 4411TIP3   OH213117   4.954   2.873   1.805
 4411TIP3    H113118   5.002   2.809   1.748
 4411TIP3    H213119   5.028   2.926   1.841
 4412TIP3   OH213120   5.465   3.050   1.904
 4412TIP3    H113121   5.525   3.001   1.963
 4412TIP3    H213122   5.488   3.142   1.930
 4413TIP3   OH213123   5.325   4.473   1.403
 4413TIP3    H113124   5.414   4.495   1.368
 4413TIP3    H213125   5.303   4.398   1.344
 4414TIP3   OH213126   6.044   4.591   1.498
 4414TIP3    H113127   6.036   4.494   1.486
 4414TIP3    H213128   5.999   4.623   1.416
 4415TIP3   OH213129   5.258   3.125   3.285
 4415TIP3    H113130   5.223   3.055   3.343
 4415TIP3    H213131   5.352   3.125   3.312
 4416TIP3   OH213132   5.507   3.121   3.405
 4416TIP3    H113133   5.592   3.099   3.364
 4416TIP3    H213134   5.497   3.049   3.470
 4417TIP3   OH213135   4.631   4.313   1.461
 4417TIP3    H113136   4.630   4.329   1.556
 4417TIP3    H213137   4.719   4.269   1.448
 4418TIP3   OH213138   6.332   3.184   3.193
 4418TIP3    H113139   6.351   3.152   3.284
 4418TIP3    H213140   6.421   3.179   3.152
 4419TIP3   OH213141   6.258   4.739   2.695
 4419TIP3    H113142   6.182   4.710   2.639
 4419TIP3    H213143   6.245   4.836   2.692
 4420TIP3   OH213144   7.525   4.109   1.454
 4420TIP3    H113145   7.511   4.192   1.404
 4420TIP3    H213146   7.454   4.056   1.415
 4421TIP3   OH213147   7.539   4.112   1.833
 4421TIP3    H113148   7.567   4.074   1.918
 4421TIP3    H213149   7.498   4.036   1.789
 4422TIP3   OH213150   6.834   4.005   2.202
 4422TIP3    H113151   6.865   3.936   2.262
 4422TIP3    H213152   6.917   4.049   2.180
 4423TIP3   OH213153   7.784   4.409   1.511
 4423TIP3    H113154   7.759   4.340   1.574
 4423TIP3    H213155   7.808   4.483   1.569
 4424TIP3   OH213156   6.809   4.414   1.928
 4424TIP3    H113157   6.800   4.316   1.927
 4424TIP3    H213158   6.904   4.422   1.910
 4425TIP3   OH213159   6.513   3.617   1.706
 4425TIP3    H113160   6.463   3.699   1.720
 4425TIP3    H213161   6.444   3.561   1.666
 4426TIP3   OH213162   6.573   3.904   1.880
 4426TIP3    H113163   6.621   3.826   1.915
 4426TIP3    H213164   6.631   3.932   1.809
 4427TIP3   OH213165   7.445   4.879   1.537
 4427TIP3    H113166   7.470   4.806   1.475
 4427TIP3    H213167   7.414   4.826   1.612
 4428TIP3   OH213168   7.332   4.335   1.883
 4428TIP3    H113169   7.368   4.261   1.831
 4428TIP3    H213170   7.418   4.378   1.906
 4429TIP3   OH213171   8.347   3.654   1.877
 4429TIP3    H113172   8.377   3.738   1.919
 4429TIP3    H213173   8.371   3.671   1.784
 4430TIP3   OH213174   7.746   3.835   1.912
 4430TIP3    H113175   7.789   3.750   1.931
 4430TIP3    H213176   7.715   3.820   1.821
 4431TIP3   OH213177   7.085   3.495   1.878
 4431TIP3    H113178   7.066   3.567   1.814
 4431TIP3    H213179   7.038   3.421   1.833
 4432TIP3   OH213180   7.779   3.587   1.500
 4432TIP3    H113181   7.852   3.571   1.564
 4432TIP3    H213182   7.830   3.622   1.425
 4433TIP3   OH213183   6.719   3.697   1.985
 4433TIP3    H113184   6.802   3.676   2.032
 4433TIP3    H213185   6.731   3.641   1.905
 4434TIP3   OH213186   7.157   3.895   1.784
 4434TIP3    H113187   7.252   3.871   1.792
 4434TIP3    H213188   7.120   3.812   1.748
 4435TIP3   OH213189   8.422   3.862   2.047
 4435TIP3    H113190   8.338   3.908   2.027
 4435TIP3    H213191   8.435   3.888   2.140
 4436TIP3   OH213192   7.082   3.479   2.312
 4436TIP3    H113193   7.022   3.514   2.244
 4436TIP3    H213194   7.030   3.495   2.393
 4437TIP3   OH213195   7.189   4.254   2.106
 4437TIP3    H113196   7.127   4.322   2.142
 4437TIP3    H213197   7.231   4.302   2.032
 4438TIP3   OH213198   7.989   3.589   1.672
 4438TIP3    H113199   7.979   3.540   1.755
 4438TIP3    H213200   8.042   3.666   1.700
 4439TIP3   OH213201   6.953   3.593   2.096
 4439TIP3    H113202   7.016   3.665   2.119
 4439TIP3    H213203   7.001   3.552   2.020
 4440TIP3   OH213204   7.014   4.449   2.211
 4440TIP3    H113205   6.988   4.530   2.163
 4440TIP3    H213206   6.934   4.434   2.264
 4441TIP3   OH213207   6.409   4.138   1.440
 4441TIP3    H113208   6.370   4.165   1.355
 4441TIP3    H213209   6.441   4.223   1.476
 4442TIP3   OH213210   7.852   4.656   1.684
 4442TIP3    H113211   7.762   4.645   1.722
 4442TIP3    H213212   7.841   4.739   1.635
 4443TIP3   OH213213   8.141   3.555   2.044
 4443TIP3    H113214   8.053   3.582   2.012
 4443TIP3    H213215   8.200   3.587   1.972
 4444TIP3   OH213216   7.437   3.196   2.026
 4444TIP3    H113217   7.424   3.101   2.044
 4444TIP3    H213218   7.360   3.234   2.073
 4445TIP3   OH213219   7.544   4.698   1.347
 4445TIP3    H113220   7.593   4.615   1.330
 4445TIP3    H213221   7.608   4.762   1.309
 4446TIP3   OH213222   7.692   4.488   1.258
 4446TIP3    H113223   7.620   4.425   1.235
 4446TIP3    H213224   7.730   4.444   1.337
 4447TIP3   OH213225   8.076   4.566   2.024
 4447TIP3    H113226   8.064   4.488   1.965
 4447TIP3    H213227   8.059   4.640   1.962
 4448TIP3   OH213228   7.362   3.956   1.278
 4448TIP3    H113229   7.283   4.011   1.260
 4448TIP3    H213230   7.419   3.985   1.205
 4449TIP3   OH213231   7.323   3.748   0.993
 4449TIP3    H113232   7.383   3.798   1.051
 4449TIP3    H213233   7.387   3.688   0.950
 4450TIP3   OH213234   8.271   4.205   1.871
 4450TIP3    H113235   8.187   4.256   1.875
 4450TIP3    H213236   8.300   4.227   1.780
 4451TIP3   OH213237   7.713   4.034   1.258
 4451TIP3    H113238   7.656   4.074   1.327
 4451TIP3    H213239   7.796   4.020   1.306
 4452TIP3   OH213240   7.950   4.081   2.166
 4452TIP3    H113241   7.946   4.166   2.214
 4452TIP3    H213242   7.864   4.083   2.120
 4453TIP3   OH213243   6.942   4.039   1.675
 4453TIP3    H113244   6.902   3.982   1.606
 4453TIP3    H213245   7.021   3.987   1.701
 4454TIP3   OH213246   7.071   4.446   1.822
 4454TIP3    H113247   7.052   4.418   1.731
 4454TIP3    H213248   7.162   4.413   1.836
 4455TIP3   OH213249   7.078   4.013   2.027
 4455TIP3    H113250   7.111   3.986   1.939
 4455TIP3    H213251   7.126   4.097   2.043
 4456TIP3   OH213252   7.611   4.650   1.804
 4456TIP3    H113253   7.596   4.728   1.860
 4456TIP3    H213254   7.595   4.575   1.865
 4457TIP3   OH213255   7.223   4.569   2.347
 4457TIP3    H113256   7.163   4.630   2.395
 4457TIP3    H213257   7.158   4.514   2.299
 4458TIP3   OH213258   7.563   3.894   1.079
 4458TIP3    H113259   7.615   3.960   1.131
 4458TIP3    H213260   7.586   3.923   0.987
 4459TIP3   OH213261   6.977   4.126   2.452
 4459TIP3    H113262   6.980   4.211   2.498
 4459TIP3    H213263   6.882   4.103   2.458
 4460TIP3   OH213264   7.262   4.654   1.407
 4460TIP3    H113265   7.355   4.629   1.389
 4460TIP3    H213266   7.228   4.672   1.319
 4461TIP3   OH213267   7.015   4.737   2.432
 4461TIP3    H113268   6.989   4.738   2.337
 4461TIP3    H213269   6.930   4.726   2.476
 4462TIP3   OH213270   8.071   3.141   1.129
 4462TIP3    H113271   7.989   3.161   1.179
 4462TIP3    H213272   8.084   3.224   1.079
 4463TIP3   OH213273   6.811   3.883   1.479
 4463TIP3    H113274   6.748   3.926   1.419
 4463TIP3    H213275   6.774   3.794   1.486
 4464TIP3   OH213276   7.864   4.504   0.674
 4464TIP3    H113277   7.875   4.601   0.665
 4464TIP3    H213278   7.958   4.475   0.665
 4465TIP3   OH213279   6.598   4.269   2.380
 4465TIP3    H113280   6.531   4.245   2.312
 4465TIP3    H213281   6.633   4.181   2.406
 4466TIP3   OH213282   6.449   4.459   2.014
 4466TIP3    H113283   6.544   4.447   2.000
 4466TIP3    H213284   6.447   4.538   2.069
 4467TIP3   OH213285   8.313   4.912   2.070
 4467TIP3    H113286   8.312   4.815   2.083
 4467TIP3    H213287   8.230   4.936   2.116
 4468TIP3   OH213288   7.420   4.698   2.205
 4468TIP3    H113289   7.417   4.791   2.238
 4468TIP3    H213290   7.349   4.657   2.259
 4469TIP3   OH213291   7.177   4.823   1.152
 4469TIP3    H113292   7.133   4.809   1.066
 4469TIP3    H213293   7.147   4.911   1.179
 4470TIP3   OH213294   6.616   4.676   1.544
 4470TIP3    H113295   6.665   4.665   1.628
 4470TIP3    H213296   6.567   4.592   1.541
 4471TIP3   OH213297   7.383   4.728   0.801
 4471TIP3    H113298   7.441   4.657   0.766
 4471TIP3    H213299   7.416   4.736   0.893
 4472TIP3   OH213300   7.432   4.775   1.069
 4472TIP3    H113301   7.345   4.785   1.112
 4472TIP3    H213302   7.480   4.723   1.136
 4473TIP3   OH213303   8.202   4.042   2.345
 4473TIP3    H113304   8.121   4.054   2.293
 4473TIP3    H213305   8.219   3.946   2.334
 4474TIP3   OH213306   6.793   4.464   2.388
 4474TIP3    H113307   6.853   4.426   2.456
 4474TIP3    H213308   6.726   4.393   2.380
 4475TIP3   OH213309   7.198   3.273   2.155
 4475TIP3    H113310   7.110   3.242   2.128
 4475TIP3    H213311   7.173   3.355   2.202
 4476TIP3   OH213312   7.733   3.389   2.350
 4476TIP3    H113313   7.801   3.360   2.413
 4476TIP3    H213314   7.649   3.368   2.396
 4477TIP3   OH213315   7.973   3.818   2.269
 4477TIP3    H113316   7.922   3.815   2.353
 4477TIP3    H213317   7.947   3.904   2.231
 4478TIP3   OH213318   7.626   3.943   0.819
 4478TIP3    H113319   7.603   3.920   0.727
 4478TIP3    H213320   7.698   4.007   0.808
 4479TIP3   OH213321   7.343   3.322   1.126
 4479TIP3    H113322   7.310   3.319   1.218
 4479TIP3    H213323   7.305   3.238   1.092
 4480TIP3   OH213324   7.131   3.789   2.174
 4480TIP3    H113325   7.081   3.810   2.255
 4480TIP3    H213326   7.115   3.870   2.120
 4481TIP3   OH213327   7.015   3.675   1.688
 4481TIP3    H113328   6.922   3.649   1.704
 4481TIP3    H213329   7.028   3.635   1.599
 4482TIP3   OH213330   7.503   3.761   1.415
 4482TIP3    H113331   7.449   3.831   1.371
 4482TIP3    H213332   7.559   3.732   1.341
 4483TIP3   OH213333   7.679   4.039   2.503
 4483TIP3    H113334   7.657   3.966   2.564
 4483TIP3    H213335   7.774   4.051   2.523
 4484TIP3   OH213336   7.661   3.790   1.653
 4484TIP3    H113337   7.601   3.820   1.582
 4484TIP3    H213338   7.695   3.709   1.610
 4485TIP3   OH213339   6.949   3.818   2.383
 4485TIP3    H113340   6.984   3.877   2.451
 4485TIP3    H213341   6.937   3.734   2.432
 4486TIP3   OH213342   6.998   3.295   1.091
 4486TIP3    H113343   6.991   3.292   1.189
 4486TIP3    H213344   6.920   3.348   1.069
 4487TIP3   OH213345   6.542   3.340   1.964
 4487TIP3    H113346   6.619   3.371   2.016
 4487TIP3    H213347   6.581   3.307   1.882
 4488TIP3   OH213348   6.514   3.320   1.482
 4488TIP3    H113349   6.559   3.357   1.404
 4488TIP3    H213350   6.453   3.393   1.502
 4489TIP3   OH213351   7.676   4.034   2.079
 4489TIP3    H113352   7.707   3.963   2.018
 4489TIP3    H213353   7.644   3.980   2.154
 4490TIP3   OH213354   7.344   3.497   1.749
 4490TIP3    H113355   7.262   3.495   1.802
 4490TIP3    H213356   7.412   3.494   1.818
 4491TIP3   OH213357   6.776   3.553   1.757
 4491TIP3    H113358   6.681   3.559   1.729
 4491TIP3    H213359   6.800   3.461   1.734
 4492TIP3   OH213360   7.045   3.550   1.446
 4492TIP3    H113361   7.139   3.564   1.424
 4492TIP3    H213362   6.998   3.570   1.361
 4493TIP3   OH213363   7.834   3.573   1.952
 4493TIP3    H113364   7.798   3.585   2.043
 4493TIP3    H213365   7.769   3.512   1.915
 4494TIP3   OH213366   6.888   3.580   1.223
 4494TIP3    H113367   6.817   3.537   1.174
 4494TIP3    H213368   6.940   3.619   1.150
 4495TIP3   OH213369   8.004   5.262   2.170
 4495TIP3    H113370   8.003   5.284   2.075
 4495TIP3    H213371   8.084   5.309   2.200
 4496TIP3   OH213372   6.959   4.379   2.592
 4496TIP3    H113373   7.043   4.400   2.639
 4496TIP3    H213374   6.900   4.364   2.668
 4497TIP3   OH213375   7.424   3.825   1.847
 4497TIP3    H113376   7.496   3.787   1.794
 4497TIP3    H213377   7.435   3.780   1.932
 4498TIP3   OH213378   6.947   3.313   1.726
 4498TIP3    H113379   6.912   3.234   1.772
 4498TIP3    H213380   6.996   3.273   1.652
 4499TIP3   OH213381   7.401   3.721   2.136
 4499TIP3    H113382   7.312   3.757   2.149
 4499TIP3    H213383   7.458   3.783   2.186
 4500TIP3   OH213384   7.126   4.096   1.227
 4500TIP3    H113385   7.045   4.043   1.231
 4500TIP3    H213386   7.123   4.145   1.312
 4501TIP3   OH213387   8.037   4.349   1.860
 4501TIP3    H113388   8.060   4.398   1.778
 4501TIP3    H213389   7.952   4.306   1.835
 4502TIP3   OH213390   7.595   3.424   1.092
 4502TIP3    H113391   7.499   3.408   1.101
 4502TIP3    H213392   7.605   3.518   1.118
 4503TIP3   OH213393   7.538   4.431   2.228
 4503TIP3    H113394   7.564   4.409   2.318
 4503TIP3    H213395   7.500   4.520   2.236
 4504TIP3   OH213396   7.666   3.670   1.198
 4504TIP3    H113397   7.761   3.681   1.213
 4504TIP3    H213398   7.643   3.752   1.148
 4505TIP3   OH213399   6.829   4.137   1.908
 4505TIP3    H113400   6.864   4.110   1.821
 4505TIP3    H213401   6.873   4.074   1.966
 4506TIP3   OH213402   6.708   4.059   2.522
 4506TIP3    H113403   6.729   4.040   2.616
 4506TIP3    H213404   6.644   3.989   2.502
 4507TIP3   OH213405   7.437   4.170   2.539
 4507TIP3    H113406   7.378   4.111   2.490
 4507TIP3    H213407   7.525   4.135   2.512
 4508TIP3   OH213408   7.698   4.693   2.124
 4508TIP3    H113409   7.602   4.690   2.135
 4508TIP3    H213410   7.725   4.745   2.203
 4509TIP3   OH213411   8.109   3.763   1.032
 4509TIP3    H113412   8.046   3.718   0.970
 4509TIP3    H213413   8.104   3.852   0.992
 4510TIP3   OH213414   8.326   4.622   2.112
 4510TIP3    H113415   8.228   4.615   2.104
 4510TIP3    H213416   8.352   4.591   2.022
 4511TIP3   OH213417   7.812   4.579   0.945
 4511TIP3    H113418   7.777   4.513   1.006
 4511TIP3    H213419   7.819   4.531   0.861
 4512TIP3   OH213420   7.804   4.210   1.782
 4512TIP3    H113421   7.710   4.185   1.792
 4512TIP3    H213422   7.838   4.132   1.734
 4513TIP3   OH213423   6.935   4.443   1.546
 4513TIP3    H113424   6.947   4.518   1.485
 4513TIP3    H213425   6.843   4.420   1.530
 4514TIP3   OH213426   6.494   3.743   1.234
 4514TIP3    H113427   6.542   3.825   1.256
 4514TIP3    H213428   6.418   3.748   1.297
 4515TIP3   OH213429   7.065   4.201   1.475
 4515TIP3    H113430   7.042   4.293   1.496
 4515TIP3    H213431   7.028   4.153   1.551
 4516TIP3   OH213432   7.200   4.781   2.002
 4516TIP3    H113433   7.241   4.853   1.950
 4516TIP3    H213434   7.278   4.745   2.047
 4517TIP3   OH213435   6.846   4.682   1.382
 4517TIP3    H113436   6.762   4.689   1.431
 4517TIP3    H213437   6.880   4.773   1.387
 4518TIP3   OH213438   7.589   4.417   1.959
 4518TIP3    H113439   7.580   4.413   2.057
 4518TIP3    H213440   7.665   4.359   1.943
 4519TIP3   OH213441   7.560   4.312   0.840
 4519TIP3    H113442   7.621   4.285   0.913
 4519TIP3    H213443   7.476   4.291   0.884
 4520TIP3   OH213444   7.837   4.951   2.011
 4520TIP3    H113445   7.759   4.893   2.005
 4520TIP3    H213446   7.821   5.014   1.938
 4521TIP3   OH213447   7.901   4.778   0.680
 4521TIP3    H113448   7.919   4.798   0.585
 4521TIP3    H213449   7.827   4.837   0.702
 4522TIP3   OH213450   6.922   3.562   2.527
 4522TIP3    H113451   6.825   3.564   2.539
 4522TIP3    H213452   6.950   3.502   2.598
 4523TIP3   OH213453   7.736   4.225   1.023
 4523TIP3    H113454   7.692   4.207   1.109
 4523TIP3    H213455   7.831   4.224   1.046
 4524TIP3   OH213456   6.635   4.647   2.163
 4524TIP3    H113457   6.686   4.567   2.182
 4524TIP3    H213458   6.686   4.713   2.211
 4525TIP3   OH213459   6.922   4.288   0.841
 4525TIP3    H113460   6.940   4.195   0.818
 4525TIP3    H213461   6.913   4.281   0.938
 4526TIP3   OH213462   6.875   4.293   1.117
 4526TIP3    H113463   6.962   4.266   1.151
 4526TIP3    H213464   6.881   4.391   1.124
 4527TIP3   OH213465   6.608   3.985   1.318
 4527TIP3    H113466   6.542   4.033   1.373
 4527TIP3    H213467   6.629   4.053   1.252
 4528TIP3   OH213468   7.758   3.627   2.212
 4528TIP3    H113469   7.841   3.662   2.248
 4528TIP3    H213470   7.745   3.545   2.264
 4529TIP3   OH213471   7.640   3.376   1.375
 4529TIP3    H113472   7.626   3.399   1.281
 4529TIP3    H213473   7.679   3.458   1.411
 4530TIP3   OH213474   7.110   4.480   1.035
 4530TIP3    H113475   7.035   4.520   1.083
 4530TIP3    H213476   7.169   4.555   1.023
 4531TIP3   OH213477   7.328   3.556   1.477
 4531TIP3    H113478   7.392   3.628   1.458
 4531TIP3    H213479   7.334   3.550   1.575
 4532TIP3   OH213480   7.597   3.873   2.284
 4532TIP3    H113481   7.621   3.924   2.364
 4532TIP3    H213482   7.652   3.793   2.294
 4533TIP3   OH213483   7.472   3.282   1.579
 4533TIP3    H113484   7.463   3.360   1.636
 4533TIP3    H213485   7.534   3.317   1.510
 4534TIP3   OH213486   6.869   4.570   1.132
 4534TIP3    H113487   6.845   4.643   1.071
 4534TIP3    H213488   6.858   4.613   1.219
 4535TIP3   OH213489   6.985   3.281   1.368
 4535TIP3    H113490   6.983   3.372   1.405
 4535TIP3    H213491   7.081   3.263   1.376
 4536TIP3   OH213492   8.239   3.775   2.265
 4536TIP3    H113493   8.141   3.774   2.273
 4536TIP3    H213494   8.249   3.730   2.180
 4537TIP3   OH213495   7.889   3.969   1.655
 4537TIP3    H113496   7.812   3.909   1.664
 4537TIP3    H213497   7.960   3.920   1.702
 4538TIP3   OH213498   6.605   4.199   1.121
 4538TIP3    H113499   6.678   4.262   1.134
 4538TIP3    H213500   6.648   4.139   1.056
 4539TIP3   OH213501   6.545   3.473   1.257
 4539TIP3    H113502   6.545   3.570   1.252
 4539TIP3    H213503   6.464   3.449   1.211
 4540TIP3   OH213504   7.857   4.928   1.604
 4540TIP3    H113505   7.814   4.974   1.529
 4540TIP3    H213506   7.952   4.946   1.581
 4541TIP3   OH213507   6.933   3.194   2.130
 4541TIP3    H113508   6.903   3.159   2.043
 4541TIP3    H213509   6.923   3.115   2.187
 4542TIP3   OH213510   6.476   4.419   1.511
 4542TIP3    H113511   6.400   4.445   1.565
 4542TIP3    H213512   6.449   4.455   1.423
 4543TIP3   OH213513   7.101   4.919   2.627
 4543TIP3    H113514   7.196   4.909   2.641
 4543TIP3    H213515   7.088   4.861   2.550
 4544TIP3   OH213516   7.089   4.496   0.746
 4544TIP3    H113517   7.038   4.434   0.804
 4544TIP3    H213518   7.170   4.443   0.735
 4545TIP3   OH213519   7.747   4.826   2.362
 4545TIP3    H113520   7.740   4.755   2.429
 4545TIP3    H213521   7.827   4.875   2.391
 4546TIP3   OH213522   7.526   4.533   0.673
 4546TIP3    H113523   7.564   4.466   0.733
 4546TIP3    H213524   7.586   4.529   0.596
 4547TIP3   OH213525   6.758   4.362   2.782
 4547TIP3    H113526   6.777   4.267   2.793
 4547TIP3    H213527   6.672   4.359   2.736
 4548TIP3   OH213528   6.738   4.008   0.980
 4548TIP3    H113529   6.792   3.974   1.054
 4548TIP3    H213530   6.808   4.013   0.910
 4549TIP3   OH213531   7.365   4.444   2.557
 4549TIP3    H113532   7.328   4.461   2.468
 4549TIP3    H213533   7.399   4.352   2.549
 4550TIP3   OH213534   7.244   4.214   0.790
 4550TIP3    H113535   7.222   4.224   0.884
 4550TIP3    H213536   7.251   4.116   0.784
 4551TIP3   OH213537   7.861   4.455   2.164
 4551TIP3    H113538   7.936   4.499   2.118
 4551TIP3    H213539   7.790   4.519   2.147
 4552TIP3   OH213540   6.881   4.101   2.762
 4552TIP3    H113541   6.950   4.037   2.741
 4552TIP3    H213542   6.907   4.127   2.853
 4553TIP3   OH213543   6.915   3.905   1.190
 4553TIP3    H113544   6.909   3.864   1.278
 4553TIP3    H213545   6.968   3.838   1.141
 4554TIP3   OH213546   7.213   3.978   2.425
 4554TIP3    H113547   7.136   4.039   2.426
 4554TIP3    H213548   7.265   4.012   2.348
 4555TIP3   OH213549   7.046   3.709   1.039
 4555TIP3    H113550   7.022   3.713   0.944
 4555TIP3    H213551   7.144   3.715   1.033
 4556TIP3   OH213552   7.732   4.381   2.559
 4556TIP3    H113553   7.810   4.354   2.510
 4556TIP3    H213554   7.728   4.314   2.630
 4557TIP3   OH213555   7.879   4.039   0.689
 4557TIP3    H113556   7.838   3.987   0.619
 4557TIP3    H213557   7.838   4.128   0.674
 4558TIP3   OH213558   7.337   3.767   2.552
 4558TIP3    H113559   7.338   3.687   2.496
 4558TIP3    H213560   7.294   3.833   2.493
 4559TIP3   OH213561   7.340   3.554   2.360
 4559TIP3    H113562   7.369   3.594   2.276
 4559TIP3    H213563   7.247   3.530   2.341
 4560TIP3   OH213564   7.366   4.090   2.234
 4560TIP3    H113565   7.450   4.096   2.186
 4560TIP3    H213566   7.311   4.156   2.187
 4561TIP3   OH213567   7.950   4.055   2.614
 4561TIP3    H113568   7.996   3.970   2.619
 4561TIP3    H213569   8.019   4.113   2.577
 4562TIP3   OH213570   7.990   4.310   2.351
 4562TIP3    H113571   7.933   4.363   2.292
 4562TIP3    H213572   8.078   4.329   2.311
 4563TIP3   OH213573   7.215   3.878   2.782
 4563TIP3    H113574   7.148   3.809   2.797
 4563TIP3    H213575   7.250   3.852   2.695
 4564TIP3   OH213576   7.473   3.317   2.426
 4564TIP3    H113577   7.423   3.399   2.404
 4564TIP3    H213578   7.404   3.248   2.415
 4565TIP3   OH213579   7.598   3.821   2.643
 4565TIP3    H113580   7.584   3.807   2.738
 4565TIP3    H213581   7.508   3.796   2.611
 4566TIP3   OH213582   7.839   3.774   2.499
 4566TIP3    H113583   7.762   3.772   2.560
 4566TIP3    H213584   7.911   3.740   2.556
 4567TIP3   OH213585   8.069   3.712   2.649
 4567TIP3    H113586   8.081   3.616   2.665
 4567TIP3    H213587   8.064   3.749   2.740
 4568TIP3   OH213588   7.056   3.658   2.836
 4568TIP3    H113589   7.060   3.567   2.802
 4568TIP3    H213590   7.093   3.645   2.925
 4569TIP3   OH213591   7.567   3.327   2.684
 4569TIP3    H113592   7.634   3.256   2.679
 4569TIP3    H213593   7.527   3.321   2.595
 4570TIP3   OH213594   7.634   3.542   2.842
 4570TIP3    H113595   7.612   3.470   2.778
 4570TIP3    H213596   7.555   3.600   2.835
 4571TIP3   OH213597   6.855   4.776   0.944
 4571TIP3    H113598   6.950   4.765   0.925
 4571TIP3    H213599   6.828   4.825   0.865
 4572TIP3   OH213600   6.335   4.153   1.159
 4572TIP3    H113601   6.430   4.174   1.144
 4572TIP3    H213602   6.329   4.064   1.118
 4573TIP3   OH213603   6.246   4.765   1.573
 4573TIP3    H113604   6.180   4.702   1.537
 4573TIP3    H213605   6.292   4.708   1.639
 4574TIP3   OH213606   6.380   4.617   1.761
 4574TIP3    H113607   6.371   4.541   1.820
 4574TIP3    H213608   6.436   4.676   1.816
 4575TIP3   OH213609   8.111   5.017   1.559
 4575TIP3    H113610   8.139   5.047   1.648
 4575TIP3    H213611   8.177   5.059   1.501
 4576TIP3   OH213612   8.141   5.036   1.842
 4576TIP3    H113613   8.095   4.950   1.837
 4576TIP3    H213614   8.215   5.011   1.900
 4577TIP3   OH213615   8.187   4.713   2.415
 4577TIP3    H113616   8.114   4.721   2.480
 4577TIP3    H213617   8.228   4.801   2.420
 4578TIP3   OH213618   8.013   4.223   1.036
 4578TIP3    H113619   8.079   4.290   1.009
 4578TIP3    H213620   8.054   4.185   1.116
 4579TIP3   OH213621   8.135   4.091   1.241
 4579TIP3    H113622   8.065   4.049   1.296
 4579TIP3    H213623   8.193   4.132   1.308
 4580TIP3   OH213624   8.187   4.486   1.672
 4580TIP3    H113625   8.238   4.419   1.623
 4580TIP3    H213626   8.176   4.557   1.606
 4581TIP3   OH213627   8.017   4.787   1.865
 4581TIP3    H113628   7.944   4.827   1.917
 4581TIP3    H213629   7.967   4.739   1.795
 4582TIP3   OH213630   8.070   4.001   0.883
 4582TIP3    H113631   7.999   4.004   0.816
 4582TIP3    H213632   8.042   4.076   0.940
 4583TIP3   OH213633   7.943   3.673   0.837
 4583TIP3    H113634   7.896   3.710   0.762
 4583TIP3    H213635   7.916   3.579   0.832
 4584TIP3   OH213636   7.950   3.951   1.387
 4584TIP3    H113637   7.950   3.854   1.378
 4584TIP3    H213638   7.932   3.963   1.482
 4585TIP3   OH213639   6.570   4.025   2.131
 4585TIP3    H113640   6.568   3.991   2.039
 4585TIP3    H213641   6.667   4.026   2.148
 4586TIP3   OH213642   8.234   4.375   2.242
 4586TIP3    H113643   8.305   4.308   2.232
 4586TIP3    H213644   8.259   4.442   2.178
 4587TIP3   OH213645   8.419   4.179   2.257
 4587TIP3    H113646   8.344   4.129   2.295
 4587TIP3    H213647   8.491   4.115   2.272
 4588TIP3   OH213648   7.881   3.409   0.828
 4588TIP3    H113649   7.955   3.375   0.881
 4588TIP3    H213650   7.808   3.349   0.848
 4589TIP3   OH213651   7.942   3.667   1.281
 4589TIP3    H113652   7.982   3.578   1.295
 4589TIP3    H213653   7.998   3.699   1.209
 4590TIP3   OH213654   8.102   3.838   1.775
 4590TIP3    H113655   8.187   3.864   1.733
 4590TIP3    H213656   8.116   3.875   1.864
 4591TIP3   OH213657   8.172   3.984   2.006
 4591TIP3    H113658   8.094   4.018   2.054
 4591TIP3    H213659   8.204   4.065   1.961
 4592TIP3   OH213660   6.790   3.713   2.810
 4592TIP3    H113661   6.888   3.704   2.810
 4592TIP3    H213662   6.765   3.626   2.847
 4593TIP3   OH213663   8.624   3.577   2.562
 4593TIP3    H113664   8.682   3.509   2.522
 4593TIP3    H213665   8.595   3.629   2.484
 4594TIP3   OH213666   8.051   3.416   1.316
 4594TIP3    H113667   8.097   3.399   1.401
 4594TIP3    H213668   7.989   3.339   1.314
 4595TIP3   OH213669   6.749   3.403   2.139
 4595TIP3    H113670   6.810   3.326   2.147
 4595TIP3    H213671   6.813   3.476   2.130
 4596TIP3   OH213672   6.551   3.677   2.209
 4596TIP3    H113673   6.600   3.667   2.124
 4596TIP3    H213674   6.587   3.760   2.241
 4597TIP3   OH213675   8.492   3.714   2.367
 4597TIP3    H113676   8.404   3.753   2.382
 4597TIP3    H213677   8.467   3.640   2.307
 4598TIP3   OH213678   8.130   3.349   0.951
 4598TIP3    H113679   8.168   3.278   0.895
 4598TIP3    H213680   8.197   3.420   0.942
 4599TIP3   OH213681   6.536   3.183   1.714
 4599TIP3    H113682   6.442   3.175   1.737
 4599TIP3    H213683   6.533   3.238   1.633
 4600TIP3   OH213684   7.693   4.887   1.218
 4600TIP3    H113685   7.743   4.866   1.136
 4600TIP3    H213686   7.754   4.946   1.263
 4601TIP3   OH213687   6.757   3.262   2.526
 4601TIP3    H113688   6.705   3.253   2.608
 4601TIP3    H213689   6.689   3.297   2.465
 4602TIP3   OH213690   6.764   4.705   2.642
 4602TIP3    H113691   6.742   4.640   2.573
 4602TIP3    H213692   6.839   4.664   2.688
 4603TIP3   OH213693   6.972   4.724   2.152
 4603TIP3    H113694   6.929   4.800   2.108
 4603TIP3    H213695   7.059   4.731   2.108
 4604TIP3   OH213696   7.416   4.965   2.288
 4604TIP3    H113697   7.460   4.964   2.376
 4604TIP3    H213698   7.483   5.015   2.235
 4605TIP3   OH213699   7.595   5.117   2.147
 4605TIP3    H113700   7.664   5.065   2.102
 4605TIP3    H213701   7.650   5.172   2.207
 4606TIP3   OH213702   8.393   3.475   2.247
 4606TIP3    H113703   8.302   3.466   2.213
 4606TIP3    H213704   8.426   3.383   2.236
 4607TIP3   OH213705   6.649   4.978   2.172
 4607TIP3    H113706   6.559   5.008   2.147
 4607TIP3    H213707   6.662   5.029   2.253
 4608TIP3   OH213708   6.887   4.955   2.031
 4608TIP3    H113709   6.799   4.969   2.073
 4608TIP3    H213710   6.870   4.985   1.940
 4609TIP3   OH213711   7.309   4.981   1.833
 4609TIP3    H113712   7.245   5.001   1.762
 4609TIP3    H213713   7.324   5.070   1.872
 4610TIP3   OH213714   7.580   4.925   1.886
 4610TIP3    H113715   7.487   4.937   1.860
 4610TIP3    H213716   7.624   4.994   1.833
 4611TIP3   OH213717   7.791   5.116   1.795
 4611TIP3    H113718   7.775   5.199   1.746
 4611TIP3    H213719   7.815   5.054   1.723
 4612TIP3   OH213720   6.560   4.769   1.919
 4612TIP3    H113721   6.588   4.744   2.010
 4612TIP3    H213722   6.632   4.726   1.868
 4613TIP3   OH213723   6.755   4.642   1.778
 4613TIP3    H113724   6.773   4.556   1.822
 4613TIP3    H213725   6.846   4.678   1.771
 4614TIP3   OH213726   7.021   4.740   1.779
 4614TIP3    H113727   7.055   4.653   1.752
 4614TIP3    H213728   7.070   4.752   1.862
 4615TIP3   OH213729   7.598   3.392   1.867
 4615TIP3    H113730   7.554   3.321   1.918
 4615TIP3    H213731   7.669   3.344   1.821
 4616TIP3   OH213732   8.120   3.274   1.772
 4616TIP3    H113733   8.156   3.325   1.695
 4616TIP3    H213734   8.024   3.290   1.763
 4617TIP3   OH213735   8.215   3.373   1.535
 4617TIP3    H113736   8.288   3.321   1.495
 4617TIP3    H213737   8.248   3.464   1.519
 4618TIP3   OH213738   6.846   3.100   1.882
 4618TIP3    H113739   6.753   3.067   1.883
 4618TIP3    H213740   6.894   3.015   1.878
 4619TIP3   OH213741   6.633   2.971   1.530
 4619TIP3    H113742   6.664   3.027   1.457
 4619TIP3    H213743   6.606   3.037   1.597
 4620TIP3   OH213744   7.289   3.134   1.762
 4620TIP3    H113745   7.348   3.181   1.701
 4620TIP3    H213746   7.315   3.171   1.847
 4621TIP3   OH213747   7.837   3.280   1.745
 4621TIP3    H113748   7.834   3.241   1.657
 4621TIP3    H213749   7.824   3.200   1.802
 4622TIP3   OH213750   7.867   3.203   1.309
 4622TIP3    H113751   7.780   3.245   1.321
 4622TIP3    H213752   7.852   3.117   1.354
 4623TIP3   OH213753   6.349   4.542   1.308
 4623TIP3    H113754   6.264   4.508   1.275
 4623TIP3    H213755   6.338   4.636   1.288
 4624TIP3   OH213756   6.750   3.130   1.292
 4624TIP3    H113757   6.798   3.066   1.236
 4624TIP3    H213758   6.824   3.183   1.328
 4625TIP3   OH213759   7.261   3.306   1.391
 4625TIP3    H113760   7.321   3.258   1.450
 4625TIP3    H213761   7.284   3.398   1.416
 4626TIP3   OH213762   7.120   4.737   0.885
 4626TIP3    H113763   7.211   4.753   0.851
 4626TIP3    H213764   7.100   4.655   0.835
 4627TIP3   OH213765   7.842   4.846   0.988
 4627TIP3    H113766   7.839   4.748   0.978
 4627TIP3    H213767   7.795   4.873   0.907
 4628TIP3   OH213768   7.053   3.383   2.774
 4628TIP3    H113769   7.019   3.311   2.830
 4628TIP3    H213770   7.148   3.382   2.801
 4629TIP3   OH213771   7.303   3.379   2.892
 4629TIP3    H113772   7.388   3.351   2.853
 4629TIP3    H213773   7.290   3.309   2.960
 4630TIP3   OH213774   6.427   4.567   0.948
 4630TIP3    H113775   6.430   4.586   1.043
 4630TIP3    H213776   6.514   4.525   0.932
 4631TIP3   OH213777   8.129   3.442   2.679
 4631TIP3    H113778   8.148   3.409   2.770
 4631TIP3    H213779   8.217   3.435   2.637
 4632TIP3   OH213780   8.066   4.993   2.171
 4632TIP3    H113781   7.988   4.961   2.122
 4632TIP3    H213782   8.046   5.088   2.176
 4633TIP3   OH213783   8.633   4.258   1.681
 4633TIP3    H113784   8.662   4.188   1.742
 4633TIP3    H213785   8.709   4.317   1.683
 4634TIP3   OH213786   8.595   4.672   1.414
 4634TIP3    H113787   8.592   4.574   1.415
 4634TIP3    H213788   8.690   4.686   1.399
 4635TIP3   OH213789   8.310   3.875   1.192
 4635TIP3    H113790   8.258   3.956   1.209
 4635TIP3    H213791   8.240   3.818   1.154
 4636TIP3   OH213792   8.372   4.164   1.369
 4636TIP3    H113793   8.418   4.084   1.404
 4636TIP3    H213794   8.422   4.183   1.289
 4637TIP3   OH213795   9.119   5.074   1.026
 4637TIP3    H113796   9.199   5.088   0.970
 4637TIP3    H213797   9.161   5.060   1.112
 4638TIP3   OH213798   9.079   4.606   1.361
 4638TIP3    H113799   9.089   4.546   1.286
 4638TIP3    H213800   9.174   4.609   1.389
 4639TIP3   OH213801   8.863   3.755   1.375
 4639TIP3    H113802   8.866   3.820   1.303
 4639TIP3    H213803   8.833   3.676   1.327
 4640TIP3   OH213804   8.514   3.954   1.470
 4640TIP3    H113805   8.595   3.932   1.521
 4640TIP3    H213806   8.528   3.898   1.391
 4641TIP3   OH213807   8.917   4.170   1.252
 4641TIP3    H113808   9.010   4.147   1.268
 4641TIP3    H213809   8.882   4.082   1.224
 4642TIP3   OH213810   8.872   3.735   1.805
 4642TIP3    H113811   8.813   3.769   1.735
 4642TIP3    H213812   8.819   3.753   1.885
 4643TIP3   OH213813   8.955   4.519   1.586
 4643TIP3    H113814   8.899   4.588   1.628
 4643TIP3    H213815   8.998   4.569   1.514
 4644TIP3   OH213816   8.740   3.851   1.592
 4644TIP3    H113817   8.806   3.921   1.612
 4644TIP3    H213818   8.785   3.809   1.514
 4645TIP3   OH213819   8.805   4.715   1.696
 4645TIP3    H113820   8.779   4.802   1.660
 4645TIP3    H213821   8.727   4.696   1.752
 4646TIP3   OH213822   8.210   4.396   0.931
 4646TIP3    H113823   8.161   4.417   0.850
 4646TIP3    H213824   8.237   4.484   0.963
 4647TIP3   OH213825   8.719   4.316   1.139
 4647TIP3    H113826   8.681   4.253   1.074
 4647TIP3    H213827   8.793   4.262   1.176
 4648TIP3   OH213828   8.843   4.726   1.294
 4648TIP3    H113829   8.825   4.683   1.208
 4648TIP3    H213830   8.928   4.687   1.321
 4649TIP3   OH213831   8.889   4.263   1.515
 4649TIP3    H113832   8.901   4.251   1.419
 4649TIP3    H213833   8.912   4.358   1.529
 4650TIP3   OH213834   9.015   4.828   1.837
 4650TIP3    H113835   8.954   4.888   1.884
 4650TIP3    H213836   8.951   4.774   1.787
 4651TIP3   OH213837   8.765   4.386   1.936
 4651TIP3    H113838   8.769   4.473   1.982
 4651TIP3    H213839   8.671   4.363   1.950
 4652TIP3   OH213840   9.081   4.863   0.852
 4652TIP3    H113841   9.104   4.920   0.928
 4652TIP3    H213842   8.999   4.905   0.825
 4653TIP3   OH213843   8.810   4.994   1.923
 4653TIP3    H113844   8.775   4.992   1.832
 4653TIP3    H213845   8.731   4.972   1.976
 4654TIP3   OH213846   8.611   4.134   0.956
 4654TIP3    H113847   8.540   4.178   0.905
 4654TIP3    H213848   8.568   4.050   0.979
 4655TIP3   OH213849   8.390   4.523   1.869
 4655TIP3    H113850   8.323   4.502   1.800
 4655TIP3    H213851   8.426   4.435   1.891
 4656TIP3   OH213852   8.245   4.717   1.499
 4656TIP3    H113853   8.341   4.709   1.491
 4656TIP3    H213854   8.236   4.795   1.556
 4657TIP3   OH213855   9.196   4.961   1.685
 4657TIP3    H113856   9.203   5.049   1.725
 4657TIP3    H213857   9.130   4.918   1.743
 4658TIP3   OH213858   8.416   4.932   1.026
 4658TIP3    H113859   8.460   4.921   1.114
 4658TIP3    H213860   8.362   4.850   1.024
 4659TIP3   OH213861   8.591   4.709   1.861
 4659TIP3    H113862   8.642   4.690   1.943
 4659TIP3    H213863   8.519   4.643   1.866
 4660TIP3   OH213864   8.983   3.526   1.658
 4660TIP3    H113865   8.896   3.499   1.623
 4660TIP3    H213866   8.958   3.609   1.703
 4661TIP3   OH213867   8.931   4.035   1.655
 4661TIP3    H113868   8.882   4.058   1.736
 4661TIP3    H213869   8.921   4.119   1.604
 4662TIP3   OH213870   8.808   3.931   1.170
 4662TIP3    H113871   8.719   3.898   1.196
 4662TIP3    H213872   8.813   3.897   1.077
 4663TIP3   OH213873   8.745   4.069   1.866
 4663TIP3    H113874   8.777   4.129   1.935
 4663TIP3    H213875   8.731   3.986   1.916
 4664TIP3   OH213876   8.775   3.571   0.578
 4664TIP3    H113877   8.751   3.542   0.667
 4664TIP3    H213878   8.693   3.611   0.546
 4665TIP3   OH213879   8.338   3.597   1.449
 4665TIP3    H113880   8.414   3.627   1.503
 4665TIP3    H213881   8.380   3.563   1.368
 4666TIP3   OH213882   8.312   3.578   0.969
 4666TIP3    H113883   8.355   3.618   0.890
 4666TIP3    H213884   8.248   3.650   0.991
 4667TIP3   OH213885   8.571   3.812   1.241
 4667TIP3    H113886   8.476   3.817   1.216
 4667TIP3    H213887   8.594   3.718   1.224
 4668TIP3   OH213888   8.824   3.835   0.910
 4668TIP3    H113889   8.894   3.852   0.845
 4668TIP3    H213890   8.746   3.841   0.850
 4669TIP3   OH213891   8.658   3.845   0.700
 4669TIP3    H113892   8.591   3.798   0.649
 4669TIP3    H213893   8.724   3.865   0.631
 4670TIP3   OH213894   8.757   4.629   2.078
 4670TIP3    H113895   8.836   4.659   2.128
 4670TIP3    H213896   8.691   4.627   2.151
 4671TIP3   OH213897   8.739   3.570   1.206
 4671TIP3    H113898   8.703   3.496   1.259
 4671TIP3    H213899   8.796   3.524   1.143
 4672TIP3   OH213900   8.884   4.397   0.712
 4672TIP3    H113901   8.840   4.310   0.714
 4672TIP3    H213902   8.910   4.411   0.805
 4673TIP3   OH213903   9.287   4.692   1.730
 4673TIP3    H113904   9.320   4.668   1.818
 4673TIP3    H213905   9.261   4.785   1.741
 4674TIP3   OH213906   8.633   4.400   1.396
 4674TIP3    H113907   8.657   4.368   1.307
 4674TIP3    H213908   8.657   4.325   1.453
 4675TIP3   OH213909   8.507   4.312   2.007
 4675TIP3    H113910   8.525   4.295   2.102
 4675TIP3    H213911   8.438   4.245   1.989
 4676TIP3   OH213912   9.199   4.380   2.049
 4676TIP3    H113913   9.112   4.347   2.020
 4676TIP3    H213914   9.253   4.304   2.024
 4677TIP3   OH213915   8.728   4.694   1.018
 4677TIP3    H113916   8.722   4.776   0.964
 4677TIP3    H213917   8.635   4.668   1.021
 4678TIP3   OH213918   8.289   4.001   0.720
 4678TIP3    H113919   8.336   4.083   0.744
 4678TIP3    H213920   8.213   4.004   0.783
 4679TIP3   OH213921   8.899   4.476   0.991
 4679TIP3    H113922   8.845   4.558   0.987
 4679TIP3    H213923   8.839   4.418   1.042
 4680TIP3   OH213924   8.996   5.036   1.487
 4680TIP3    H113925   9.036   5.109   1.436
 4680TIP3    H213926   9.073   5.004   1.539
 4681TIP3   OH213927   8.651   4.932   0.875
 4681TIP3    H113928   8.565   4.942   0.920
 4681TIP3    H213929   8.682   5.026   0.876
 4682TIP3   OH213930   8.716   3.818   2.019
 4682TIP3    H113931   8.619   3.819   2.028
 4682TIP3    H213932   8.741   3.753   2.087
 4683TIP3   OH213933   8.435   4.902   1.646
 4683TIP3    H113934   8.485   4.825   1.676
 4683TIP3    H213935   8.464   4.969   1.710
 4684TIP3   OH213936   8.636   4.546   0.673
 4684TIP3    H113937   8.726   4.508   0.673
 4684TIP3    H213938   8.653   4.639   0.651
 4685TIP3   OH213939   8.404   4.241   0.815
 4685TIP3    H113940   8.337   4.288   0.869
 4685TIP3    H213941   8.420   4.307   0.745
 4686TIP3   OH213942   8.614   4.818   0.623
 4686TIP3    H113943   8.674   4.880   0.575
 4686TIP3    H213944   8.622   4.854   0.714
 4687TIP3   OH213945   8.784   3.545   0.860
 4687TIP3    H113946   8.751   3.622   0.909
 4687TIP3    H213947   8.866   3.582   0.822
 4688TIP3   OH213948   8.380   4.476   0.616
 4688TIP3    H113949   8.457   4.524   0.654
 4688TIP3    H213950   8.429   4.402   0.573
 4689TIP3   OH213951   8.348   3.733   0.745
 4689TIP3    H113952   8.338   3.830   0.742
 4689TIP3    H213953   8.269   3.703   0.698
 4690TIP3   OH213954   8.717   3.450   1.617
 4690TIP3    H113955   8.693   3.415   1.529
 4690TIP3    H213956   8.715   3.370   1.673
 4691TIP3   OH213957   8.273   4.673   0.999
 4691TIP3    H113958   8.201   4.699   1.058
 4691TIP3    H213959   8.241   4.711   0.914
 4692TIP3   OH213960   8.426   5.212   2.068
 4692TIP3    H113961   8.512   5.211   2.115
 4692TIP3    H213962   8.405   5.117   2.067
 4693TIP3   OH213963   8.906   5.179   2.108
 4693TIP3    H113964   8.998   5.155   2.124
 4693TIP3    H213965   8.882   5.115   2.038
 4694TIP3   OH213966   8.556   4.616   2.268
 4694TIP3    H113967   8.572   4.520   2.274
 4694TIP3    H213968   8.468   4.619   2.224
 4695TIP3   OH213969   8.508   4.254   0.537
 4695TIP3    H113970   8.572   4.240   0.610
 4695TIP3    H213971   8.567   4.228   0.464
 4696TIP3   OH213972   9.149   4.694   2.043
 4696TIP3    H113973   9.117   4.721   1.955
 4696TIP3    H213974   9.165   4.599   2.032
 4697TIP3   OH213975   8.678   4.350   2.251
 4697TIP3    H113976   8.755   4.295   2.229
 4697TIP3    H213977   8.704   4.384   2.339
 4698TIP3   OH213978   8.739   4.162   0.690
 4698TIP3    H113979   8.713   4.121   0.774
 4698TIP3    H213980   8.770   4.085   0.638
 4699TIP3   OH213981   8.985   4.233   1.931
 4699TIP3    H113982   8.905   4.291   1.931
 4699TIP3    H213983   9.032   4.270   1.852
 4700TIP3   OH213984   8.847   3.948   0.530
 4700TIP3    H113985   8.820   3.947   0.437
 4700TIP3    H213986   8.939   3.978   0.523
 4701TIP3   OH213987   9.101   4.025   2.062
 4701TIP3    H113988   9.121   3.943   2.012
 4701TIP3    H213989   9.048   4.076   1.997
 4702TIP3   OH213990   9.119   3.836   1.863
 4702TIP3    H113991   9.167   3.816   1.781
 4702TIP3    H213992   9.035   3.789   1.848
 4703TIP3   OH213993   9.109   4.356   1.734
 4703TIP3    H113994   9.162   4.317   1.662
 4703TIP3    H213995   9.059   4.426   1.687
 4704TIP3   OH213996   8.980   4.154   2.267
 4704TIP3    H113997   8.924   4.076   2.287
 4704TIP3    H213998   9.025   4.123   2.186
 4705TIP3   OH213999   8.851   3.918   2.323
 4705TIP3    H114000   8.857   3.831   2.281
 4705TIP3    H214001   8.885   3.898   2.413
 4706TIP3   OH214002   8.121   4.402   0.662
 4706TIP3    H114003   8.212   4.437   0.646
 4706TIP3    H214004   8.123   4.319   0.610
 4707TIP3   OH214005   8.043   5.024   1.060
 4707TIP3    H114006   7.978   4.960   1.023
 4707TIP3    H214007   8.089   4.966   1.125
 4708TIP3   OH214008   8.178   4.875   1.247
 4708TIP3    H114009   8.166   4.799   1.307
 4708TIP3    H214010   8.231   4.933   1.304
 4709TIP3   OH214011   8.367   4.279   1.620
 4709TIP3    H114012   8.364   4.247   1.527
 4709TIP3    H214013   8.464   4.280   1.635
 4710TIP3   OH214014   8.583   3.967   2.297
 4710TIP3    H114015   8.681   3.960   2.295
 4710TIP3    H214016   8.560   3.880   2.334
 4711TIP3   OH214017   8.541   3.660   1.626
 4711TIP3    H114018   8.601   3.583   1.633
 4711TIP3    H214019   8.605   3.733   1.621
 4712TIP3   OH214020   8.348   3.932   1.697
 4712TIP3    H114021   8.396   3.924   1.612
 4712TIP3    H214022   8.379   4.018   1.728
 4713TIP3   OH214023   8.332   3.436   1.198
 4713TIP3    H114024   8.239   3.431   1.224
 4713TIP3    H214025   8.328   3.494   1.119
 4714TIP3   OH214026   8.549   3.518   2.011
 4714TIP3    H114027   8.498   3.511   2.094
 4714TIP3    H214028   8.482   3.555   1.951
 4715TIP3   OH214029   8.592   4.946   2.089
 4715TIP3    H114030   8.500   4.917   2.071
 4715TIP3    H214031   8.602   4.924   2.182
 4716TIP3   OH214032   8.769   4.980   1.637
 4716TIP3    H114033   8.722   5.055   1.596
 4716TIP3    H214034   8.855   4.990   1.591
 4717TIP3   OH214035   9.229   5.229   1.768
 4717TIP3    H114036   9.250   5.220   1.864
 4717TIP3    H214037   9.311   5.267   1.736
 4718TIP3   OH214038   8.448   5.236   1.658
 4718TIP3    H114039   8.358   5.268   1.636
 4718TIP3    H214040   8.455   5.268   1.749
 4719TIP3   OH214041   8.684   5.214   1.519
 4719TIP3    H114042   8.597   5.226   1.563
 4719TIP3    H214043   8.664   5.243   1.428
 4720TIP3   OH214044   9.092   5.240   1.315
 4720TIP3    H114045   9.023   5.254   1.246
 4720TIP3    H214046   9.100   5.329   1.353
 4721TIP3   OH214047   9.357   5.203   1.355
 4721TIP3    H114048   9.260   5.196   1.344
 4721TIP3    H214049   9.376   5.286   1.311
 4722TIP3   OH214050   8.358   5.027   1.406
 4722TIP3    H114051   8.385   4.999   1.496
 4722TIP3    H214052   8.429   4.983   1.354
 4723TIP3   OH214053   8.550   4.898   1.262
 4723TIP3    H114054   8.565   4.814   1.312
 4723TIP3    H214055   8.641   4.934   1.257
 4724TIP3   OH214056   8.816   4.999   1.264
 4724TIP3    H114057   8.837   4.904   1.254
 4724TIP3    H214058   8.862   5.017   1.347
 4725TIP3   OH214059   8.635   3.365   1.361
 4725TIP3    H114060   8.541   3.336   1.364
 4725TIP3    H214061   8.679   3.277   1.366
 4726TIP3   OH214062   8.432   3.227   1.013
 4726TIP3    H114063   8.456   3.288   0.942
 4726TIP3    H214064   8.401   3.289   1.082
 4727TIP3   OH214065   8.148   4.797   0.800
 4727TIP3    H114066   8.061   4.764   0.769
 4727TIP3    H214067   8.140   4.890   0.772
 4728TIP3   OH214068   8.541   3.388   0.788
 4728TIP3    H114069   8.578   3.323   0.726
 4728TIP3    H214070   8.621   3.432   0.823
 4729TIP3   OH214071   8.816   3.634   2.240
 4729TIP3    H114072   8.781   3.567   2.301
 4729TIP3    H214073   8.910   3.636   2.271
 4730TIP3   OH214074   9.052   3.642   2.375
 4730TIP3    H114075   9.148   3.647   2.360
 4730TIP3    H214076   9.050   3.571   2.443
 4731TIP3   OH214077   8.233   4.820   0.504
 4731TIP3    H114078   8.241   4.870   0.587
 4731TIP3    H214079   8.325   4.806   0.479
 4732TIP3   OH214080  -0.010   4.896   3.140
 4732TIP3    H114081  -0.039   4.988   3.120
 4732TIP3    H214082  -0.087   4.846   3.106
 4733TIP3   OH214083   0.001   4.891   3.515
 4733TIP3    H114084   0.024   4.867   3.607
 4733TIP3    H214085  -0.049   4.813   3.486
 4734TIP3   OH214086   0.234   5.199   3.203
 4734TIP3    H114087   0.215   5.131   3.269
 4734TIP3    H214088   0.261   5.274   3.259
 4735TIP3   OH214089  -0.120   5.664   3.216
 4735TIP3    H114090  -0.076   5.587   3.173
 4735TIP3    H214091  -0.142   5.629   3.303
 4736TIP3   OH214092  -0.225   5.064   3.549
 4736TIP3    H114093  -0.144   5.021   3.517
 4736TIP3    H214094  -0.189   5.145   3.586
 4737TIP3   OH214095   0.801   4.442   3.568
 4737TIP3    H114096   0.830   4.525   3.612
 4737TIP3    H214097   0.821   4.462   3.475
 4738TIP3   OH214098   0.200   4.623   3.603
 4738TIP3    H114099   0.241   4.537   3.621
 4738TIP3    H214100   0.168   4.609   3.512
 4739TIP3   OH214101  -0.422   4.280   3.569
 4739TIP3    H114102  -0.465   4.357   3.529
 4739TIP3    H214103  -0.466   4.208   3.519
 4740TIP3   OH214104   0.234   4.376   3.191
 4740TIP3    H114105   0.308   4.358   3.253
 4740TIP3    H214106   0.284   4.409   3.114
 4741TIP3   OH214107  -0.390   4.693   3.483
 4741TIP3    H114108  -0.296   4.662   3.486
 4741TIP3    H214109  -0.434   4.618   3.440
 4742TIP3   OH214110   0.874   4.650   3.738
 4742TIP3    H114111   0.790   4.697   3.719
 4742TIP3    H214112   0.890   4.679   3.829
 4743TIP3   OH214113  -0.117   5.119   3.009
 4743TIP3    H114114  -0.159   5.096   2.925
 4743TIP3    H214115  -0.165   5.201   3.033
 4744TIP3   OH214116   0.447   4.373   3.364
 4744TIP3    H114117   0.422   4.335   3.450
 4744TIP3    H214118   0.495   4.453   3.391
 4745TIP3   OH214119   0.304   5.441   3.369
 4745TIP3    H114120   0.216   5.432   3.411
 4745TIP3    H214121   0.294   5.528   3.325
 4746TIP3   OH214122   0.594   4.340   3.733
 4746TIP3    H114123   0.507   4.371   3.703
 4746TIP3    H214124   0.653   4.374   3.662
 4747TIP3   OH214125  -0.109   3.981   3.716
 4747TIP3    H114126  -0.120   3.885   3.732
 4747TIP3    H214127  -0.182   4.016   3.771
 4748TIP3   OH214128   0.004   5.485   3.045
 4748TIP3    H114129   0.055   5.403   3.024
 4748TIP3    H214130   0.065   5.552   3.006
 4749TIP3   OH214131   0.148   5.273   2.951
 4749TIP3    H114132   0.108   5.193   2.914
 4749TIP3    H214133   0.185   5.238   3.036
 4750TIP3   OH214134   0.529   5.354   3.714
 4750TIP3    H114135   0.516   5.277   3.655
 4750TIP3    H214136   0.510   5.429   3.654
 4751TIP3   OH214137  -0.178   4.747   2.972
 4751TIP3    H114138  -0.259   4.796   2.947
 4751TIP3    H214139  -0.132   4.742   2.886
 4752TIP3   OH214140  -0.218   4.534   2.695
 4752TIP3    H114141  -0.149   4.587   2.738
 4752TIP3    H214142  -0.161   4.475   2.641
 4753TIP3   OH214143   0.724   4.992   3.559
 4753TIP3    H114144   0.640   5.043   3.565
 4753TIP3    H214145   0.753   5.016   3.469
 4754TIP3   OH214146   0.168   4.832   2.942
 4754TIP3    H114147   0.113   4.855   3.020
 4754TIP3    H214148   0.252   4.806   2.987
 4755TIP3   OH214149   0.402   4.869   3.856
 4755TIP3    H114150   0.400   4.953   3.906
 4755TIP3    H214151   0.316   4.875   3.810
 4756TIP3   OH214152  -0.457   4.782   3.730
 4756TIP3    H114153  -0.429   4.752   3.641
 4756TIP3    H214154  -0.413   4.868   3.737
 4757TIP3   OH214155   0.066   5.437   3.493
 4757TIP3    H114156   0.046   5.514   3.549
 4757TIP3    H214157   0.047   5.361   3.552
 4758TIP3   OH214158   0.008   4.689   2.770
 4758TIP3    H114159   0.067   4.749   2.820
 4758TIP3    H214160   0.033   4.711   2.677
 4759TIP3   OH214161  -0.251   5.371   3.048
 4759TIP3    H114162  -0.165   5.414   3.065
 4759TIP3    H214163  -0.297   5.440   2.997
 4760TIP3   OH214164   0.323   5.296   2.366
 4760TIP3    H114165   0.331   5.393   2.351
 4760TIP3    H214166   0.415   5.267   2.354
 4761TIP3   OH214167   0.766   5.700   3.761
 4761TIP3    H114168   0.765   5.603   3.776
 4761TIP3    H214169   0.683   5.726   3.806
 4762TIP3   OH214170  -0.108   5.463   3.905
 4762TIP3    H114171  -0.106   5.556   3.937
 4762TIP3    H214172  -0.201   5.453   3.880
 4763TIP3   OH214173  -0.339   5.594   2.870
 4763TIP3    H114174  -0.374   5.572   2.782
 4763TIP3    H214175  -0.380   5.680   2.887
 4764TIP3   OH214176  -0.166   5.514   2.489
 4764TIP3    H114177  -0.108   5.445   2.449
 4764TIP3    H214178  -0.123   5.525   2.577
 4765TIP3   OH214179  -0.097   5.558   2.753
 4765TIP3    H114180  -0.179   5.561   2.806
 4765TIP3    H214181  -0.036   5.519   2.819
 4766TIP3   OH214182   0.656   4.830   4.035
 4766TIP3    H114183   0.574   4.843   3.986
 4766TIP3    H214184   0.671   4.734   4.025
 4767TIP3   OH214185  -0.353   4.062   3.844
 4767TIP3    H114186  -0.426   4.023   3.794
 4767TIP3    H214187  -0.359   4.155   3.817
 4768TIP3   OH214188   0.186   4.176   4.039
 4768TIP3    H114189   0.254   4.150   4.104
 4768TIP3    H214190   0.102   4.157   4.086
 4769TIP3   OH214191   0.424   4.606   3.958
 4769TIP3    H114192   0.374   4.602   4.043
 4769TIP3    H214193   0.400   4.693   3.923
 4770TIP3   OH214194   0.086   4.739   2.516
 4770TIP3    H114195   0.051   4.708   2.430
 4770TIP3    H214196   0.168   4.783   2.489
 4771TIP3   OH214197  -0.194   4.104   2.811
 4771TIP3    H114198  -0.228   4.108   2.903
 4771TIP3    H214199  -0.264   4.049   2.771
 4772TIP3   OH214200  -0.426   4.559   3.878
 4772TIP3    H114201  -0.476   4.593   3.954
 4772TIP3    H214202  -0.436   4.635   3.816
 4773TIP3   OH214203  -0.541   4.453   3.383
 4773TIP3    H114204  -0.635   4.470   3.367
 4773TIP3    H214205  -0.518   4.409   3.298
 4774TIP3   OH214206  -0.041   4.550   3.106
 4774TIP3    H114207  -0.093   4.621   3.063
 4774TIP3    H214208   0.013   4.517   3.031
 4775TIP3   OH214209   0.135   4.824   4.190
 4775TIP3    H114210   0.111   4.753   4.254
 4775TIP3    H214211   0.228   4.839   4.214
 4776TIP3   OH214212   0.114   4.577   3.345
 4776TIP3    H114213   0.054   4.607   3.273
 4776TIP3    H214214   0.148   4.496   3.300
 4777TIP3   OH214215  -0.478   4.092   2.806
 4777TIP3    H114216  -0.502   4.060   2.895
 4777TIP3    H214217  -0.566   4.110   2.769
 4778TIP3   OH214218   0.121   4.822   3.767
 4778TIP3    H114219   0.156   4.752   3.707
 4778TIP3    H214220   0.096   4.768   3.845
 4779TIP3   OH214221  -0.184   4.286   3.431
 4779TIP3    H114222  -0.268   4.288   3.483
 4779TIP3    H214223  -0.118   4.284   3.502
 4780TIP3   OH214224  -0.498   4.339   3.134
 4780TIP3    H114225  -0.404   4.354   3.113
 4780TIP3    H214226  -0.545   4.374   3.056
 4781TIP3   OH214227   0.286   4.359   3.638
 4781TIP3    H114228   0.254   4.373   3.730
 4781TIP3    H214229   0.218   4.298   3.605
 4782TIP3   OH214230  -0.677   4.420   2.920
 4782TIP3    H114231  -0.705   4.327   2.924
 4782TIP3    H214232  -0.615   4.423   2.844
 4783TIP3   OH214233   0.457   6.050   3.860
 4783TIP3    H114234   0.456   6.074   3.765
 4783TIP3    H214235   0.537   6.097   3.891
 4784TIP3   OH214236  -0.122   4.612   3.534
 4784TIP3    H114237  -0.049   4.575   3.481
 4784TIP3    H214238  -0.109   4.569   3.620
 4785TIP3   OH214239  -0.559   4.100   3.418
 4785TIP3    H114240  -0.630   4.033   3.432
 4785TIP3    H214241  -0.528   4.073   3.331
 4786TIP3   OH214242  -0.146   4.507   3.833
 4786TIP3    H114243  -0.235   4.545   3.842
 4786TIP3    H214244  -0.089   4.571   3.879
 4787TIP3   OH214245  -0.403   4.895   2.907
 4787TIP3    H114246  -0.479   4.832   2.904
 4787TIP3    H214247  -0.414   4.933   2.997
 4788TIP3   OH214248   0.491   5.136   3.550
 4788TIP3    H114249   0.514   5.186   3.469
 4788TIP3    H214250   0.405   5.094   3.525
 4789TIP3   OH214251   0.056   4.209   2.790
 4789TIP3    H114252  -0.041   4.190   2.791
 4789TIP3    H214253   0.060   4.306   2.803
 4790TIP3   OH214254  -0.011   5.207   3.923
 4790TIP3    H114255   0.015   5.201   4.016
 4790TIP3    H214256  -0.048   5.298   3.920
 4791TIP3   OH214257   0.117   4.463   2.890
 4791TIP3    H114258   0.214   4.468   2.900
 4791TIP3    H214259   0.097   4.539   2.833
 4792TIP3   OH214260  -0.253   5.044   2.738
 4792TIP3    H114261  -0.300   5.130   2.748
 4792TIP3    H214262  -0.309   4.987   2.795
 4793TIP3   OH214263  -0.098   4.966   4.230
 4793TIP3    H114264  -0.158   4.896   4.198
 4793TIP3    H214265  -0.012   4.932   4.200
 4794TIP3   OH214266   0.156   5.479   3.814
 4794TIP3    H114267   0.061   5.470   3.831
 4794TIP3    H214268   0.183   5.532   3.892
 4795TIP3   OH214269   0.561   4.551   2.722
 4795TIP3    H114270   0.499   4.505   2.661
 4795TIP3    H214271   0.556   4.640   2.680
 4796TIP3   OH214272   0.779   5.408   3.803
 4796TIP3    H114273   0.681   5.403   3.795
 4796TIP3    H214274   0.804   5.379   3.713
 4797TIP3   OH214275   0.262   5.370   2.632
 4797TIP3    H114276   0.234   5.300   2.692
 4797TIP3    H214277   0.272   5.323   2.547
 4798TIP3   OH214278   0.259   4.998   3.468
 4798TIP3    H114279   0.165   4.973   3.481
 4798TIP3    H214280   0.292   4.919   3.422
 4799TIP3   OH214281  -0.431   4.993   3.155
 4799TIP3    H114282  -0.443   5.087   3.174
 4799TIP3    H214283  -0.483   4.952   3.225
 4800TIP3   OH214284   0.044   5.205   3.651
 4800TIP3    H114285   0.029   5.200   3.748
 4800TIP3    H214286   0.123   5.150   3.641
 4801TIP3   OH214287   0.017   5.100   2.531
 4801TIP3    H114288   0.068   5.073   2.611
 4801TIP3    H214289  -0.071   5.068   2.556
 4802TIP3   OH214290   0.292   5.736   3.700
 4802TIP3    H114291   0.213   5.679   3.697
 4802TIP3    H214292   0.273   5.800   3.628
 4803TIP3   OH214293   0.356   5.572   2.351
 4803TIP3    H114294   0.395   5.647   2.303
 4803TIP3    H214295   0.275   5.617   2.385
 4804TIP3   OH214296   0.177   5.032   2.748
 4804TIP3    H114297   0.165   4.965   2.819
 4804TIP3    H214298   0.274   5.029   2.736
 4805TIP3   OH214299  -0.558   5.046   2.559
 4805TIP3    H114300  -0.547   4.960   2.513
 4805TIP3    H214301  -0.581   5.016   2.648
 4806TIP3   OH214302   0.213   4.413   3.898
 4806TIP3    H114303   0.291   4.452   3.939
 4806TIP3    H214304   0.199   4.332   3.952
 4807TIP3   OH214305   0.087   4.167   3.068
 4807TIP3    H114306   0.077   4.185   2.972
 4807TIP3    H214307   0.130   4.249   3.100
 4808TIP3   OH214308  -0.398   5.272   2.760
 4808TIP3    H114309  -0.491   5.291   2.778
 4808TIP3    H214310  -0.384   5.319   2.676
 4809TIP3   OH214311  -0.216   4.346   3.164
 4809TIP3    H114312  -0.152   4.417   3.145
 4809TIP3    H214313  -0.207   4.337   3.261
 4810TIP3   OH214314   0.047   4.664   3.975
 4810TIP3    H114315   0.070   4.717   4.054
 4810TIP3    H214316   0.101   4.584   3.988
 4811TIP3   OH214317  -0.071   4.072   3.273
 4811TIP3    H114318  -0.088   4.153   3.325
 4811TIP3    H214319  -0.011   4.107   3.203
 4812TIP3   OH214320  -0.542   4.059   3.072
 4812TIP3    H114321  -0.563   4.148   3.106
 4812TIP3    H214322  -0.444   4.058   3.080
 4813TIP3   OH214323   0.691   4.562   3.955
 4813TIP3    H114324   0.593   4.561   3.963
 4813TIP3    H214325   0.701   4.522   3.868
 4814TIP3   OH214326   0.342   4.756   3.342
 4814TIP3    H114327   0.265   4.698   3.355
 4814TIP3    H214328   0.412   4.708   3.391
 4815TIP3   OH214329   0.311   5.713   3.292
 4815TIP3    H114330   0.268   5.760   3.217
 4815TIP3    H214331   0.405   5.731   3.271
 4816TIP3   OH214332  -0.417   5.269   2.467
 4816TIP3    H114333  -0.465   5.189   2.496
 4816TIP3    H214334  -0.363   5.233   2.394
 4817TIP3   OH214335   0.210   5.612   4.049
 4817TIP3    H114336   0.203   5.540   4.116
 4817TIP3    H214337   0.286   5.664   4.082
 4818TIP3   OH214338  -0.017   5.322   2.359
 4818TIP3    H114339   0.022   5.256   2.418
 4818TIP3    H214340   0.042   5.320   2.281
 4819TIP3   OH214341  -0.160   5.240   4.233
 4819TIP3    H114342  -0.230   5.221   4.169
 4819TIP3    H214343  -0.127   5.149   4.249
 4820TIP3   OH214344  -0.277   4.990   2.468
 4820TIP3    H114345  -0.284   5.006   2.564
 4820TIP3    H214346  -0.282   4.892   2.465
 4821TIP3   OH214347   0.314   5.241   3.852
 4821TIP3    H114348   0.388   5.288   3.809
 4821TIP3    H214349   0.242   5.306   3.838
 4822TIP3   OH214350  -0.596   4.703   2.890
 4822TIP3    H114351  -0.633   4.645   2.958
 4822TIP3    H214352  -0.557   4.636   2.830
 4823TIP3   OH214353  -0.257   4.772   4.107
 4823TIP3    H114354  -0.350   4.804   4.106
 4823TIP3    H214355  -0.226   4.804   4.019
 4824TIP3   OH214356  -0.489   4.497   2.739
 4824TIP3    H114357  -0.517   4.503   2.645
 4824TIP3    H214358  -0.391   4.501   2.728
 4825TIP3   OH214359   0.183   5.162   4.250
 4825TIP3    H114360   0.263   5.139   4.202
 4825TIP3    H214361   0.183   5.098   4.324
 4826TIP3   OH214362   0.320   4.827   2.391
 4826TIP3    H114363   0.300   4.781   2.308
 4826TIP3    H214364   0.287   4.917   2.368
 4827TIP3   OH214365  -0.191   4.539   4.249
 4827TIP3    H114366  -0.211   4.464   4.191
 4827TIP3    H214367  -0.225   4.616   4.200
 4828TIP3   OH214368  -0.218   4.331   4.039
 4828TIP3    H114369  -0.178   4.379   3.964
 4828TIP3    H214370  -0.312   4.345   4.025
 4829TIP3   OH214371  -0.180   4.895   3.874
 4829TIP3    H114372  -0.088   4.881   3.847
 4829TIP3    H214373  -0.189   4.990   3.859
 4830TIP3   OH214374   0.402   4.843   4.302
 4830TIP3    H114375   0.452   4.760   4.313
 4830TIP3    H214376   0.470   4.903   4.268
 4831TIP3   OH214377   0.443   5.096   4.039
 4831TIP3    H114378   0.384   5.150   3.981
 4831TIP3    H214379   0.530   5.117   3.999
 4832TIP3   OH214380  -0.075   4.104   4.117
 4832TIP3    H114381  -0.127   4.183   4.091
 4832TIP3    H214382  -0.144   4.034   4.111
 4833TIP3   OH214383   0.056   4.609   4.338
 4833TIP3    H114384   0.041   4.600   4.434
 4833TIP3    H214385  -0.032   4.580   4.305
 4834TIP3   OH214386   0.289   4.556   4.187
 4834TIP3    H114387   0.214   4.561   4.250
 4834TIP3    H214388   0.362   4.527   4.245
 4835TIP3   OH214389   0.522   4.500   4.338
 4835TIP3    H114390   0.532   4.404   4.356
 4835TIP3    H214391   0.515   4.539   4.428
 4836TIP3   OH214392   0.020   4.113   4.375
 4836TIP3    H114393   0.086   4.042   4.367
 4836TIP3    H214394  -0.021   4.109   4.286
 4837TIP3   OH214395   0.088   4.329   4.533
 4837TIP3    H114396   0.063   4.260   4.469
 4837TIP3    H214397   0.011   4.390   4.530
 4838TIP3   OH214398   0.565   5.801   3.249
 4838TIP3    H114399   0.589   5.834   3.338
 4838TIP3    H214400   0.625   5.850   3.192
 4839TIP3   OH214401   0.593   5.822   3.530
 4839TIP3    H114402   0.548   5.735   3.527
 4839TIP3    H214403   0.666   5.800   3.591
 4840TIP3   OH214404   0.640   5.500   4.105
 4840TIP3    H114405   0.567   5.509   4.169
 4840TIP3    H214406   0.681   5.589   4.109
 4841TIP3   OH214407   0.456   5.013   2.724
 4841TIP3    H114408   0.524   5.078   2.696
 4841TIP3    H214409   0.499   4.974   2.803
 4842TIP3   OH214410   0.584   4.880   2.928
 4842TIP3    H114411   0.517   4.838   2.986
 4842TIP3    H214412   0.646   4.919   2.993
 4843TIP3   OH214413   0.639   5.274   3.362
 4843TIP3    H114414   0.690   5.208   3.311
 4843TIP3    H214415   0.630   5.347   3.298
 4844TIP3   OH214416   0.468   5.573   3.555
 4844TIP3    H114417   0.397   5.615   3.607
 4844TIP3    H214418   0.417   5.526   3.485
 4845TIP3   OH214419   0.521   4.789   2.574
 4845TIP3    H114420   0.450   4.790   2.507
 4845TIP3    H214421   0.493   4.865   2.629
 4846TIP3   OH214422   0.393   4.461   2.529
 4846TIP3    H114423   0.348   4.496   2.451
 4846TIP3    H214424   0.370   4.366   2.523
 4847TIP3   OH214425   0.398   4.738   3.073
 4847TIP3    H114426   0.403   4.641   3.066
 4847TIP3    H214427   0.383   4.751   3.170
 4848TIP3   OH214428   0.686   5.162   3.932
 4848TIP3    H114429   0.759   5.097   3.921
 4848TIP3    H214430   0.711   5.232   3.869
 4849TIP3   OH214431   0.872   4.967   3.943
 4849TIP3    H114432   0.797   4.918   3.984
 4849TIP3    H214433   0.944   4.903   3.960
 4850TIP3   OH214434   0.338   4.196   2.515
 4850TIP3    H114435   0.411   4.165   2.572
 4850TIP3    H214436   0.264   4.137   2.539
 4851TIP3   OH214437   0.395   4.454   2.969
 4851TIP3    H114438   0.435   4.364   2.983
 4851TIP3    H214439   0.451   4.486   2.896
 4852TIP3   OH214440   0.554   4.624   3.465
 4852TIP3    H114441   0.640   4.651   3.424
 4852TIP3    H214442   0.567   4.664   3.553
 4853TIP3   OH214443   0.623   4.772   3.695
 4853TIP3    H114444   0.546   4.805   3.744
 4853TIP3    H214445   0.656   4.853   3.651
 4854TIP3   OH214446   1.077   4.363   4.252
 4854TIP3    H114447   1.135   4.298   4.209
 4854TIP3    H214448   1.046   4.417   4.176
 4855TIP3   OH214449   0.506   4.203   3.006
 4855TIP3    H114450   0.546   4.182   3.092
 4855TIP3    H214451   0.444   4.127   2.996
 4856TIP3   OH214452   0.946   4.501   4.058
 4856TIP3    H114453   0.860   4.543   4.079
 4856TIP3    H214454   0.915   4.430   3.999
 4857TIP3   OH214455   0.587   4.144   2.633
 4857TIP3    H114456   0.619   4.063   2.590
 4857TIP3    H214457   0.660   4.206   2.622
 4858TIP3   OH214458   0.148   5.670   2.908
 4858TIP3    H114459   0.199   5.658   2.825
 4858TIP3    H214460   0.201   5.737   2.954
 4859TIP3   OH214461  -0.092   5.722   3.987
 4859TIP3    H114462  -0.086   5.762   4.076
 4859TIP3    H214463  -0.052   5.792   3.932
 4860TIP3   OH214464   0.048   5.912   3.835
 4860TIP3    H114465   0.112   5.851   3.795
 4860TIP3    H214466   0.104   5.962   3.897
 4861TIP3   OH214467   0.845   4.264   3.936
 4861TIP3    H114468   0.754   4.257   3.901
 4861TIP3    H214469   0.877   4.172   3.924
 4862TIP3   OH214470  -0.228   5.796   3.484
 4862TIP3    H114471  -0.325   5.805   3.481
 4862TIP3    H214472  -0.205   5.875   3.537
 4863TIP3   OH214473   0.033   5.717   3.571
 4863TIP3    H114474  -0.057   5.731   3.534
 4863TIP3    H214475   0.083   5.787   3.527
 4864TIP3   OH214476   0.240   5.900   3.485
 4864TIP3    H114477   0.230   5.986   3.439
 4864TIP3    H214478   0.267   5.841   3.412
 4865TIP3   OH214479   0.055   4.181   3.563
 4865TIP3    H114480   0.009   4.109   3.609
 4865TIP3    H214481   0.122   4.133   3.511
 4866TIP3   OH214482   0.569   4.047   3.451
 4866TIP3    H114483   0.607   4.105   3.382
 4866TIP3    H214484   0.476   4.076   3.452
 4867TIP3   OH214485   0.674   4.156   3.225
 4867TIP3    H114486   0.759   4.117   3.202
 4867TIP3    H214487   0.695   4.251   3.209
 4868TIP3   OH214488  -0.247   3.923   3.450
 4868TIP3    H114489  -0.191   3.974   3.389
 4868TIP3    H214490  -0.224   3.960   3.535
 4869TIP3   OH214491   0.289   4.068   3.435
 4869TIP3    H114492   0.281   4.032   3.345
 4869TIP3    H214493   0.274   3.987   3.490
 4870TIP3   OH214494   0.328   3.992   3.010
 4870TIP3    H114495   0.238   4.026   3.004
 4870TIP3    H214496   0.313   3.904   3.051
 4871TIP3   OH214497  -0.271   4.093   3.082
 4871TIP3    H114498  -0.210   4.052   3.146
 4871TIP3    H214499  -0.253   4.188   3.102
 4872TIP3   OH214500  -0.417   5.526   2.610
 4872TIP3    H114501  -0.329   5.525   2.567
 4872TIP3    H214502  -0.470   5.488   2.536
 4873TIP3   OH214503   0.293   5.637   2.675
 4873TIP3    H114504   0.286   5.539   2.662
 4873TIP3    H214505   0.247   5.669   2.594
 4874TIP3   OH214506  -0.251   4.131   4.555
 4874TIP3    H114507  -0.163   4.130   4.514
 4874TIP3    H214508  -0.231   4.100   4.644
 4875TIP3   OH214509   0.581   4.228   4.368
 4875TIP3    H114510   0.600   4.198   4.460
 4875TIP3    H214511   0.670   4.224   4.327
 4876TIP3   OH214512   0.520   5.781   3.860
 4876TIP3    H114513   0.441   5.748   3.812
 4876TIP3    H214514   0.499   5.876   3.865
 4877TIP3   OH214515   1.785   5.155   2.628
 4877TIP3    H114516   1.754   5.245   2.604
 4877TIP3    H214517   1.712   5.102   2.593
 4878TIP3   OH214518   1.785   5.158   3.013
 4878TIP3    H114519   1.816   5.120   3.096
 4878TIP3    H214520   1.745   5.080   2.970
 4879TIP3   OH214521   1.084   5.046   3.372
 4879TIP3    H114522   1.114   4.978   3.435
 4879TIP3    H214523   1.161   5.105   3.371
 4880TIP3   OH214524   2.023   5.456   2.692
 4880TIP3    H114525   2.019   5.381   2.754
 4880TIP3    H214526   2.067   5.525   2.745
 4881TIP3   OH214527   1.056   5.459   3.097
 4881TIP3    H114528   1.046   5.362   3.100
 4881TIP3    H214529   1.153   5.466   3.093
 4882TIP3   OH214530   0.761   4.659   2.884
 4882TIP3    H114531   0.712   4.742   2.899
 4882TIP3    H214532   0.692   4.607   2.839
 4883TIP3   OH214533   0.823   4.949   3.057
 4883TIP3    H114534   0.871   4.871   3.092
 4883TIP3    H214535   0.878   4.975   2.982
 4884TIP3   OH214536   1.679   5.923   2.703
 4884TIP3    H114537   1.720   5.849   2.654
 4884TIP3    H214538   1.650   5.881   2.785
 4885TIP3   OH214539   1.583   5.381   3.053
 4885TIP3    H114540   1.610   5.299   3.008
 4885TIP3    H214541   1.672   5.412   3.082
 4886TIP3   OH214542   2.596   4.699   3.054
 4886TIP3    H114543   2.627   4.782   3.096
 4886TIP3    H214544   2.620   4.715   2.961
 4887TIP3   OH214545   1.996   4.883   3.088
 4887TIP3    H114546   2.038   4.797   3.110
 4887TIP3    H214547   1.964   4.865   2.998
 4888TIP3   OH214548   1.334   4.540   3.054
 4888TIP3    H114549   1.314   4.612   2.991
 4888TIP3    H214550   1.287   4.466   3.010
 4889TIP3   OH214551   2.028   4.633   2.676
 4889TIP3    H114552   2.100   4.616   2.741
 4889TIP3    H214553   2.081   4.666   2.601
 4890TIP3   OH214554   0.967   4.741   3.161
 4890TIP3    H114555   1.050   4.721   3.209
 4890TIP3    H214556   0.980   4.686   3.081
 4891TIP3   OH214557   1.408   4.940   2.955
 4891TIP3    H114558   1.502   4.913   2.968
 4891TIP3    H214559   1.369   4.856   2.923
 4892TIP3   OH214560   2.672   4.908   3.223
 4892TIP3    H114561   2.587   4.953   3.205
 4892TIP3    H214562   2.683   4.929   3.317
 4893TIP3   OH214563   1.331   4.523   3.489
 4893TIP3    H114564   1.270   4.559   3.421
 4893TIP3    H214565   1.278   4.540   3.570
 4894TIP3   OH214566   1.674   5.374   2.499
 4894TIP3    H114567   1.635   5.354   2.412
 4894TIP3    H214568   1.629   5.458   2.521
 4895TIP3   OH214569   1.439   5.300   3.281
 4895TIP3    H114570   1.373   5.362   3.322
 4895TIP3    H214571   1.472   5.352   3.206
 4896TIP3   OH214572   2.237   4.635   2.848
 4896TIP3    H114573   2.230   4.582   2.929
 4896TIP3    H214574   2.291   4.710   2.877
 4897TIP3   OH214575   1.202   4.638   3.273
 4897TIP3    H114576   1.264   4.710   3.296
 4897TIP3    H214577   1.250   4.597   3.197
 4898TIP3   OH214578   1.267   5.492   3.381
 4898TIP3    H114579   1.238   5.578   3.344
 4898TIP3    H214580   1.189   5.474   3.438
 4899TIP3   OH214581   0.660   5.183   2.617
 4899TIP3    H114582   0.617   5.209   2.533
 4899TIP3    H214583   0.689   5.269   2.652
 4900TIP3   OH214584   2.097   5.694   2.854
 4900TIP3    H114585   2.020   5.700   2.912
 4900TIP3    H214586   2.094   5.779   2.805
 4901TIP3   OH214587   2.390   4.601   3.221
 4901TIP3    H114588   2.302   4.627   3.189
 4901TIP3    H214589   2.449   4.631   3.149
 4902TIP3   OH214590   1.685   4.240   3.202
 4902TIP3    H114591   1.673   4.145   3.221
 4902TIP3    H214592   1.608   4.278   3.249
 4903TIP3   OH214593   1.804   5.744   2.540
 4903TIP3    H114594   1.850   5.661   2.513
 4903TIP3    H214595   1.863   5.808   2.495
 4904TIP3   OH214596   1.940   5.529   2.439
 4904TIP3    H114597   1.910   5.450   2.393
 4904TIP3    H214598   1.974   5.492   2.523
 4905TIP3   OH214599   2.313   5.615   3.203
 4905TIP3    H114600   2.311   5.536   3.145
 4905TIP3    H214601   2.304   5.688   3.139
 4906TIP3   OH214602   1.618   5.007   2.460
 4906TIP3    H114603   1.537   5.057   2.438
 4906TIP3    H214604   1.662   5.001   2.373
 4907TIP3   OH214605   1.575   4.790   2.175
 4907TIP3    H114606   1.644   4.841   2.221
 4907TIP3    H214607   1.631   4.725   2.127
 4908TIP3   OH214608   2.519   5.249   3.047
 4908TIP3    H114609   2.436   5.301   3.052
 4908TIP3    H214610   2.548   5.272   2.956
 4909TIP3   OH214611   1.963   5.089   2.430
 4909TIP3    H114612   1.909   5.112   2.509
 4909TIP3    H214613   2.047   5.061   2.474
 4910TIP3   OH214614   2.199   5.124   3.342
 4910TIP3    H114615   2.197   5.207   3.393
 4910TIP3    H214616   2.113   5.129   3.298
 4911TIP3   OH214617   1.196   5.085   2.847
 4911TIP3    H114618   1.152   5.027   2.780
 4911TIP3    H214619   1.272   5.030   2.875
 4912TIP3   OH214620   1.327   5.499   2.992
 4912TIP3    H114621   1.299   5.460   2.908
 4912TIP3    H214622   1.415   5.458   3.006
 4913TIP3   OH214623   1.337   5.053   3.202
 4913TIP3    H114624   1.365   5.032   3.111
 4913TIP3    H214625   1.376   5.142   3.218
 4914TIP3   OH214626   1.868   5.705   3.060
 4914TIP3    H114627   1.821   5.751   2.988
 4914TIP3    H214628   1.851   5.609   3.043
 4915TIP3   OH214629   1.483   5.620   3.504
 4915TIP3    H114630   1.428   5.677   3.562
 4915TIP3    H214631   1.412   5.565   3.465
 4916TIP3   OH214632   1.804   4.945   2.256
 4916TIP3    H114633   1.863   5.005   2.307
 4916TIP3    H214634   1.830   4.968   2.163
 4917TIP3   OH214635   1.225   5.170   3.625
 4917TIP3    H114636   1.229   5.256   3.671
 4917TIP3    H214637   1.130   5.148   3.638
 4918TIP3   OH214638   1.548   5.627   2.537
 4918TIP3    H114639   1.628   5.683   2.542
 4918TIP3    H214640   1.486   5.681   2.487
 4919TIP3   OH214641   1.268   5.775   3.611
 4919TIP3    H114642   1.229   5.776   3.522
 4919TIP3    H214643   1.190   5.756   3.667
 4920TIP3   OH214644   2.321   4.186   2.305
 4920TIP3    H114645   2.238   4.205   2.355
 4920TIP3    H214646   2.332   4.269   2.255
 4921TIP3   OH214647   1.061   4.929   2.654
 4921TIP3    H114648   0.995   4.973   2.597
 4921TIP3    H214649   1.023   4.840   2.662
 4922TIP3   OH214650   2.119   5.553   1.854
 4922TIP3    H114651   2.126   5.650   1.838
 4922TIP3    H214652   2.211   5.524   1.841
 4923TIP3   OH214653   0.844   5.312   3.558
 4923TIP3    H114654   0.776   5.291   3.491
 4923TIP3    H214655   0.880   5.223   3.581
 4924TIP3   OH214656   0.697   5.505   3.190
 4924TIP3    H114657   0.793   5.502   3.184
 4924TIP3    H214658   0.683   5.584   3.244
 4925TIP3   OH214659   2.569   5.952   3.243
 4925TIP3    H114660   2.566   5.857   3.264
 4925TIP3    H214661   2.486   5.982   3.287
 4926TIP3   OH214662   1.678   5.763   3.358
 4926TIP3    H114663   1.672   5.845   3.414
 4926TIP3    H214664   1.615   5.707   3.411
 4927TIP3   OH214665   1.431   5.869   2.335
 4927TIP3    H114666   1.385   5.850   2.251
 4927TIP3    H214667   1.397   5.958   2.358
 4928TIP3   OH214668   0.867   5.719   2.717
 4928TIP3    H114669   0.912   5.710   2.804
 4928TIP3    H214670   0.810   5.640   2.718
 4929TIP3   OH214671   1.630   5.772   1.975
 4929TIP3    H114672   1.689   5.703   1.937
 4929TIP3    H214673   1.666   5.781   2.065
 4930TIP3   OH214674   1.682   5.821   2.244
 4930TIP3    H114675   1.592   5.831   2.284
 4930TIP3    H214676   1.730   5.777   2.315
 4931TIP3   OH214677   2.452   5.086   3.521
 4931TIP3    H114678   2.369   5.096   3.472
 4931TIP3    H214679   2.469   4.990   3.512
 4932TIP3   OH214680   1.050   5.493   3.545
 4932TIP3    H114681   1.097   5.479   3.630
 4932TIP3    H214682   0.974   5.430   3.554
 4933TIP3   OH214683   1.448   4.319   3.332
 4933TIP3    H114684   1.359   4.287   3.306
 4933TIP3    H214685   1.422   4.400   3.380
 4934TIP3   OH214686   1.981   4.434   3.526
 4934TIP3    H114687   2.050   4.405   3.589
 4934TIP3    H214688   1.898   4.412   3.573
 4935TIP3   OH214689   2.221   4.862   3.445
 4935TIP3    H114690   2.171   4.858   3.530
 4935TIP3    H214691   2.196   4.949   3.410
 4936TIP3   OH214692   1.882   4.992   2.001
 4936TIP3    H114693   1.846   4.966   1.914
 4936TIP3    H214694   1.963   5.038   1.975
 4937TIP3   OH214695   1.593   4.366   2.303
 4937TIP3    H114696   1.558   4.363   2.394
 4937TIP3    H214697   1.554   4.284   2.268
 4938TIP3   OH214698   1.381   4.832   3.352
 4938TIP3    H114699   1.328   4.853   3.433
 4938TIP3    H214700   1.364   4.913   3.298
 4939TIP3   OH214701   1.263   4.721   2.864
 4939TIP3    H114702   1.170   4.695   2.882
 4939TIP3    H214703   1.276   4.680   2.776
 4940TIP3   OH214704   1.755   4.807   2.594
 4940TIP3    H114705   1.702   4.877   2.549
 4940TIP3    H214706   1.809   4.773   2.519
 4941TIP3   OH214707   1.928   5.083   3.677
 4941TIP3    H114708   1.906   5.010   3.739
 4941TIP3    H214709   2.021   5.098   3.700
 4942TIP3   OH214710   1.912   4.835   2.829
 4942TIP3    H114711   1.849   4.860   2.757
 4942TIP3    H214712   1.947   4.753   2.788
 4943TIP3   OH214713   1.199   4.862   3.559
 4943TIP3    H114714   1.222   4.925   3.628
 4943TIP3    H214715   1.187   4.779   3.610
 4944TIP3   OH214716   1.249   4.342   2.269
 4944TIP3    H114717   1.239   4.338   2.366
 4944TIP3    H214718   1.170   4.392   2.243
 4945TIP3   OH214719   0.792   4.382   3.144
 4945TIP3    H114720   0.866   4.418   3.198
 4945TIP3    H214721   0.832   4.369   3.057
 4946TIP3   OH214722   0.773   4.370   2.669
 4946TIP3    H114723   0.812   4.406   2.587
 4946TIP3    H214724   0.704   4.437   2.685
 4947TIP3   OH214725   1.922   5.082   3.254
 4947TIP3    H114726   1.955   5.010   3.195
 4947TIP3    H214727   1.893   5.028   3.331
 4948TIP3   OH214728   1.593   4.546   2.926
 4948TIP3    H114729   1.511   4.541   2.979
 4948TIP3    H214730   1.661   4.536   2.994
 4949TIP3   OH214731   1.024   4.598   2.933
 4949TIP3    H114732   0.930   4.605   2.904
 4949TIP3    H214733   1.049   4.508   2.906
 4950TIP3   OH214734   1.293   4.595   2.623
 4950TIP3    H114735   1.387   4.608   2.600
 4950TIP3    H214736   1.245   4.616   2.539
 4951TIP3   OH214737   2.082   4.620   3.129
 4951TIP3    H114738   2.047   4.630   3.220
 4951TIP3    H214739   2.018   4.557   3.092
 4952TIP3   OH214740   1.137   4.629   2.401
 4952TIP3    H114741   1.066   4.582   2.352
 4952TIP3    H214742   1.188   4.664   2.325
 4953TIP3   OH214743   2.253   6.305   3.345
 4953TIP3    H114744   2.252   6.333   3.252
 4953TIP3    H214745   2.331   6.354   3.379
 4954TIP3   OH214746   1.212   5.416   3.768
 4954TIP3    H114747   1.290   5.446   3.818
 4954TIP3    H214748   1.145   5.415   3.840
 4955TIP3   OH214749   1.674   4.873   3.025
 4955TIP3    H114750   1.743   4.829   2.974
 4955TIP3    H214751   1.680   4.826   3.111
 4956TIP3   OH214752   1.197   4.360   2.899
 4956TIP3    H114753   1.170   4.279   2.949
 4956TIP3    H214754   1.246   4.323   2.825
 4957TIP3   OH214755   1.650   4.769   3.309
 4957TIP3    H114756   1.559   4.801   3.326
 4957TIP3    H214757   1.706   4.827   3.363
 4958TIP3   OH214758   1.386   5.158   2.408
 4958TIP3    H114759   1.315   5.092   2.397
 4958TIP3    H214760   1.367   5.191   2.500
 4959TIP3   OH214761   2.286   5.397   3.037
 4959TIP3    H114762   2.312   5.443   2.954
 4959TIP3    H214763   2.203   5.351   3.010
 4960TIP3   OH214764   1.845   4.468   2.273
 4960TIP3    H114765   1.748   4.449   2.280
 4960TIP3    H214766   1.851   4.563   2.296
 4961TIP3   OH214767   1.816   5.496   3.412
 4961TIP3    H114768   1.836   5.442   3.490
 4961TIP3    H214769   1.742   5.549   3.444
 4962TIP3   OH214770   1.913   4.718   2.376
 4962TIP3    H114771   2.010   4.723   2.389
 4962TIP3    H214772   1.894   4.797   2.321
 4963TIP3   OH214773   1.084   5.183   3.084
 4963TIP3    H114774   1.118   5.151   2.998
 4963TIP3    H214775   1.115   5.116   3.146
 4964TIP3   OH214776   1.533   5.308   2.232
 4964TIP3    H114777   1.485   5.394   2.236
 4964TIP3    H214778   1.477   5.252   2.291
 4965TIP3   OH214779   0.962   5.098   3.695
 4965TIP3    H114780   0.979   5.085   3.791
 4965TIP3    H214781   0.890   5.033   3.679
 4966TIP3   OH214782   1.686   5.215   3.716
 4966TIP3    H114783   1.626   5.154   3.670
 4966TIP3    H214784   1.773   5.179   3.689
 4967TIP3   OH214785   2.357   4.808   2.209
 4967TIP3    H114786   2.294   4.763   2.147
 4967TIP3    H214787   2.353   4.897   2.168
 4968TIP3   OH214788   2.570   5.663   3.290
 4968TIP3    H114789   2.472   5.659   3.284
 4968TIP3    H214790   2.595   5.634   3.200
 4969TIP3   OH214791   2.061   5.625   2.119
 4969TIP3    H114792   2.030   5.554   2.177
 4969TIP3    H214793   2.070   5.582   2.033
 4970TIP3   OH214794   2.050   5.257   2.954
 4970TIP3    H114795   1.958   5.227   2.968
 4970TIP3    H214796   2.088   5.178   2.912
 4971TIP3   OH214797   1.181   5.485   2.712
 4971TIP3    H114798   1.179   5.565   2.656
 4971TIP3    H214799   1.086   5.465   2.718
 4972TIP3   OH214800   0.745   4.787   2.413
 4972TIP3    H114801   0.789   4.871   2.434
 4972TIP3    H214802   0.667   4.791   2.473
 4973TIP3   OH214803   1.319   5.250   2.655
 4973TIP3    H114804   1.283   5.339   2.672
 4973TIP3    H214805   1.280   5.198   2.727
 4974TIP3   OH214806   1.446   5.828   3.172
 4974TIP3    H114807   1.481   5.906   3.123
 4974TIP3    H214808   1.516   5.812   3.237
 4975TIP3   OH214809   1.101   5.721   2.562
 4975TIP3    H114810   1.014   5.730   2.607
 4975TIP3    H214811   1.132   5.814   2.564
 4976TIP3   OH214812   1.838   5.448   3.140
 4976TIP3    H114813   1.835   5.446   3.238
 4976TIP3    H214814   1.913   5.389   3.121
 4977TIP3   OH214815   1.814   5.354   2.019
 4977TIP3    H114816   1.864   5.329   2.099
 4977TIP3    H214817   1.724   5.326   2.045
 4978TIP3   OH214818   2.151   5.828   1.837
 4978TIP3    H114819   2.182   5.899   1.779
 4978TIP3    H214820   2.071   5.873   1.874
 4979TIP3   OH214821   1.170   4.606   3.704
 4979TIP3    H114822   1.074   4.609   3.717
 4979TIP3    H214823   1.198   4.546   3.775
 4980TIP3   OH214824   1.973   5.292   2.239
 4980TIP3    H114825   1.962   5.222   2.307
 4980TIP3    H214826   2.069   5.287   2.224
 4981TIP3   OH214827   0.890   5.689   3.335
 4981TIP3    H114828   0.941   5.615   3.371
 4981TIP3    H214829   0.911   5.759   3.398
 4982TIP3   OH214830   1.179   5.333   2.019
 4982TIP3    H114831   1.191   5.241   1.990
 4982TIP3    H214832   1.157   5.322   2.113
 4983TIP3   OH214833   1.123   5.339   2.291
 4983TIP3    H114834   1.196   5.313   2.348
 4983TIP3    H214835   1.126   5.437   2.298
 4984TIP3   OH214836   0.859   5.033   2.495
 4984TIP3    H114837   0.792   5.077   2.551
 4984TIP3    H214838   0.872   5.102   2.426
 4985TIP3   OH214839   2.006   4.672   3.389
 4985TIP3    H114840   2.088   4.707   3.426
 4985TIP3    H214841   1.993   4.590   3.441
 4986TIP3   OH214842   1.886   4.421   2.553
 4986TIP3    H114843   1.873   4.442   2.458
 4986TIP3    H214844   1.926   4.504   2.587
 4987TIP3   OH214845   1.391   5.539   2.243
 4987TIP3    H114846   1.303   5.564   2.275
 4987TIP3    H214847   1.405   5.607   2.175
 4988TIP3   OH214848   1.577   4.602   2.654
 4988TIP3    H114849   1.642   4.673   2.637
 4988TIP3    H214850   1.582   4.594   2.752
 4989TIP3   OH214851   1.847   4.920   3.459
 4989TIP3    H114852   1.869   4.970   3.540
 4989TIP3    H214853   1.900   4.839   3.470
 4990TIP3   OH214854   1.720   4.327   2.755
 4990TIP3    H114855   1.715   4.404   2.814
 4990TIP3    H214856   1.781   4.360   2.686
 4991TIP3   OH214857   1.134   5.612   2.308
 4991TIP3    H114858   1.104   5.681   2.244
 4991TIP3    H214859   1.117   5.656   2.394
 4992TIP3   OH214860   1.232   4.325   2.546
 4992TIP3    H114861   1.231   4.416   2.581
 4992TIP3    H214862   1.328   4.307   2.552
 4993TIP3   OH214863   2.487   4.819   3.439
 4993TIP3    H114864   2.390   4.819   3.449
 4993TIP3    H214865   2.495   4.771   3.356
 4994TIP3   OH214866   2.137   5.016   2.832
 4994TIP3    H114867   2.062   4.955   2.841
 4994TIP3    H214868   2.209   4.967   2.878
 4995TIP3   OH214869   0.850   5.241   2.300
 4995TIP3    H114870   0.917   5.311   2.307
 4995TIP3    H214871   0.895   5.185   2.232
 4996TIP3   OH214872   0.793   4.516   2.438
 4996TIP3    H114873   0.792   4.613   2.432
 4996TIP3    H214874   0.714   4.492   2.387
 4997TIP3   OH214875   2.107   5.965   2.780
 4997TIP3    H114876   2.063   6.015   2.707
 4997TIP3    H214877   2.201   5.988   2.759
 4998TIP3   OH214878   1.183   4.239   3.310
 4998TIP3    H114879   1.155   4.205   3.223
 4998TIP3    H214880   1.173   4.160   3.367
 4999TIP3   OH214881   0.722   5.457   2.686
 4999TIP3    H114882   0.653   5.486   2.747
 4999TIP3    H214883   0.691   5.498   2.602
 5000TIP3   OH214884   0.880   6.000   3.757
 5000TIP3    H114885   0.965   6.000   3.806
 5000TIP3    H214886   0.858   5.905   3.758
 5001TIP3   OH214887   1.357   5.965   3.799
 5001TIP3    H114888   1.451   5.944   3.815
 5001TIP3    H214889   1.336   5.901   3.728
 5002TIP3   OH214890   1.342   5.538   1.932
 5002TIP3    H114891   1.285   5.465   1.968
 5002TIP3    H214892   1.416   5.486   1.896
 5003TIP3   OH214893   1.777   5.578   1.844
 5003TIP3    H114894   1.821   5.512   1.900
 5003TIP3    H214895   1.832   5.578   1.763
 5004TIP3   OH214896   1.009   5.404   3.957
 5004TIP3    H114897   1.024   5.308   3.964
 5004TIP3    H214898   0.921   5.408   3.914
 5005TIP3   OH214899   0.986   5.055   2.152
 5005TIP3    H114900   1.041   5.021   2.225
 5005TIP3    H214901   1.053   5.059   2.080
 5006TIP3   OH214902   1.617   5.489   3.729
 5006TIP3    H114903   1.570   5.499   3.645
 5006TIP3    H214904   1.648   5.396   3.726
 5007TIP3   OH214905   1.500   5.255   1.961
 5007TIP3    H114906   1.499   5.266   2.058
 5007TIP3    H214907   1.499   5.156   1.955
 5008TIP3   OH214908   2.113   5.467   3.336
 5008TIP3    H114909   2.177   5.529   3.297
 5008TIP3    H214910   2.032   5.518   3.344
 5009TIP3   OH214911   1.129   5.139   3.941
 5009TIP3    H114912   1.204   5.082   3.921
 5009TIP3    H214913   1.154   5.173   4.030
 5010TIP3   OH214914   1.196   4.959   2.375
 5010TIP3    H114915   1.166   4.915   2.456
 5010TIP3    H214916   1.231   4.884   2.323
 5011TIP3   OH214917   1.464   5.025   3.604
 5011TIP3    H114918   1.384   5.083   3.606
 5011TIP3    H214919   1.513   5.061   3.527
 5012TIP3   OH214920   1.295   4.754   2.215
 5012TIP3    H114921   1.268   4.757   2.120
 5012TIP3    H214922   1.392   4.757   2.206
 5013TIP3   OH214923   1.980   5.424   3.730
 5013TIP3    H114924   2.071   5.406   3.701
 5013TIP3    H214925   1.972   5.362   3.805
 5014TIP3   OH214926   2.117   5.083   1.878
 5014TIP3    H114927   2.095   5.037   1.795
 5014TIP3    H214928   2.084   5.173   1.855
 5015TIP3   OH214929   1.586   4.812   3.728
 5015TIP3    H114930   1.586   4.732   3.671
 5015TIP3    H214931   1.542   4.878   3.671
 5016TIP3   OH214932   1.589   4.599   3.535
 5016TIP3    H114933   1.616   4.637   3.450
 5016TIP3    H214934   1.495   4.575   3.518
 5017TIP3   OH214935   1.616   5.139   3.413
 5017TIP3    H114936   1.694   5.131   3.356
 5017TIP3    H214937   1.559   5.200   3.363
 5018TIP3   OH214938   2.197   5.100   3.789
 5018TIP3    H114939   2.244   5.016   3.802
 5018TIP3    H214940   2.267   5.157   3.756
 5019TIP3   OH214941   2.249   5.345   3.532
 5019TIP3    H114942   2.190   5.394   3.471
 5019TIP3    H214943   2.336   5.366   3.491
 5020TIP3   OH214944   1.464   4.922   3.959
 5020TIP3    H114945   1.396   4.854   3.974
 5020TIP3    H214946   1.499   4.895   3.871
 5021TIP3   OH214947   1.721   4.362   3.604
 5021TIP3    H114948   1.671   4.443   3.581
 5021TIP3    H214949   1.652   4.293   3.592
 5022TIP3   OH214950   1.847   4.866   3.819
 5022TIP3    H114951   1.835   4.853   3.915
 5022TIP3    H214952   1.757   4.841   3.789
 5023TIP3   OH214953   2.086   4.815   3.674
 5023TIP3    H114954   2.011   4.816   3.737
 5023TIP3    H214955   2.160   4.784   3.731
 5024TIP3   OH214956   2.316   4.756   3.824
 5024TIP3    H114957   2.328   4.660   3.842
 5024TIP3    H214958   2.311   4.794   3.914
 5025TIP3   OH214959   1.303   4.702   4.013
 5025TIP3    H114960   1.309   4.611   3.979
 5025TIP3    H214961   1.340   4.691   4.103
 5026TIP3   OH214962   1.815   4.371   3.862
 5026TIP3    H114963   1.882   4.300   3.856
 5026TIP3    H214964   1.775   4.365   3.772
 5027TIP3   OH214965   1.881   4.586   4.020
 5027TIP3    H114966   1.859   4.515   3.956
 5027TIP3    H214967   1.803   4.644   4.013
 5028TIP3   OH214968   1.103   5.813   2.121
 5028TIP3    H114969   1.198   5.809   2.101
 5028TIP3    H214970   1.072   5.863   2.043
 5029TIP3   OH214971   0.582   5.196   2.336
 5029TIP3    H114972   0.676   5.218   2.322
 5029TIP3    H214973   0.576   5.108   2.294
 5030TIP3   OH214974   0.498   5.808   2.749
 5030TIP3    H114975   0.430   5.747   2.713
 5030TIP3    H214976   0.541   5.750   2.815
 5031TIP3   OH214977   0.633   5.659   2.936
 5031TIP3    H114978   0.619   5.586   3.000
 5031TIP3    H214979   0.683   5.721   2.992
 5032TIP3   OH214980   2.360   6.058   2.738
 5032TIP3    H114981   2.388   6.098   2.822
 5032TIP3    H214982   2.418   6.103   2.675
 5033TIP3   OH214983   2.391   6.082   3.019
 5033TIP3    H114984   2.357   5.991   3.012
 5033TIP3    H214985   2.466   6.067   3.079
 5034TIP3   OH214986   2.431   5.759   3.587
 5034TIP3    H114987   2.362   5.767   3.656
 5034TIP3    H214988   2.476   5.845   3.594
 5035TIP3   OH214989   2.251   5.270   2.212
 5035TIP3    H114990   2.319   5.334   2.182
 5035TIP3    H214991   2.295   5.231   2.290
 5036TIP3   OH214992   2.379   5.138   2.416
 5036TIP3    H114993   2.313   5.094   2.474
 5036TIP3    H214994   2.443   5.174   2.480
 5037TIP3   OH214995   2.430   5.529   2.844
 5037TIP3    H114996   2.486   5.463   2.799
 5037TIP3    H214997   2.432   5.604   2.780
 5038TIP3   OH214998   2.259   5.831   3.034
 5038TIP3    H114999   2.183   5.890   3.042
 5038TIP3    H215000   2.231   5.775   2.958
 5039TIP3   OH215001   2.317   5.046   2.061
 5039TIP3    H115002   2.246   5.047   1.994
 5039TIP3    H215003   2.289   5.122   2.116
 5040TIP3   OH215004   2.189   4.719   2.015
 5040TIP3    H115005   2.144   4.754   1.938
 5040TIP3    H215006   2.164   4.624   2.008
 5041TIP3   OH215007   2.193   4.994   2.561
 5041TIP3    H115008   2.200   4.897   2.553
 5041TIP3    H215009   2.179   5.006   2.658
 5042TIP3   OH215010   0.819   5.066   3.309
 5042TIP3    H115011   0.816   5.035   3.216
 5042TIP3    H215012   0.916   5.067   3.324
 5043TIP3   OH215013   2.485   5.419   3.416
 5043TIP3    H115014   2.556   5.352   3.408
 5043TIP3    H215015   2.517   5.490   3.358
 5044TIP3   OH215016   2.667   5.224   3.432
 5044TIP3    H115017   2.593   5.173   3.471
 5044TIP3    H215018   2.741   5.160   3.448
 5045TIP3   OH215019   2.131   4.453   2.002
 5045TIP3    H115020   2.204   4.420   2.057
 5045TIP3    H215021   2.057   4.394   2.023
 5046TIP3   OH215022   2.190   4.711   2.456
 5046TIP3    H115023   2.230   4.622   2.472
 5046TIP3    H215024   2.248   4.742   2.384
 5047TIP3   OH215025   2.350   4.885   2.950
 5047TIP3    H115026   2.436   4.910   2.910
 5047TIP3    H215027   2.365   4.920   3.040
 5048TIP3   OH215028   2.421   5.028   3.182
 5048TIP3    H115029   2.344   5.061   3.232
 5048TIP3    H215030   2.453   5.109   3.138
 5049TIP3   OH215031   1.036   4.753   3.982
 5049TIP3    H115032   1.134   4.747   3.985
 5049TIP3    H215033   1.013   4.668   4.023
 5050TIP3   OH215034   2.871   4.620   3.738
 5050TIP3    H115035   2.931   4.554   3.696
 5050TIP3    H215036   2.843   4.674   3.661
 5051TIP3   OH215037   2.297   4.461   2.494
 5051TIP3    H115038   2.345   4.443   2.578
 5051TIP3    H215039   2.237   4.384   2.492
 5052TIP3   OH215040   0.999   4.447   3.313
 5052TIP3    H115041   1.061   4.373   3.324
 5052TIP3    H215042   1.061   4.522   3.307
 5053TIP3   OH215043   0.800   4.719   3.386
 5053TIP3    H115044   0.850   4.715   3.302
 5053TIP3    H215045   0.826   4.806   3.420
 5054TIP3   OH215046   2.743   4.759   3.542
 5054TIP3    H115047   2.656   4.799   3.565
 5054TIP3    H215048   2.713   4.686   3.485
 5055TIP3   OH215049   2.379   4.394   2.127
 5055TIP3    H115050   2.417   4.322   2.073
 5055TIP3    H215051   2.447   4.464   2.119
 5056TIP3   OH215052   0.781   4.212   2.890
 5056TIP3    H115053   0.686   4.214   2.914
 5056TIP3    H215054   0.782   4.275   2.814
 5057TIP3   OH215055   1.947   5.922   2.397
 5057TIP3    H115056   1.993   5.910   2.312
 5057TIP3    H215057   1.997   5.997   2.435
 5058TIP3   OH215058   1.005   4.305   3.703
 5058TIP3    H115059   0.953   4.299   3.785
 5058TIP3    H215060   0.938   4.342   3.641
 5059TIP3   OH215061   1.046   5.729   3.777
 5059TIP3    H115062   0.952   5.705   3.762
 5059TIP3    H215063   1.055   5.714   3.872
 5060TIP3   OH215064   1.222   5.761   3.325
 5060TIP3    H115065   1.170   5.836   3.289
 5060TIP3    H215066   1.305   5.777   3.276
 5061TIP3   OH215067   1.669   6.010   3.464
 5061TIP3    H115068   1.708   6.006   3.555
 5061TIP3    H215069   1.735   6.068   3.420
 5062TIP3   OH215070   1.852   6.156   3.325
 5062TIP3    H115071   1.909   6.157   3.247
 5062TIP3    H215072   1.905   6.208   3.389
 5063TIP3   OH215073   2.641   4.520   3.423
 5063TIP3    H115074   2.550   4.511   3.390
 5063TIP3    H215075   2.674   4.428   3.412
 5064TIP3   OH215076   0.900   6.022   3.350
 5064TIP3    H115077   0.811   6.054   3.326
 5064TIP3    H215078   0.909   6.060   3.438
 5065TIP3   OH215079   1.136   5.999   3.207
 5065TIP3    H115080   1.050   6.012   3.253
 5065TIP3    H215081   1.115   6.032   3.118
 5066TIP3   OH215082   1.562   6.027   3.003
 5066TIP3    H115083   1.491   6.044   2.939
 5066TIP3    H215084   1.571   6.116   3.044
 5067TIP3   OH215085   1.819   5.969   3.089
 5067TIP3    H115086   1.734   6.002   3.052
 5067TIP3    H215087   1.882   6.030   3.045
 5068TIP3   OH215088   2.020   6.153   2.974
 5068TIP3    H115089   2.013   6.240   2.931
 5068TIP3    H215090   2.057   6.099   2.902
 5069TIP3   OH215091   0.811   5.815   3.094
 5069TIP3    H115092   0.837   5.788   3.185
 5069TIP3    H215093   0.882   5.771   3.043
 5070TIP3   OH215094   1.003   5.686   2.952
 5070TIP3    H115095   1.019   5.602   3.001
 5070TIP3    H215096   1.094   5.722   2.946
 5071TIP3   OH215097   1.271   5.779   2.951
 5071TIP3    H115098   1.299   5.686   2.940
 5071TIP3    H215099   1.313   5.799   3.038
 5072TIP3   OH215100   1.844   4.436   3.041
 5072TIP3    H115101   1.802   4.365   3.094
 5072TIP3    H215102   1.917   4.389   2.997
 5073TIP3   OH215103   2.368   4.322   2.949
 5073TIP3    H115104   2.404   4.370   2.872
 5073TIP3    H215105   2.272   4.334   2.939
 5074TIP3   OH215106   2.464   4.417   2.711
 5074TIP3    H115107   2.536   4.365   2.671
 5074TIP3    H215108   2.497   4.509   2.696
 5075TIP3   OH215109   1.104   4.148   3.059
 5075TIP3    H115110   1.016   4.123   3.028
 5075TIP3    H215111   1.150   4.061   3.061
 5076TIP3   OH215112   0.901   4.015   2.723
 5076TIP3    H115113   0.920   4.060   2.638
 5076TIP3    H215114   0.858   4.087   2.773
 5077TIP3   OH215115   1.537   4.180   2.940
 5077TIP3    H115116   1.595   4.225   2.877
 5077TIP3    H215117   1.568   4.214   3.025
 5078TIP3   OH215118   2.085   4.324   2.921
 5078TIP3    H115119   2.084   4.284   2.833
 5078TIP3    H215120   2.073   4.245   2.979
 5079TIP3   OH215121   2.115   4.247   2.485
 5079TIP3    H115122   2.027   4.287   2.496
 5079TIP3    H215123   2.102   4.161   2.531
 5080TIP3   OH215124   0.599   5.587   2.485
 5080TIP3    H115125   0.514   5.553   2.452
 5080TIP3    H215126   0.587   5.681   2.465
 5081TIP3   OH215127   0.999   4.168   2.472
 5081TIP3    H115128   1.047   4.109   2.411
 5081TIP3    H215129   1.072   4.224   2.506
 5082TIP3   OH215130   1.509   4.351   2.568
 5082TIP3    H115131   1.569   4.302   2.626
 5082TIP3    H215132   1.533   4.443   2.594
 5083TIP3   OH215133   1.371   5.773   2.070
 5083TIP3    H115134   1.458   5.798   2.032
 5083TIP3    H215135   1.349   5.700   2.008
 5084TIP3   OH215136   2.089   5.893   2.162
 5084TIP3    H115137   2.082   5.796   2.149
 5084TIP3    H215138   2.043   5.926   2.083
 5085TIP3   OH215139   1.302   4.427   3.950
 5085TIP3    H115140   1.268   4.356   4.006
 5085TIP3    H215141   1.397   4.427   3.977
 5086TIP3   OH215142   1.552   4.424   4.068
 5086TIP3    H115143   1.636   4.398   4.028
 5086TIP3    H215144   1.540   4.352   4.134
 5087TIP3   OH215145   0.674   5.610   2.123
 5087TIP3    H115146   0.676   5.635   2.216
 5087TIP3    H215147   0.762   5.568   2.110
 5088TIP3   OH215148   2.377   4.485   3.856
 5088TIP3    H115149   2.396   4.454   3.947
 5088TIP3    H215150   2.466   4.480   3.814
 5089TIP3   OH215151   2.329   6.041   3.337
 5089TIP3    H115152   2.243   6.000   3.347
 5089TIP3    H215153   2.306   6.136   3.347
 5090TIP3   OH215154   3.583   5.413   2.112
 5090TIP3    H115155   3.551   5.503   2.090
 5090TIP3    H215156   3.508   5.359   2.081
 5091TIP3   OH215157   3.583   5.410   2.497
 5091TIP3    H115158   3.615   5.381   2.584
 5091TIP3    H215159   3.540   5.329   2.463
 5092TIP3   OH215160   2.879   5.304   2.861
 5092TIP3    H115161   2.909   5.235   2.924
 5092TIP3    H215162   2.958   5.358   2.854
 5093TIP3   OH215163   3.826   5.710   2.177
 5093TIP3    H115164   3.807   5.632   2.231
 5093TIP3    H215165   3.851   5.775   2.244
 5094TIP3   OH215166   2.851   5.715   2.584
 5094TIP3    H115167   2.843   5.617   2.586
 5094TIP3    H215168   2.948   5.724   2.582
 5095TIP3   OH215169   2.559   4.919   2.369
 5095TIP3    H115170   2.507   5.001   2.383
 5095TIP3    H215171   2.490   4.862   2.330
 5096TIP3   OH215172   2.617   5.205   2.545
 5096TIP3    H115173   2.666   5.127   2.580
 5096TIP3    H215174   2.673   5.231   2.471
 5097TIP3   OH215175   3.473   6.177   2.193
 5097TIP3    H115176   3.520   6.104   2.148
 5097TIP3    H215177   3.455   6.139   2.280
 5098TIP3   OH215178   3.379   5.636   2.543
 5098TIP3    H115179   3.416   5.558   2.499
 5098TIP3    H215180   3.464   5.680   2.567
 5099TIP3   OH215181   4.393   4.956   2.541
 5099TIP3    H115182   4.423   5.039   2.584
 5099TIP3    H215183   4.416   4.973   2.448
 5100TIP3   OH215184   3.794   5.138   2.574
 5100TIP3    H115185   3.835   5.052   2.596
 5100TIP3    H215186   3.761   5.121   2.484
 5101TIP3   OH215187   3.131   4.796   2.540
 5101TIP3    H115188   3.109   4.868   2.477
 5101TIP3    H215189   3.083   4.722   2.497
 5102TIP3   OH215190   3.824   4.888   2.162
 5102TIP3    H115191   3.896   4.871   2.228
 5102TIP3    H215192   3.877   4.922   2.088
 5103TIP3   OH215193   2.764   4.998   2.648
 5103TIP3    H115194   2.846   4.977   2.695
 5103TIP3    H215195   2.776   4.942   2.568
 5104TIP3   OH215196   3.204   5.196   2.442
 5104TIP3    H115197   3.297   5.170   2.455
 5104TIP3    H215198   3.164   5.112   2.410
 5105TIP3   OH215199   4.468   5.165   2.709
 5105TIP3    H115200   4.382   5.210   2.691
 5105TIP3    H215201   4.477   5.182   2.803
 5106TIP3   OH215202   3.127   4.780   2.975
 5106TIP3    H115203   3.066   4.815   2.908
 5106TIP3    H215204   3.075   4.796   3.057
 5107TIP3   OH215205   3.476   5.634   1.981
 5107TIP3    H115206   3.430   5.608   1.900
 5107TIP3    H215207   3.429   5.717   2.004
 5108TIP3   OH215208   3.234   5.555   2.769
 5108TIP3    H115209   3.171   5.620   2.808
 5108TIP3    H215210   3.274   5.607   2.697
 5109TIP3   OH215211   4.033   4.891   2.335
 5109TIP3    H115212   4.023   4.839   2.416
 5109TIP3    H215213   4.086   4.967   2.365
 5110TIP3   OH215214   2.998   4.894   2.759
 5110TIP3    H115215   3.061   4.966   2.783
 5110TIP3    H215216   3.047   4.853   2.684
 5111TIP3   OH215217   3.061   5.749   2.867
 5111TIP3    H115218   3.034   5.836   2.831
 5111TIP3    H215219   2.983   5.731   2.924
 5112TIP3   OH215220   2.455   5.439   2.104
 5112TIP3    H115221   2.413   5.464   2.020
 5112TIP3    H215222   2.485   5.525   2.139
 5113TIP3   OH215223   3.893   5.955   2.345
 5113TIP3    H115224   3.813   5.936   2.399
 5113TIP3    H215225   3.852   5.999   2.270
 5114TIP3   OH215226   4.186   4.858   2.708
 5114TIP3    H115227   4.098   4.884   2.676
 5114TIP3    H215228   4.245   4.888   2.636
 5115TIP3   OH215229   3.482   4.497   2.689
 5115TIP3    H115230   3.469   4.402   2.708
 5115TIP3    H215231   3.404   4.535   2.736
 5116TIP3   OH215232   3.607   6.002   2.031
 5116TIP3    H115233   3.648   5.917   2.004
 5116TIP3    H215234   3.665   6.064   1.981
 5117TIP3   OH215235   3.741   5.787   1.926
 5117TIP3    H115236   3.699   5.710   1.886
 5117TIP3    H215237   3.776   5.749   2.009
 5118TIP3   OH215238   4.120   5.870   2.686
 5118TIP3    H115239   4.109   5.789   2.630
 5118TIP3    H215240   4.107   5.942   2.621
 5119TIP3   OH215241   3.414   5.263   1.946
 5119TIP3    H115242   3.332   5.312   1.924
 5119TIP3    H215243   3.457   5.257   1.859
 5120TIP3   OH215244   3.371   5.047   1.660
 5120TIP3    H115245   3.439   5.097   1.708
 5120TIP3    H215246   3.426   4.982   1.613
 5121TIP3   OH215247   4.316   5.507   2.533
 5121TIP3    H115248   4.232   5.557   2.540
 5121TIP3    H215249   4.343   5.528   2.442
 5122TIP3   OH215250   3.761   5.346   1.915
 5122TIP3    H115251   3.705   5.369   1.993
 5122TIP3    H215252   3.844   5.318   1.960
 5123TIP3   OH215253   3.995   5.383   2.829
 5123TIP3    H115254   3.991   5.465   2.881
 5123TIP3    H215255   3.908   5.386   2.785
 5124TIP3   OH215256   2.993   5.342   2.333
 5124TIP3    H115257   2.950   5.284   2.266
 5124TIP3    H215258   3.068   5.287   2.362
 5125TIP3   OH215259   3.123   5.756   2.480
 5125TIP3    H115260   3.100   5.712   2.397
 5125TIP3    H215261   3.212   5.719   2.498
 5126TIP3   OH215262   3.128   5.312   2.689
 5126TIP3    H115263   3.161   5.289   2.599
 5126TIP3    H215264   3.172   5.398   2.707
 5127TIP3   OH215265   3.658   5.947   2.468
 5127TIP3    H115266   3.640   6.026   2.521
 5127TIP3    H215267   3.639   5.873   2.530
 5128TIP3   OH215268   3.267   5.869   3.010
 5128TIP3    H115269   3.208   5.931   3.058
 5128TIP3    H215270   3.201   5.816   2.961
 5129TIP3   OH215271   3.600   5.202   1.743
 5129TIP3    H115272   3.659   5.262   1.794
 5129TIP3    H215273   3.626   5.225   1.650
 5130TIP3   OH215274   3.021   5.427   3.113
 5130TIP3    H115275   3.025   5.513   3.158
 5130TIP3    H215276   2.927   5.406   3.124
 5131TIP3   OH215277   3.347   5.880   2.013
 5131TIP3    H115278   3.417   5.941   2.041
 5131TIP3    H215279   3.281   5.938   1.975
 5132TIP3   OH215280   3.061   6.036   3.099
 5132TIP3    H115281   3.024   6.035   3.009
 5132TIP3    H215282   2.982   6.015   3.154
 5133TIP3   OH215283   4.116   4.442   1.792
 5133TIP3    H115284   4.034   4.461   1.842
 5133TIP3    H215285   4.128   4.526   1.742
 5134TIP3   OH215286   2.858   5.185   2.139
 5134TIP3    H115287   2.790   5.228   2.083
 5134TIP3    H215288   2.821   5.097   2.150
 5135TIP3   OH215289   3.915   5.810   1.342
 5135TIP3    H115290   3.923   5.906   1.324
 5135TIP3    H215291   4.007   5.780   1.327
 5136TIP3   OH215292   2.637   5.568   3.046
 5136TIP3    H115293   2.576   5.543   2.975
 5136TIP3    H215294   2.677   5.482   3.072
 5137TIP3   OH215295   2.493   5.759   2.684
 5137TIP3    H115296   2.588   5.753   2.669
 5137TIP3    H215297   2.487   5.843   2.732
 5138TIP3   OH215298   4.359   6.210   2.733
 5138TIP3    H115299   4.358   6.114   2.752
 5138TIP3    H215300   4.276   6.237   2.778
 5139TIP3   OH215301   3.462   5.999   2.867
 5139TIP3    H115302   3.462   6.091   2.901
 5139TIP3    H215303   3.392   5.959   2.922
 5140TIP3   OH215304   3.229   6.129   1.819
 5140TIP3    H115305   3.178   6.107   1.739
 5140TIP3    H215306   3.191   6.216   1.845
 5141TIP3   OH215307   2.664   5.976   2.204
 5141TIP3    H115308   2.709   5.966   2.291
 5141TIP3    H215309   2.607   5.896   2.203
 5142TIP3   OH215310   3.428   6.031   1.460
 5142TIP3    H115311   3.485   5.959   1.424
 5142TIP3    H215312   3.461   6.037   1.552
 5143TIP3   OH215313   3.479   6.077   1.731
 5143TIP3    H115314   3.389   6.090   1.768
 5143TIP3    H215315   3.520   6.024   1.801
 5144TIP3   OH215316   4.248   5.344   3.007
 5144TIP3    H115317   4.165   5.354   2.959
 5144TIP3    H215318   4.265   5.248   2.999
 5145TIP3   OH215319   2.844   5.750   3.033
 5145TIP3    H115320   2.894   5.735   3.116
 5145TIP3    H215321   2.770   5.687   3.042
 5146TIP3   OH215322   3.243   4.575   2.818
 5146TIP3    H115323   3.155   4.543   2.791
 5146TIP3    H215324   3.217   4.656   2.866
 5147TIP3   OH215325   3.778   4.690   3.013
 5147TIP3    H115326   3.846   4.661   3.077
 5147TIP3    H215327   3.694   4.669   3.060
 5148TIP3   OH215328   4.018   5.120   2.933
 5148TIP3    H115329   3.967   5.115   3.017
 5148TIP3    H215330   3.990   5.206   2.897
 5149TIP3   OH215331   3.678   5.251   1.488
 5149TIP3    H115332   3.642   5.224   1.401
 5149TIP3    H215333   3.761   5.294   1.461
 5150TIP3   OH215334   3.390   4.623   1.790
 5150TIP3    H115335   3.356   4.620   1.881
 5150TIP3    H215336   3.350   4.541   1.755
 5151TIP3   OH215337   3.176   5.090   2.838
 5151TIP3    H115338   3.125   5.110   2.919
 5151TIP3    H215339   3.160   5.171   2.785
 5152TIP3   OH215340   3.058   4.977   2.351
 5152TIP3    H115341   2.966   4.950   2.369
 5152TIP3    H215342   3.071   4.936   2.262
 5153TIP3   OH215343   3.551   5.064   2.080
 5153TIP3    H115344   3.498   5.134   2.036
 5153TIP3    H215345   3.605   5.030   2.006
 5154TIP3   OH215346   3.724   5.340   3.165
 5154TIP3    H115347   3.702   5.267   3.227
 5154TIP3    H215348   3.818   5.353   3.187
 5155TIP3   OH215349   3.708   5.091   2.316
 5155TIP3    H115350   3.645   5.116   2.245
 5155TIP3    H215351   3.743   5.009   2.275
 5156TIP3   OH215352   2.994   5.118   3.046
 5156TIP3    H115353   3.023   5.180   3.114
 5156TIP3    H215354   2.982   5.036   3.096
 5157TIP3   OH215355   3.046   4.598   1.755
 5157TIP3    H115356   3.036   4.594   1.852
 5157TIP3    H215357   2.965   4.648   1.731
 5158TIP3   OH215358   2.587   4.643   2.627
 5158TIP3    H115359   2.664   4.671   2.679
 5158TIP3    H215360   2.625   4.607   2.545
 5159TIP3   OH215361   2.559   4.622   2.145
 5159TIP3    H115362   2.605   4.660   2.067
 5159TIP3    H215363   2.498   4.694   2.166
 5160TIP3   OH215364   3.719   5.337   2.739
 5160TIP3    H115365   3.752   5.265   2.681
 5160TIP3    H215366   3.690   5.284   2.817
 5161TIP3   OH215367   3.388   4.802   2.413
 5161TIP3    H115368   3.306   4.798   2.465
 5161TIP3    H215369   3.456   4.793   2.481
 5162TIP3   OH215370   2.821   4.854   2.420
 5162TIP3    H115371   2.726   4.861   2.393
 5162TIP3    H215372   2.844   4.762   2.398
 5163TIP3   OH215373   3.089   4.851   2.109
 5163TIP3    H115374   3.183   4.864   2.086
 5163TIP3    H215375   3.042   4.872   2.026
 5164TIP3   OH215376   3.878   4.875   2.615
 5164TIP3    H115377   3.844   4.886   2.706
 5164TIP3    H215378   3.813   4.813   2.579
 5165TIP3   OH215379   2.932   4.886   1.888
 5165TIP3    H115380   2.860   4.840   1.842
 5165TIP3    H215381   2.983   4.920   1.812
 5166TIP3   OH215382   4.050   6.563   2.835
 5166TIP3    H115383   4.051   6.589   2.741
 5166TIP3    H215384   4.128   6.610   2.869
 5167TIP3   OH215385   3.006   5.674   3.254
 5167TIP3    H115386   3.086   5.703   3.303
 5167TIP3    H215387   2.941   5.672   3.327
 5168TIP3   OH215388   3.470   5.129   2.512
 5168TIP3    H115389   3.539   5.084   2.462
 5168TIP3    H215390   3.474   5.085   2.599
 5169TIP3   OH215391   2.992   4.613   2.390
 5169TIP3    H115392   2.956   4.535   2.438
 5169TIP3    H215393   3.041   4.571   2.318
 5170TIP3   OH215394   3.446   5.026   2.795
 5170TIP3    H115395   3.356   5.059   2.813
 5170TIP3    H215396   3.503   5.085   2.849
 5171TIP3   OH215397   3.183   5.414   1.894
 5171TIP3    H115398   3.111   5.348   1.883
 5171TIP3    H215399   3.164   5.447   1.986
 5172TIP3   OH215400   4.081   5.650   2.524
 5172TIP3    H115401   4.105   5.698   2.442
 5172TIP3    H215402   3.997   5.606   2.500
 5173TIP3   OH215403   3.640   4.726   1.757
 5173TIP3    H115404   3.544   4.706   1.766
 5173TIP3    H215405   3.647   4.820   1.783
 5174TIP3   OH215406   3.590   5.738   2.889
 5174TIP3    H115407   3.606   5.707   2.979
 5174TIP3    H215408   3.541   5.821   2.903
 5175TIP3   OH215409   3.709   4.974   1.862
 5175TIP3    H115410   3.806   4.979   1.877
 5175TIP3    H215411   3.691   5.053   1.808
 5176TIP3   OH215412   2.877   5.439   2.570
 5176TIP3    H115413   2.914   5.408   2.484
 5176TIP3    H215414   2.915   5.374   2.631
 5177TIP3   OH215415   3.328   5.564   1.717
 5177TIP3    H115416   3.280   5.650   1.723
 5177TIP3    H215417   3.273   5.508   1.776
 5178TIP3   OH215418   2.756   5.358   3.184
 5178TIP3    H115419   2.777   5.344   3.278
 5178TIP3    H215420   2.689   5.289   3.169
 5179TIP3   OH215421   3.482   5.472   3.202
 5179TIP3    H115422   3.422   5.411   3.156
 5179TIP3    H215423   3.569   5.436   3.175
 5180TIP3   OH215424   3.740   6.005   2.778
 5180TIP3    H115425   3.646   5.992   2.799
 5180TIP3    H215426   3.771   6.047   2.862
 5181TIP3   OH215427   4.153   5.064   1.695
 5181TIP3    H115428   4.090   5.019   1.634
 5181TIP3    H215429   4.149   5.153   1.655
 5182TIP3   OH215430   4.371   5.922   2.777
 5182TIP3    H115431   4.273   5.916   2.770
 5182TIP3    H215432   4.396   5.892   2.687
 5183TIP3   OH215433   3.862   5.882   1.609
 5183TIP3    H115434   3.826   5.813   1.666
 5183TIP3    H215435   3.867   5.838   1.522
 5184TIP3   OH215436   3.849   5.513   2.438
 5184TIP3    H115437   3.756   5.487   2.455
 5184TIP3    H215438   3.883   5.432   2.396
 5185TIP3   OH215439   2.975   5.741   2.195
 5185TIP3    H115440   2.972   5.822   2.141
 5185TIP3    H215441   2.882   5.721   2.206
 5186TIP3   OH215442   2.540   5.044   1.899
 5186TIP3    H115443   2.585   5.128   1.920
 5186TIP3    H215444   2.462   5.049   1.960
 5187TIP3   OH215445   3.115   5.507   2.140
 5187TIP3    H115446   3.078   5.595   2.158
 5187TIP3    H215447   3.078   5.454   2.213
 5188TIP3   OH215448   3.245   6.083   2.665
 5188TIP3    H115449   3.287   6.156   2.616
 5188TIP3    H215450   3.321   6.048   2.715
 5189TIP3   OH215451   2.896   5.978   2.048
 5189TIP3    H115452   2.810   5.986   2.093
 5189TIP3    H215453   2.927   6.071   2.050
 5190TIP3   OH215454   3.635   5.717   2.622
 5190TIP3    H115455   3.624   5.718   2.720
 5190TIP3    H215456   3.711   5.658   2.613
 5191TIP3   OH215457   3.609   5.614   1.505
 5191TIP3    H115458   3.660   5.587   1.584
 5191TIP3    H215459   3.520   5.583   1.530
 5192TIP3   OH215460   3.882   6.250   2.673
 5192TIP3    H115461   3.806   6.189   2.672
 5192TIP3    H215462   3.861   6.310   2.598
 5193TIP3   OH215463   3.946   6.085   1.324
 5193TIP3    H115464   3.977   6.154   1.263
 5193TIP3    H215465   3.867   6.130   1.360
 5194TIP3   OH215466   2.967   4.863   3.190
 5194TIP3    H115467   2.870   4.865   3.203
 5194TIP3    H215468   2.994   4.803   3.262
 5195TIP3   OH215469   3.769   5.548   1.723
 5195TIP3    H115470   3.757   5.480   1.792
 5195TIP3    H215471   3.866   5.542   1.710
 5196TIP3   OH215472   2.683   5.946   2.824
 5196TIP3    H115473   2.736   5.871   2.856
 5196TIP3    H215474   2.712   6.016   2.883
 5197TIP3   OH215475   2.976   5.591   1.505
 5197TIP3    H115476   2.986   5.498   1.476
 5197TIP3    H215477   2.955   5.579   1.600
 5198TIP3   OH215478   2.920   5.596   1.776
 5198TIP3    H115479   2.989   5.568   1.837
 5198TIP3    H215480   2.924   5.694   1.785
 5199TIP3   OH215481   2.655   5.290   1.981
 5199TIP3    H115482   2.588   5.334   2.038
 5199TIP3    H215483   2.667   5.359   1.913
 5200TIP3   OH215484   3.804   4.927   2.874
 5200TIP3    H115485   3.885   4.963   2.914
 5200TIP3    H215486   3.789   4.845   2.927
 5201TIP3   OH215487   3.684   4.677   2.039
 5201TIP3    H115488   3.671   4.699   1.945
 5201TIP3    H215489   3.723   4.759   2.074
 5202TIP3   OH215490   3.187   5.796   1.728
 5202TIP3    H115491   3.099   5.819   1.763
 5202TIP3    H215492   3.198   5.865   1.660
 5203TIP3   OH215493   3.374   4.858   2.141
 5203TIP3    H115494   3.439   4.930   2.125
 5203TIP3    H215495   3.378   4.850   2.239
 5204TIP3   OH215496   3.644   5.176   2.946
 5204TIP3    H115497   3.665   5.228   3.027
 5204TIP3    H215498   3.697   5.095   2.959
 5205TIP3   OH215499   3.517   4.583   2.243
 5205TIP3    H115500   3.512   4.661   2.302
 5205TIP3    H215501   3.578   4.617   2.173
 5206TIP3   OH215502   2.931   5.869   1.794
 5206TIP3    H115503   2.900   5.938   1.732
 5206TIP3    H215504   2.913   5.912   1.881
 5207TIP3   OH215505   3.029   4.582   2.031
 5207TIP3    H115506   3.027   4.672   2.070
 5207TIP3    H215507   3.125   4.563   2.039
 5208TIP3   OH215508   4.284   5.076   2.925
 5208TIP3    H115509   4.186   5.077   2.936
 5208TIP3    H215510   4.290   5.024   2.843
 5209TIP3   OH215511   3.934   5.271   2.316
 5209TIP3    H115512   3.858   5.211   2.328
 5209TIP3    H215513   4.005   5.223   2.364
 5210TIP3   OH215514   2.647   5.497   1.787
 5210TIP3    H115515   2.713   5.568   1.794
 5210TIP3    H215516   2.692   5.441   1.719
 5211TIP3   OH215517   2.591   4.774   1.920
 5211TIP3    H115518   2.588   4.872   1.916
 5211TIP3    H215519   2.509   4.750   1.876
 5212TIP3   OH215520   2.978   4.495   2.793
 5212TIP3    H115521   2.948   4.460   2.706
 5212TIP3    H215522   2.968   4.416   2.851
 5213TIP3   OH215523   2.518   5.716   2.173
 5213TIP3    H115524   2.447   5.744   2.232
 5213TIP3    H215525   2.487   5.756   2.088
 5214TIP3   OH215526   2.676   6.257   3.244
 5214TIP3    H115527   2.762   6.259   3.293
 5214TIP3    H215528   2.658   6.161   3.245
 5215TIP3   OH215529   3.155   6.220   3.288
 5215TIP3    H115530   3.249   6.199   3.298
 5215TIP3    H215531   3.130   6.159   3.216
 5216TIP3   OH215532   3.138   5.794   1.419
 5216TIP3    H115533   3.081   5.723   1.456
 5216TIP3    H215534   3.212   5.741   1.384
 5217TIP3   OH215535   3.800   6.122   3.019
 5217TIP3    H115536   3.788   6.054   3.090
 5217TIP3    H215537   3.874   6.175   3.054
 5218TIP3   OH215538   3.575   5.836   1.331
 5218TIP3    H115539   3.613   5.766   1.388
 5218TIP3    H215540   3.630   5.831   1.251
 5219TIP3   OH215541   2.804   5.661   3.443
 5219TIP3    H115542   2.821   5.565   3.451
 5219TIP3    H215543   2.716   5.662   3.401
 5220TIP3   OH215544   2.783   5.312   1.639
 5220TIP3    H115545   2.837   5.277   1.712
 5220TIP3    H215546   2.850   5.316   1.567
 5221TIP3   OH215547   3.414   5.747   3.218
 5221TIP3    H115548   3.370   5.762   3.132
 5221TIP3    H215549   3.444   5.654   3.211
 5222TIP3   OH215550   3.297   5.511   1.447
 5222TIP3    H115551   3.295   5.523   1.544
 5222TIP3    H215552   3.296   5.413   1.441
 5223TIP3   OH215553   3.906   5.753   2.825
 5223TIP3    H115554   3.978   5.804   2.782
 5223TIP3    H215555   3.831   5.813   2.814
 5224TIP3   OH215556   2.924   5.396   3.427
 5224TIP3    H115557   2.999   5.338   3.407
 5224TIP3    H215558   2.950   5.429   3.516
 5225TIP3   OH215559   2.992   5.216   1.862
 5225TIP3    H115560   2.962   5.173   1.944
 5225TIP3    H215561   3.027   5.139   1.811
 5226TIP3   OH215562   3.259   5.280   3.090
 5226TIP3    H115563   3.181   5.340   3.091
 5226TIP3    H215564   3.309   5.314   3.012
 5227TIP3   OH215565   3.091   5.010   1.701
 5227TIP3    H115566   3.065   5.013   1.606
 5227TIP3    H215567   3.188   5.014   1.693
 5228TIP3   OH215568   3.776   5.682   3.222
 5228TIP3    H115569   3.858   5.656   3.178
 5228TIP3    H215570   3.770   5.617   3.294
 5229TIP3   OH215571   3.913   5.341   1.365
 5229TIP3    H115572   3.892   5.293   1.282
 5229TIP3    H215573   3.879   5.430   1.341
 5230TIP3   OH215574   3.383   5.068   3.215
 5230TIP3    H115575   3.383   4.988   3.159
 5230TIP3    H215576   3.338   5.134   3.157
 5231TIP3   OH215577   3.385   4.856   3.022
 5231TIP3    H115578   3.412   4.894   2.936
 5231TIP3    H215579   3.292   4.832   3.004
 5232TIP3   OH215580   3.411   5.391   2.897
 5232TIP3    H115581   3.494   5.396   2.848
 5232TIP3    H215582   3.355   5.456   2.851
 5233TIP3   OH215583   3.993   5.356   3.276
 5233TIP3    H115584   4.039   5.272   3.291
 5233TIP3    H215585   4.064   5.413   3.243
 5234TIP3   OH215586   4.036   5.609   3.012
 5234TIP3    H115587   3.978   5.663   2.953
 5234TIP3    H215588   4.124   5.629   2.972
 5235TIP3   OH215589   3.260   5.179   3.445
 5235TIP3    H115590   3.192   5.111   3.461
 5235TIP3    H215591   3.295   5.152   3.358
 5236TIP3   OH215592   3.517   4.618   3.089
 5236TIP3    H115593   3.467   4.700   3.068
 5236TIP3    H215594   3.448   4.550   3.079
 5237TIP3   OH215595   3.643   5.123   3.306
 5237TIP3    H115596   3.631   5.109   3.402
 5237TIP3    H215597   3.553   5.097   3.276
 5238TIP3   OH215598   3.882   5.071   3.161
 5238TIP3    H115599   3.807   5.072   3.223
 5238TIP3    H215600   3.956   5.040   3.218
 5239TIP3   OH215601   4.113   5.013   3.310
 5239TIP3    H115602   4.125   4.917   3.328
 5239TIP3    H215603   4.107   5.051   3.400
 5240TIP3   OH215604   3.100   4.959   3.499
 5240TIP3    H115605   3.104   4.867   3.466
 5240TIP3    H215606   3.137   4.947   3.589
 5241TIP3   OH215607   3.612   4.628   3.348
 5241TIP3    H115608   3.678   4.557   3.342
 5241TIP3    H215609   3.572   4.622   3.258
 5242TIP3   OH215610   3.678   4.843   3.506
 5242TIP3    H115611   3.656   4.772   3.442
 5242TIP3    H215612   3.599   4.901   3.500
 5243TIP3   OH215613   2.900   6.073   1.608
 5243TIP3    H115614   2.994   6.068   1.585
 5243TIP3    H215615   2.866   6.120   1.530
 5244TIP3   OH215616   2.378   5.453   1.823
 5244TIP3    H115617   2.473   5.474   1.808
 5244TIP3    H215618   2.371   5.364   1.781
 5245TIP3   OH215619   2.294   6.066   2.236
 5245TIP3    H115620   2.226   6.005   2.198
 5245TIP3    H215621   2.337   6.007   2.301
 5246TIP3   OH215622   2.429   5.916   2.423
 5246TIP3    H115623   2.415   5.843   2.485
 5246TIP3    H215624   2.481   5.977   2.478
 5247TIP3   OH215625   4.179   6.336   2.501
 5247TIP3    H115626   4.139   6.246   2.503
 5247TIP3    H215627   4.258   6.321   2.554
 5248TIP3   OH215628   4.230   6.014   3.076
 5248TIP3    H115629   4.158   6.022   3.142
 5248TIP3    H215630   4.272   6.102   3.082
 5249TIP3   OH215631   4.047   5.527   1.699
 5249TIP3    H115632   4.117   5.587   1.669
 5249TIP3    H215633   4.090   5.486   1.779
 5250TIP3   OH215634   4.175   5.396   1.903
 5250TIP3    H115635   4.109   5.351   1.961
 5250TIP3    H215636   4.240   5.430   1.968
 5251TIP3   OH215637   4.227   5.784   2.333
 5251TIP3    H115638   4.286   5.718   2.289
 5251TIP3    H215639   4.215   5.852   2.266
 5252TIP3   OH215640   4.057   6.088   2.523
 5252TIP3    H115641   3.991   6.125   2.584
 5252TIP3    H215642   4.002   6.035   2.461
 5253TIP3   OH215643   4.114   5.303   1.548
 5253TIP3    H115644   4.042   5.304   1.480
 5253TIP3    H215645   4.083   5.378   1.604
 5254TIP3   OH215646   3.984   4.976   1.501
 5254TIP3    H115647   3.939   5.009   1.423
 5254TIP3    H215648   3.961   4.880   1.496
 5255TIP3   OH215649   3.990   5.250   2.047
 5255TIP3    H115650   3.996   5.153   2.040
 5255TIP3    H215651   3.975   5.262   2.144
 5256TIP3   OH215652   2.614   5.328   2.795
 5256TIP3    H115653   2.612   5.293   2.703
 5256TIP3    H215654   2.711   5.327   2.812
 5257TIP3   OH215655   4.279   5.676   2.904
 5257TIP3    H115656   4.350   5.608   2.896
 5257TIP3    H215657   4.310   5.746   2.844
 5258TIP3   OH215658   4.464   5.481   2.918
 5258TIP3    H115659   4.389   5.430   2.957
 5258TIP3    H215660   4.537   5.417   2.934
 5259TIP3   OH215661   3.927   4.710   1.489
 5259TIP3    H115662   4.001   4.677   1.543
 5259TIP3    H215663   3.853   4.651   1.511
 5260TIP3   OH215664   3.986   4.968   1.942
 5260TIP3    H115665   4.026   4.878   1.958
 5260TIP3    H215666   4.045   4.998   1.870
 5261TIP3   OH215667   4.146   5.141   2.437
 5261TIP3    H115668   4.232   5.167   2.397
 5261TIP3    H215669   4.160   5.176   2.527
 5262TIP3   OH215670   4.216   5.284   2.669
 5262TIP3    H115671   4.139   5.317   2.719
 5262TIP3    H215672   4.248   5.366   2.626
 5263TIP3   OH215673   2.834   5.013   3.472
 5263TIP3    H115674   2.932   5.005   3.473
 5263TIP3    H215675   2.809   4.926   3.510
 5264TIP3   OH215676   4.667   4.877   3.225
 5264TIP3    H115677   4.727   4.811   3.183
 5264TIP3    H215678   4.640   4.931   3.148
 5265TIP3   OH215679   4.093   4.717   1.980
 5265TIP3    H115680   4.141   4.700   2.064
 5265TIP3    H215681   4.033   4.640   1.979
 5266TIP3   OH215682   2.794   4.703   2.801
 5266TIP3    H115683   2.855   4.627   2.810
 5266TIP3    H215684   2.858   4.777   2.794
 5267TIP3   OH215685   2.596   4.977   2.872
 5267TIP3    H115686   2.645   4.969   2.788
 5267TIP3    H215687   2.631   5.061   2.905
 5268TIP3   OH215688   4.539   5.016   3.028
 5268TIP3    H115689   4.453   5.056   3.052
 5268TIP3    H215690   4.508   4.942   2.972
 5269TIP3   OH215691   4.175   4.651   1.613
 5269TIP3    H115692   4.213   4.578   1.560
 5269TIP3    H215693   4.243   4.720   1.606
 5270TIP3   OH215694   2.581   4.485   2.378
 5270TIP3    H115695   2.487   4.477   2.401
 5270TIP3    H215696   2.577   4.540   2.297
 5271TIP3   OH215697   3.757   6.176   1.886
 5271TIP3    H115698   3.792   6.161   1.796
 5271TIP3    H215699   3.784   6.267   1.902
 5272TIP3   OH215700   2.801   4.563   3.190
 5272TIP3    H115701   2.750   4.554   3.271
 5272TIP3    H215702   2.734   4.598   3.128
 5273TIP3   OH215703   2.843   5.988   3.265
 5273TIP3    H115704   2.751   5.962   3.248
 5273TIP3    H215705   2.852   5.970   3.360
 5274TIP3   OH215706   3.017   6.020   2.812
 5274TIP3    H115707   2.970   6.096   2.774
 5274TIP3    H215708   3.104   6.033   2.768
 5275TIP3   OH215709   3.464   6.265   2.948
 5275TIP3    H115710   3.504   6.264   3.038
 5275TIP3    H215711   3.531   6.316   2.899
 5276TIP3   OH215712   3.647   6.415   2.807
 5276TIP3    H115713   3.721   6.360   2.778
 5276TIP3    H215714   3.693   6.475   2.870
 5277TIP3   OH215715   4.438   4.777   2.909
 5277TIP3    H115716   4.346   4.766   2.877
 5277TIP3    H215717   4.471   4.684   2.899
 5278TIP3   OH215718   2.696   6.278   2.836
 5278TIP3    H115719   2.606   6.309   2.814
 5278TIP3    H215720   2.707   6.317   2.924
 5279TIP3   OH215721   2.932   6.257   2.694
 5279TIP3    H115722   2.845   6.269   2.740
 5279TIP3    H215723   2.911   6.289   2.605
 5280TIP3   OH215724   3.357   6.284   2.491
 5280TIP3    H115725   3.285   6.303   2.428
 5280TIP3    H215726   3.368   6.370   2.535
 5281TIP3   OH215727   3.626   6.227   2.530
 5281TIP3    H115728   3.529   6.237   2.517
 5281TIP3    H215729   3.657   6.317   2.516
 5282TIP3   OH215730   3.833   6.422   2.451
 5282TIP3    H115731   3.820   6.514   2.421
 5282TIP3    H215732   3.827   6.375   2.367
 5283TIP3   OH215733   2.606   6.070   2.581
 5283TIP3    H115734   2.633   6.045   2.672
 5283TIP3    H215735   2.678   6.027   2.531
 5284TIP3   OH215736   2.800   5.943   2.439
 5284TIP3    H115737   2.816   5.858   2.488
 5284TIP3    H215738   2.892   5.978   2.434
 5285TIP3   OH215739   3.069   6.037   2.441
 5285TIP3    H115740   3.097   5.944   2.431
 5285TIP3    H215741   3.112   6.057   2.526
 5286TIP3   OH215742   3.640   4.692   2.528
 5286TIP3    H115743   3.598   4.622   2.581
 5286TIP3    H215744   3.713   4.644   2.484
 5287TIP3   OH215745   4.165   4.576   2.434
 5287TIP3    H115746   4.200   4.627   2.358
 5287TIP3    H215747   4.069   4.591   2.426
 5288TIP3   OH215748   4.260   4.675   2.197
 5288TIP3    H115749   4.333   4.623   2.158
 5288TIP3    H215750   4.294   4.766   2.182
 5289TIP3   OH215751   2.890   4.402   2.545
 5289TIP3    H115752   2.798   4.368   2.546
 5289TIP3    H215753   2.939   4.316   2.541
 5290TIP3   OH215754   2.679   4.272   2.194
 5290TIP3    H115755   2.708   4.328   2.121
 5290TIP3    H215756   2.650   4.338   2.261
 5291TIP3   OH215757   3.334   4.435   2.425
 5291TIP3    H115758   3.394   4.483   2.365
 5291TIP3    H215759   3.359   4.471   2.511
 5292TIP3   OH215760   3.882   4.581   2.408
 5292TIP3    H115761   3.880   4.540   2.320
 5292TIP3    H215762   3.869   4.502   2.466
 5293TIP3   OH215763   3.911   4.504   1.972
 5293TIP3    H115764   3.824   4.544   1.984
 5293TIP3    H215765   3.898   4.418   2.018
 5294TIP3   OH215766   2.394   5.844   1.971
 5294TIP3    H115767   2.309   5.811   1.938
 5294TIP3    H215768   2.385   5.938   1.947
 5295TIP3   OH215769   2.795   4.432   1.954
 5295TIP3    H115770   2.842   4.367   1.899
 5295TIP3    H215771   2.869   4.484   1.991
 5296TIP3   OH215772   3.306   4.608   2.054
 5296TIP3    H115773   3.364   4.558   2.114
 5296TIP3    H215774   3.330   4.699   2.081
 5297TIP3   OH215775   3.167   6.031   1.553
 5297TIP3    H115776   3.255   6.054   1.516
 5297TIP3    H215777   3.144   5.956   1.494
 5298TIP3   OH215778   3.889   6.150   1.647
 5298TIP3    H115779   3.881   6.052   1.634
 5298TIP3    H215780   3.841   6.182   1.567
 5299TIP3   OH215781   3.098   4.684   3.437
 5299TIP3    H115782   3.064   4.613   3.493
 5299TIP3    H215783   3.193   4.684   3.464
 5300TIP3   OH215784   3.348   4.680   3.555
 5300TIP3    H115785   3.433   4.653   3.516
 5300TIP3    H215786   3.335   4.610   3.622
 5301TIP3   OH215787   2.470   5.868   1.610
 5301TIP3    H115788   2.467   5.894   1.703
 5301TIP3    H215789   2.559   5.827   1.602
 5302TIP3   OH215790   4.173   4.742   3.343
 5302TIP3    H115791   4.191   4.710   3.434
 5302TIP3    H215792   4.262   4.736   3.302
 5303TIP3   OH215793   4.114   6.294   2.832
 5303TIP3    H115794   4.033   6.263   2.787
 5303TIP3    H215795   4.093   6.390   2.840
 5304TIP3   OH215796   5.379   5.667   1.600
 5304TIP3    H115797   5.349   5.758   1.580
 5304TIP3    H215798   5.303   5.616   1.568
 5305TIP3   OH215799   5.375   5.667   1.985
 5305TIP3    H115800   5.410   5.638   2.071
 5305TIP3    H215801   5.336   5.585   1.951
 5306TIP3   OH215802   4.673   5.561   2.348
 5306TIP3    H115803   4.703   5.492   2.411
 5306TIP3    H215804   4.754   5.614   2.342
 5307TIP3   OH215805   5.621   5.970   1.664
 5307TIP3    H115806   5.606   5.898   1.727
 5307TIP3    H215807   5.650   6.042   1.721
 5308TIP3   OH215808   4.645   5.970   2.068
 5308TIP3    H115809   4.640   5.872   2.071
 5308TIP3    H215810   4.742   5.981   2.069
 5309TIP3   OH215811   4.355   5.177   1.855
 5309TIP3    H115812   4.303   5.258   1.870
 5309TIP3    H215813   4.286   5.118   1.819
 5310TIP3   OH215814   4.414   5.461   2.030
 5310TIP3    H115815   4.461   5.383   2.068
 5310TIP3    H215816   4.472   5.485   1.957
 5311TIP3   OH215817   5.270   6.430   1.681
 5311TIP3    H115818   5.315   6.359   1.631
 5311TIP3    H215819   5.265   6.391   1.769
 5312TIP3   OH215820   5.175   5.893   2.030
 5312TIP3    H115821   5.214   5.815   1.987
 5312TIP3    H215822   5.259   5.938   2.054
 5313TIP3   OH215823   6.190   5.212   2.027
 5313TIP3    H115824   6.219   5.295   2.069
 5313TIP3    H215825   6.214   5.227   1.934
 5314TIP3   OH215826   5.589   5.394   2.062
 5314TIP3    H115827   5.631   5.308   2.083
 5314TIP3    H215828   5.557   5.377   1.971
 5315TIP3   OH215829   4.927   5.053   2.027
 5315TIP3    H115830   4.906   5.125   1.964
 5315TIP3    H215831   4.879   4.979   1.984
 5316TIP3   OH215832   5.620   5.145   1.648
 5316TIP3    H115833   5.692   5.129   1.715
 5316TIP3    H215834   5.674   5.179   1.574
 5317TIP3   OH215835   4.560   5.255   2.134
 5317TIP3    H115836   4.643   5.234   2.182
 5317TIP3    H215837   4.572   5.198   2.055
 5318TIP3   OH215838   5.000   5.453   1.929
 5318TIP3    H115839   5.094   5.428   1.942
 5318TIP3    H215840   4.961   5.369   1.897
 5319TIP3   OH215841   6.265   5.421   2.197
 5319TIP3    H115842   6.179   5.466   2.180
 5319TIP3    H215843   6.279   5.447   2.290
 5320TIP3   OH215844   4.923   5.036   2.462
 5320TIP3    H115845   4.862   5.072   2.395
 5320TIP3    H215846   4.871   5.052   2.543
 5321TIP3   OH215847   5.269   5.888   1.471
 5321TIP3    H115848   5.226   5.866   1.387
 5321TIP3    H215849   5.224   5.971   1.495
 5322TIP3   OH215850   5.030   5.812   2.256
 5322TIP3    H115851   4.968   5.878   2.294
 5322TIP3    H215852   5.072   5.863   2.184
 5323TIP3   OH215853   5.829   5.148   1.822
 5323TIP3    H115854   5.823   5.095   1.902
 5323TIP3    H215855   5.883   5.224   1.851
 5324TIP3   OH215856   4.794   5.151   2.246
 5324TIP3    H115857   4.857   5.223   2.270
 5324TIP3    H215858   4.843   5.110   2.171
 5325TIP3   OH215859   4.857   6.006   2.354
 5325TIP3    H115860   4.831   6.093   2.318
 5325TIP3    H215861   4.779   5.988   2.411
 5326TIP3   OH215862   4.249   5.692   1.589
 5326TIP3    H115863   4.208   5.716   1.504
 5326TIP3    H215864   4.278   5.778   1.624
 5327TIP3   OH215865   5.691   6.213   1.833
 5327TIP3    H115866   5.601   6.203   1.871
 5327TIP3    H215867   5.682   6.298   1.786
 5328TIP3   OH215868   5.983   5.113   2.195
 5328TIP3    H115869   5.895   5.139   2.163
 5328TIP3    H215870   6.041   5.144   2.123
 5329TIP3   OH215871   5.278   4.753   2.176
 5329TIP3    H115872   5.265   4.659   2.195
 5329TIP3    H215873   5.200   4.791   2.223
 5330TIP3   OH215874   5.391   6.258   1.503
 5330TIP3    H115875   5.441   6.175   1.484
 5330TIP3    H215876   5.452   6.323   1.463
 5331TIP3   OH215877   5.535   6.043   1.413
 5331TIP3    H115878   5.499   5.963   1.373
 5331TIP3    H215879   5.572   6.009   1.497
 5332TIP3   OH215880   5.918   6.124   2.174
 5332TIP3    H115881   5.905   6.046   2.116
 5332TIP3    H215882   5.900   6.198   2.112
 5333TIP3   OH215883   5.209   5.519   1.432
 5333TIP3    H115884   5.129   5.569   1.408
 5333TIP3    H215885   5.256   5.514   1.347
 5334TIP3   OH215886   5.166   5.305   1.146
 5334TIP3    H115887   5.235   5.354   1.195
 5334TIP3    H215888   5.223   5.240   1.099
 5335TIP3   OH215889   6.113   5.764   2.021
 5335TIP3    H115890   6.028   5.814   2.025
 5335TIP3    H215891   6.141   5.785   1.929
 5336TIP3   OH215892   5.556   5.601   1.402
 5336TIP3    H115893   5.502   5.625   1.481
 5336TIP3    H215894   5.640   5.574   1.446
 5337TIP3   OH215895   5.791   5.640   2.316
 5337TIP3    H115896   5.787   5.722   2.367
 5337TIP3    H215897   5.704   5.642   2.270
 5338TIP3   OH215898   4.789   5.599   1.820
 5338TIP3    H115899   4.747   5.540   1.754
 5338TIP3    H215900   4.865   5.545   1.851
 5339TIP3   OH215901   4.919   6.012   1.968
 5339TIP3    H115902   4.898   5.967   1.885
 5339TIP3    H215903   5.008   5.977   1.987
 5340TIP3   OH215904   4.922   5.570   2.175
 5340TIP3    H115905   4.957   5.545   2.086
 5340TIP3    H215906   4.968   5.654   2.194
 5341TIP3   OH215907   5.449   6.207   1.951
 5341TIP3    H115908   5.437   6.286   2.007
 5341TIP3    H215909   5.435   6.133   2.014
 5342TIP3   OH215910   5.063   6.127   2.497
 5342TIP3    H115911   5.003   6.188   2.545
 5342TIP3    H215912   4.997   6.072   2.449
 5343TIP3   OH215913   5.395   5.460   1.229
 5343TIP3    H115914   5.455   5.518   1.281
 5343TIP3    H215915   5.421   5.484   1.137
 5344TIP3   OH215916   4.817   5.684   2.598
 5344TIP3    H115917   4.821   5.770   2.645
 5344TIP3    H215918   4.723   5.662   2.612
 5345TIP3   OH215919   5.139   6.138   1.504
 5345TIP3    H115920   5.221   6.189   1.519
 5345TIP3    H215921   5.080   6.204   1.466
 5346TIP3   OH215922   4.856   6.293   2.586
 5346TIP3    H115923   4.819   6.292   2.496
 5346TIP3    H215924   4.777   6.272   2.641
 5347TIP3   OH215925   5.913   4.699   1.278
 5347TIP3    H115926   5.831   4.719   1.328
 5347TIP3    H215927   5.925   4.782   1.228
 5348TIP3   OH215928   4.654   5.442   1.627
 5348TIP3    H115929   4.586   5.482   1.569
 5348TIP3    H215930   4.620   5.353   1.638
 5349TIP3   OH215931   5.710   6.065   0.827
 5349TIP3    H115932   5.719   6.162   0.815
 5349TIP3    H215933   5.803   6.036   0.813
 5350TIP3   OH215934   4.436   5.824   2.532
 5350TIP3    H115935   4.370   5.798   2.466
 5350TIP3    H215936   4.475   5.738   2.560
 5351TIP3   OH215937   4.294   6.040   2.177
 5351TIP3    H115938   4.370   5.992   2.143
 5351TIP3    H215939   4.337   6.093   2.247
 5352TIP3   OH215940   6.156   6.472   2.219
 5352TIP3    H115941   6.155   6.375   2.232
 5352TIP3    H215942   6.072   6.495   2.266
 5353TIP3   OH215943   5.259   6.256   2.354
 5353TIP3    H115944   5.258   6.348   2.388
 5353TIP3    H215945   5.188   6.215   2.409
 5354TIP3   OH215946   5.019   6.384   1.308
 5354TIP3    H115947   4.975   6.366   1.223
 5354TIP3    H215948   4.989   6.474   1.330
 5355TIP3   OH215949   4.457   6.235   1.694
 5355TIP3    H115950   4.509   6.224   1.777
 5355TIP3    H215951   4.412   6.149   1.688
 5356TIP3   OH215952   5.220   6.283   0.950
 5356TIP3    H115953   5.280   6.215   0.911
 5356TIP3    H215954   5.258   6.293   1.040
 5357TIP3   OH215955   5.272   6.333   1.219
 5357TIP3    H115956   5.185   6.342   1.262
 5357TIP3    H215957   5.325   6.293   1.289
 5358TIP3   OH215958   6.044   5.601   2.494
 5358TIP3    H115959   5.961   5.610   2.445
 5358TIP3    H215960   6.061   5.505   2.487
 5359TIP3   OH215961   4.640   6.008   2.519
 5359TIP3    H115962   4.690   5.993   2.602
 5359TIP3    H215963   4.567   5.944   2.528
 5360TIP3   OH215964   5.039   4.832   2.305
 5360TIP3    H115965   4.951   4.800   2.278
 5360TIP3    H215966   5.013   4.912   2.353
 5361TIP3   OH215967   5.573   4.947   2.500
 5361TIP3    H115968   5.641   4.918   2.564
 5361TIP3    H215969   5.489   4.926   2.546
 5362TIP3   OH215970   5.816   5.377   2.421
 5362TIP3    H115971   5.765   5.372   2.504
 5362TIP3    H215972   5.788   5.462   2.383
 5363TIP3   OH215973   5.470   5.508   0.973
 5363TIP3    H115974   5.439   5.479   0.885
 5363TIP3    H215975   5.555   5.550   0.950
 5364TIP3   OH215976   5.185   4.881   1.276
 5364TIP3    H115977   5.151   4.877   1.368
 5364TIP3    H215978   5.147   4.798   1.242
 5365TIP3   OH215979   4.972   5.347   2.324
 5365TIP3    H115980   4.921   5.367   2.406
 5365TIP3    H215981   4.955   5.428   2.271
 5366TIP3   OH215982   4.854   5.234   1.838
 5366TIP3    H115983   4.762   5.205   1.856
 5366TIP3    H215984   4.868   5.193   1.749
 5367TIP3   OH215985   5.347   5.319   1.567
 5367TIP3    H115986   5.295   5.390   1.523
 5367TIP3    H215987   5.402   5.287   1.493
 5368TIP3   OH215988   5.521   5.597   2.652
 5368TIP3    H115989   5.498   5.524   2.714
 5368TIP3    H215990   5.615   5.610   2.674
 5369TIP3   OH215991   5.504   5.347   1.803
 5369TIP3    H115992   5.442   5.374   1.732
 5369TIP3    H215993   5.539   5.265   1.761
 5370TIP3   OH215994   4.789   5.375   2.532
 5370TIP3    H115995   4.820   5.436   2.601
 5370TIP3    H215996   4.778   5.292   2.582
 5371TIP3   OH215997   4.841   4.854   1.242
 5371TIP3    H115998   4.833   4.850   1.339
 5371TIP3    H215999   4.760   4.903   1.219
 5372TIP3   OH216000   4.383   4.900   2.112
 5372TIP3    H116001   4.460   4.928   2.165
 5372TIP3    H216002   4.423   4.862   2.032
 5373TIP3   OH216003   4.356   4.878   1.632
 5373TIP3    H116004   4.401   4.916   1.554
 5373TIP3    H216005   4.294   4.951   1.652
 5374TIP3   OH216006   5.514   5.593   2.226
 5374TIP3    H116007   5.547   5.521   2.167
 5374TIP3    H216008   5.485   5.540   2.303
 5375TIP3   OH216009   5.184   5.059   1.899
 5375TIP3    H116010   5.103   5.054   1.953
 5375TIP3    H216011   5.253   5.050   1.967
 5376TIP3   OH216012   4.617   5.111   1.906
 5376TIP3    H116013   4.523   5.117   1.879
 5376TIP3    H216014   4.640   5.018   1.885
 5377TIP3   OH216015   4.885   5.108   1.596
 5377TIP3    H116016   4.979   5.120   1.575
 5377TIP3    H216017   4.839   5.129   1.512
 5378TIP3   OH216018   5.675   5.132   2.103
 5378TIP3    H116019   5.640   5.143   2.194
 5378TIP3    H216020   5.611   5.069   2.066
 5379TIP3   OH216021   4.727   5.145   1.374
 5379TIP3    H116022   4.655   5.097   1.329
 5379TIP3    H216023   4.779   5.177   1.298
 5380TIP3   OH216024   5.845   6.819   2.321
 5380TIP3    H116025   5.842   6.844   2.227
 5380TIP3    H216026   5.921   6.871   2.352
 5381TIP3   OH216027   4.802   5.932   2.740
 5381TIP3    H116028   4.882   5.961   2.789
 5381TIP3    H216029   4.737   5.928   2.813
 5382TIP3   OH216030   5.265   5.385   1.998
 5382TIP3    H116031   5.336   5.342   1.947
 5382TIP3    H216032   5.271   5.341   2.084
 5383TIP3   OH216033   4.788   4.870   1.877
 5383TIP3    H116034   4.752   4.792   1.925
 5383TIP3    H216035   4.839   4.828   1.806
 5384TIP3   OH216036   5.242   5.282   2.282
 5384TIP3    H116037   5.152   5.316   2.300
 5384TIP3    H216038   5.299   5.342   2.336
 5385TIP3   OH216039   4.977   5.672   1.378
 5385TIP3    H116040   4.907   5.604   1.369
 5385TIP3    H216041   4.960   5.705   1.470
 5386TIP3   OH216042   5.878   5.907   2.010
 5386TIP3    H116043   5.902   5.956   1.928
 5386TIP3    H216044   5.794   5.864   1.985
 5387TIP3   OH216045   5.436   4.983   1.244
 5387TIP3    H116046   5.340   4.964   1.254
 5387TIP3    H216047   5.444   5.077   1.269
 5388TIP3   OH216048   5.382   5.991   2.377
 5388TIP3    H116049   5.402   5.965   2.468
 5388TIP3    H216050   5.339   6.077   2.388
 5389TIP3   OH216051   5.506   5.231   1.348
 5389TIP3    H116052   5.602   5.235   1.363
 5389TIP3    H216053   5.489   5.310   1.294
 5390TIP3   OH216054   4.671   5.695   2.056
 5390TIP3    H116055   4.710   5.664   1.971
 5390TIP3    H216056   4.710   5.633   2.119
 5391TIP3   OH216057   5.122   5.819   1.198
 5391TIP3    H116058   5.075   5.905   1.206
 5391TIP3    H216059   5.069   5.764   1.260
 5392TIP3   OH216060   4.552   5.615   2.671
 5392TIP3    H116061   4.573   5.600   2.765
 5392TIP3    H216062   4.484   5.547   2.655
 5393TIP3   OH216063   5.278   5.729   2.689
 5393TIP3    H116064   5.218   5.668   2.643
 5393TIP3    H216065   5.365   5.693   2.662
 5394TIP3   OH216066   5.538   6.254   2.270
 5394TIP3    H116067   5.442   6.247   2.285
 5394TIP3    H216068   5.566   6.302   2.351
 5395TIP3   OH216069   5.947   5.321   1.184
 5395TIP3    H116070   5.884   5.276   1.122
 5395TIP3    H216071   5.946   5.409   1.141
 5396TIP3   OH216072   6.168   6.183   2.260
 5396TIP3    H116073   6.070   6.174   2.255
 5396TIP3    H216074   6.193   6.150   2.171
 5397TIP3   OH216075   5.648   6.139   1.091
 5397TIP3    H116076   5.624   6.068   1.153
 5397TIP3    H216077   5.661   6.092   1.007
 5398TIP3   OH216078   5.645   5.769   1.927
 5398TIP3    H116079   5.552   5.743   1.941
 5398TIP3    H216080   5.679   5.689   1.883
 5399TIP3   OH216081   4.773   5.997   1.683
 5399TIP3    H116082   4.774   6.078   1.628
 5399TIP3    H216083   4.679   5.978   1.689
 5400TIP3   OH216084   4.335   5.301   1.385
 5400TIP3    H116085   4.382   5.384   1.408
 5400TIP3    H216086   4.258   5.305   1.447
 5401TIP3   OH216087   4.909   5.762   1.624
 5401TIP3    H116088   4.876   5.851   1.646
 5401TIP3    H216089   4.875   5.710   1.699
 5402TIP3   OH216090   5.041   6.339   2.150
 5402TIP3    H116091   5.084   6.412   2.101
 5402TIP3    H216092   5.117   6.304   2.200
 5403TIP3   OH216093   4.689   6.238   1.533
 5403TIP3    H116094   4.605   6.249   1.580
 5403TIP3    H216095   4.724   6.330   1.536
 5404TIP3   OH216096   5.430   5.975   2.109
 5404TIP3    H116097   5.420   5.974   2.207
 5404TIP3    H216098   5.507   5.919   2.097
 5405TIP3   OH216099   5.405   5.867   0.994
 5405TIP3    H116100   5.460   5.843   1.072
 5405TIP3    H216101   5.318   5.839   1.025
 5406TIP3   OH216102   5.679   6.507   2.162
 5406TIP3    H116103   5.601   6.449   2.157
 5406TIP3    H216104   5.660   6.570   2.088
 5407TIP3   OH216105   5.742   6.338   0.816
 5407TIP3    H116106   5.757   6.398   0.740
 5407TIP3    H216107   5.666   6.386   0.856
 5408TIP3   OH216108   4.763   5.119   2.677
 5408TIP3    H116109   4.666   5.122   2.690
 5408TIP3    H216110   4.791   5.060   2.748
 5409TIP3   OH216111   5.565   5.802   1.209
 5409TIP3    H116112   5.555   5.735   1.280
 5409TIP3    H216113   5.663   5.799   1.197
 5410TIP3   OH216114   4.475   6.194   2.318
 5410TIP3    H116115   4.539   6.129   2.352
 5410TIP3    H216116   4.496   6.271   2.374
 5411TIP3   OH216117   4.768   5.847   0.992
 5411TIP3    H116118   4.784   5.754   0.965
 5411TIP3    H216119   4.750   5.836   1.088
 5412TIP3   OH216120   4.714   5.854   1.265
 5412TIP3    H116121   4.788   5.823   1.319
 5412TIP3    H216122   4.722   5.951   1.273
 5413TIP3   OH216123   4.451   5.545   1.467
 5413TIP3    H116124   4.384   5.588   1.523
 5413TIP3    H216125   4.465   5.614   1.400
 5414TIP3   OH216126   5.600   5.184   2.362
 5414TIP3    H116127   5.681   5.219   2.402
 5414TIP3    H216128   5.585   5.102   2.415
 5415TIP3   OH216129   5.479   4.934   1.526
 5415TIP3    H116130   5.467   4.956   1.432
 5415TIP3    H216131   5.519   5.016   1.561
 5416TIP3   OH216132   4.981   6.050   1.211
 5416TIP3    H116133   4.895   6.077   1.249
 5416TIP3    H216134   4.999   6.125   1.153
 5417TIP3   OH216135   5.168   5.115   1.628
 5417TIP3    H116136   5.234   5.186   1.611
 5417TIP3    H216137   5.174   5.106   1.726
 5418TIP3   OH216138   5.440   5.432   2.434
 5418TIP3    H116139   5.462   5.484   2.514
 5418TIP3    H216140   5.493   5.352   2.445
 5419TIP3   OH216141   5.313   4.840   1.729
 5419TIP3    H116142   5.310   4.916   1.789
 5419TIP3    H216143   5.374   4.874   1.660
 5420TIP3   OH216144   4.726   6.128   1.281
 5420TIP3    H116145   4.695   6.198   1.220
 5420TIP3    H216146   4.710   6.170   1.368
 5421TIP3   OH216147   4.826   4.839   1.518
 5421TIP3    H116148   4.824   4.928   1.557
 5421TIP3    H216149   4.921   4.820   1.526
 5422TIP3   OH216150   6.083   5.332   2.416
 5422TIP3    H116151   5.985   5.331   2.425
 5422TIP3    H216152   6.092   5.288   2.331
 5423TIP3   OH216153   5.730   5.527   1.804
 5423TIP3    H116154   5.654   5.467   1.815
 5423TIP3    H216155   5.801   5.479   1.851
 5424TIP3   OH216156   4.445   5.755   1.273
 5424TIP3    H116157   4.516   5.822   1.280
 5424TIP3    H216158   4.487   5.697   1.206
 5425TIP3   OH216159   4.388   5.031   1.406
 5425TIP3    H116160   4.384   5.128   1.402
 5425TIP3    H216161   4.306   5.005   1.363
 5426TIP3   OH216162   5.698   6.484   1.752
 5426TIP3    H116163   5.655   6.531   1.677
 5426TIP3    H216164   5.792   6.501   1.731
 5427TIP3   OH216165   4.774   4.751   2.280
 5427TIP3    H116166   4.744   4.716   2.193
 5427TIP3    H216167   4.765   4.673   2.338
 5428TIP3   OH216168   4.312   5.994   1.671
 5428TIP3    H116169   4.220   5.997   1.699
 5428TIP3    H216170   4.300   6.020   1.577
 5429TIP3   OH216171   4.472   6.513   2.730
 5429TIP3    H116172   4.557   6.514   2.779
 5429TIP3    H216173   4.452   6.418   2.732
 5430TIP3   OH216174   4.952   6.477   2.774
 5430TIP3    H116175   5.046   6.455   2.784
 5430TIP3    H216176   4.927   6.416   2.702
 5431TIP3   OH216177   4.931   6.050   0.904
 5431TIP3    H116178   4.874   5.980   0.943
 5431TIP3    H216179   5.010   5.997   0.881
 5432TIP3   OH216180   5.592   6.381   2.509
 5432TIP3    H116181   5.582   6.312   2.578
 5432TIP3    H216182   5.669   6.432   2.542
 5433TIP3   OH216183   5.366   6.090   0.817
 5433TIP3    H116184   5.411   6.026   0.877
 5433TIP3    H216185   5.427   6.094   0.741
 5434TIP3   OH216186   4.602   5.918   2.931
 5434TIP3    H116187   4.618   5.822   2.940
 5434TIP3    H216188   4.514   5.919   2.889
 5435TIP3   OH216189   4.579   5.569   1.127
 5435TIP3    H116190   4.633   5.532   1.199
 5435TIP3    H216191   4.647   5.573   1.056
 5436TIP3   OH216192   5.210   6.003   2.705
 5436TIP3    H116193   5.167   6.018   2.619
 5436TIP3    H216194   5.240   5.910   2.699
 5437TIP3   OH216195   5.085   5.767   0.929
 5437TIP3    H116196   5.090   5.780   1.026
 5437TIP3    H216197   5.089   5.669   0.925
 5438TIP3   OH216198   5.702   6.012   2.313
 5438TIP3    H116199   5.775   6.058   2.268
 5438TIP3    H216200   5.629   6.074   2.299
 5439TIP3   OH216201   4.722   5.653   2.913
 5439TIP3    H116202   4.794   5.592   2.895
 5439TIP3    H216203   4.747   5.686   3.002
 5440TIP3   OH216204   4.786   5.472   1.347
 5440TIP3    H116205   4.760   5.430   1.430
 5440TIP3    H216206   4.823   5.397   1.297
 5441TIP3   OH216207   5.055   5.537   2.576
 5441TIP3    H116208   4.977   5.597   2.577
 5441TIP3    H216209   5.105   5.571   2.499
 5442TIP3   OH216210   4.887   5.268   1.188
 5442TIP3    H116211   4.862   5.269   1.093
 5442TIP3    H216212   4.985   5.271   1.181
 5443TIP3   OH216213   5.573   5.939   2.709
 5443TIP3    H116214   5.652   5.910   2.663
 5443TIP3    H216215   5.567   5.873   2.781
 5444TIP3   OH216216   5.706   5.597   0.852
 5444TIP3    H116217   5.689   5.549   0.769
 5444TIP3    H216218   5.672   5.686   0.827
 5445TIP3   OH216219   5.179   5.325   2.702
 5445TIP3    H116220   5.179   5.245   2.646
 5445TIP3    H216221   5.134   5.391   2.644
 5446TIP3   OH216222   5.181   5.112   2.509
 5446TIP3    H116223   5.209   5.151   2.424
 5446TIP3    H216224   5.088   5.088   2.491
 5447TIP3   OH216225   5.207   5.646   2.383
 5447TIP3    H116226   5.291   5.653   2.336
 5447TIP3    H216227   5.152   5.713   2.337
 5448TIP3   OH216228   5.789   5.614   2.762
 5448TIP3    H116229   5.835   5.530   2.778
 5448TIP3    H216230   5.860   5.669   2.728
 5449TIP3   OH216231   5.832   5.867   2.501
 5449TIP3    H116232   5.774   5.921   2.441
 5449TIP3    H216233   5.920   5.886   2.460
 5450TIP3   OH216234   5.056   5.436   2.932
 5450TIP3    H116235   4.988   5.367   2.948
 5450TIP3    H216236   5.091   5.408   2.845
 5451TIP3   OH216237   5.313   4.875   2.576
 5451TIP3    H116238   5.263   4.956   2.554
 5451TIP3    H216239   5.244   4.806   2.565
 5452TIP3   OH216240   5.439   5.379   2.793
 5452TIP3    H116241   5.427   5.365   2.888
 5452TIP3    H216242   5.349   5.354   2.762
 5453TIP3   OH216243   5.679   5.329   2.648
 5453TIP3    H116244   5.603   5.329   2.710
 5453TIP3    H216245   5.752   5.296   2.705
 5454TIP3   OH216246   5.912   5.268   2.798
 5454TIP3    H116247   5.921   5.172   2.818
 5454TIP3    H216248   5.904   5.308   2.887
 5455TIP3   OH216249   4.897   5.216   2.986
 5455TIP3    H116250   4.901   5.124   2.953
 5455TIP3    H216251   4.934   5.204   3.076
 5456TIP3   OH216252   5.409   4.886   2.834
 5456TIP3    H116253   5.474   4.813   2.829
 5456TIP3    H216254   5.368   4.879   2.745
 5457TIP3   OH216255   5.475   5.101   2.991
 5457TIP3    H116256   5.453   5.029   2.928
 5457TIP3    H216257   5.396   5.158   2.986
 5458TIP3   OH216258   4.698   6.339   1.099
 5458TIP3    H116259   4.791   6.325   1.075
 5458TIP3    H216260   4.666   6.379   1.016
 5459TIP3   OH216261   4.175   5.709   1.311
 5459TIP3    H116262   4.270   5.730   1.294
 5459TIP3    H216263   4.167   5.621   1.269
 5460TIP3   OH216264   4.092   6.318   1.723
 5460TIP3    H116265   4.025   6.261   1.679
 5460TIP3    H216266   4.122   6.261   1.795
 5461TIP3   OH216267   4.180   6.207   1.968
 5461TIP3    H116268   4.202   6.112   1.968
 5461TIP3    H216269   4.272   6.242   1.980
 5462TIP3   OH216270   5.952   6.572   1.710
 5462TIP3    H116271   5.980   6.605   1.797
 5462TIP3    H216272   6.014   6.617   1.650
 5463TIP3   OH216273   5.985   6.593   1.992
 5463TIP3    H116274   5.936   6.508   1.984
 5463TIP3    H216275   6.053   6.565   2.055
 5464TIP3   OH216276   6.027   6.271   2.564
 5464TIP3    H116277   5.955   6.278   2.630
 5464TIP3    H216278   6.068   6.360   2.570
 5465TIP3   OH216279   5.844   5.784   1.185
 5465TIP3    H116280   5.913   5.847   1.157
 5465TIP3    H216281   5.886   5.745   1.264
 5466TIP3   OH216282   5.971   5.653   1.389
 5466TIP3    H116283   5.905   5.609   1.448
 5466TIP3    H216284   6.036   5.688   1.453
 5467TIP3   OH216285   6.027   6.044   1.821
 5467TIP3    H116286   6.080   5.976   1.774
 5467TIP3    H216287   6.019   6.114   1.754
 5468TIP3   OH216288   5.857   6.345   2.014
 5468TIP3    H116289   5.785   6.384   2.067
 5468TIP3    H216290   5.807   6.296   1.945
 5469TIP3   OH216291   5.910   5.560   1.034
 5469TIP3    H116292   5.837   5.561   0.968
 5469TIP3    H216293   5.881   5.635   1.090
 5470TIP3   OH216294   5.776   5.234   0.992
 5470TIP3    H116295   5.743   5.266   0.907
 5470TIP3    H216296   5.753   5.139   0.985
 5471TIP3   OH216297   5.785   5.507   1.534
 5471TIP3    H116298   5.793   5.411   1.527
 5471TIP3    H216299   5.771   5.520   1.630
 5472TIP3   OH216300   4.410   5.588   2.278
 5472TIP3    H116301   4.410   5.550   2.187
 5472TIP3    H216302   4.507   5.586   2.298
 5473TIP3   OH216303   6.077   5.932   2.392
 5473TIP3    H116304   6.148   5.865   2.383
 5473TIP3    H216305   6.102   5.998   2.326
 5474TIP3   OH216306   6.262   5.736   2.407
 5474TIP3    H116307   6.185   5.687   2.445
 5474TIP3    H216308   6.332   5.669   2.422
 5475TIP3   OH216309   5.723   4.968   0.977
 5475TIP3    H116310   5.799   4.935   1.029
 5475TIP3    H216311   5.652   4.906   0.998
 5476TIP3   OH216312   5.782   5.224   1.428
 5476TIP3    H116313   5.822   5.135   1.444
 5476TIP3    H216314   5.841   5.255   1.357
 5477TIP3   OH216315   5.943   5.398   1.924
 5477TIP3    H116316   6.029   5.423   1.884
 5477TIP3    H216317   5.957   5.433   2.014
 5478TIP3   OH216318   6.013   5.542   2.157
 5478TIP3    H116319   5.935   5.575   2.205
 5478TIP3    H216320   6.045   5.623   2.112
 5479TIP3   OH216321   4.631   5.270   2.959
 5479TIP3    H116322   4.729   5.262   2.961
 5479TIP3    H216323   4.606   5.183   2.997
 5480TIP3   OH216324   5.889   4.974   1.468
 5480TIP3    H116325   5.938   4.957   1.551
 5480TIP3    H216326   5.829   4.897   1.466
 5481TIP3   OH216327   4.591   4.960   2.287
 5481TIP3    H116328   4.651   4.884   2.297
 5481TIP3    H216329   4.654   5.033   2.280
 5482TIP3   OH216330   4.392   5.234   2.358
 5482TIP3    H116331   4.441   5.226   2.274
 5482TIP3    H216332   4.430   5.314   2.395
 5483TIP3   OH216333   6.333   5.267   2.533
 5483TIP3    H116334   6.246   5.309   2.545
 5483TIP3    H216335   6.309   5.195   2.472
 5484TIP3   OH216336   5.971   4.908   1.099
 5484TIP3    H116337   6.010   4.835   1.047
 5484TIP3    H216338   6.039   4.977   1.094
 5485TIP3   OH216339   4.377   4.741   1.864
 5485TIP3    H116340   4.283   4.733   1.888
 5485TIP3    H216341   4.373   4.796   1.783
 5486TIP3   OH216342   5.535   6.442   1.367
 5486TIP3    H116343   5.585   6.427   1.284
 5486TIP3    H216344   5.590   6.507   1.412
 5487TIP3   OH216345   4.598   4.819   2.676
 5487TIP3    H116346   4.546   4.810   2.758
 5487TIP3    H216347   4.530   4.855   2.616
 5488TIP3   OH216348   4.637   6.245   2.751
 5488TIP3    H116349   4.544   6.218   2.736
 5488TIP3    H216350   4.648   6.224   2.845
 5489TIP3   OH216351   4.813   6.276   2.297
 5489TIP3    H116352   4.768   6.355   2.260
 5489TIP3    H216353   4.900   6.288   2.254
 5490TIP3   OH216354   5.259   6.521   2.437
 5490TIP3    H116355   5.300   6.521   2.526
 5490TIP3    H216356   5.325   6.573   2.386
 5491TIP3   OH216357   5.438   6.674   2.296
 5491TIP3    H116358   5.509   6.621   2.256
 5491TIP3    H216359   5.490   6.731   2.357
 5492TIP3   OH216360   6.230   5.032   2.395
 5492TIP3    H116361   6.140   5.026   2.358
 5492TIP3    H216362   6.262   4.940   2.383
 5493TIP3   OH216363   4.489   6.529   2.322
 5493TIP3    H116364   4.398   6.562   2.302
 5493TIP3    H216365   4.504   6.572   2.407
 5494TIP3   OH216366   4.727   6.513   2.182
 5494TIP3    H116367   4.640   6.525   2.226
 5494TIP3    H216368   4.708   6.547   2.092
 5495TIP3   OH216369   5.153   6.541   1.979
 5495TIP3    H116370   5.085   6.562   1.913
 5495TIP3    H216371   5.166   6.628   2.022
 5496TIP3   OH216372   5.422   6.481   2.031
 5496TIP3    H116373   5.328   6.497   2.011
 5496TIP3    H216374   5.464   6.557   1.988
 5497TIP3   OH216375   5.632   6.673   1.946
 5497TIP3    H116376   5.616   6.756   1.897
 5497TIP3    H216377   5.655   6.611   1.873
 5498TIP3   OH216378   4.404   6.325   2.067
 5498TIP3    H116379   4.427   6.308   2.161
 5498TIP3    H216380   4.481   6.283   2.023
 5499TIP3   OH216381   4.596   6.197   1.925
 5499TIP3    H116382   4.613   6.113   1.974
 5499TIP3    H216383   4.687   6.234   1.922
 5500TIP3   OH216384   4.861   6.292   1.930
 5500TIP3    H116385   4.893   6.200   1.918
 5500TIP3    H216386   4.908   6.314   2.012
 5501TIP3   OH216387   5.436   4.948   2.013
 5501TIP3    H116388   5.394   4.878   2.067
 5501TIP3    H216389   5.510   4.901   1.971
 5502TIP3   OH216390   5.961   4.835   1.923
 5502TIP3    H116391   5.997   4.884   1.846
 5502TIP3    H216392   5.865   4.848   1.913
 5503TIP3   OH216393   6.056   4.931   1.685
 5503TIP3    H116394   6.128   4.878   1.645
 5503TIP3    H216395   6.090   5.022   1.669
 5504TIP3   OH216396   4.687   4.658   2.031
 5504TIP3    H116397   4.594   4.624   2.033
 5504TIP3    H216398   4.736   4.573   2.028
 5505TIP3   OH216399   4.473   4.529   1.681
 5505TIP3    H116400   4.503   4.585   1.608
 5505TIP3    H216401   4.446   4.594   1.748
 5506TIP3   OH216402   5.129   4.693   1.912
 5506TIP3    H116403   5.189   4.740   1.852
 5506TIP3    H216404   5.156   4.727   1.998
 5507TIP3   OH216405   5.677   4.837   1.895
 5507TIP3    H116406   5.677   4.797   1.807
 5507TIP3    H216407   5.665   4.758   1.953
 5508TIP3   OH216408   5.708   4.760   1.459
 5508TIP3    H116409   5.620   4.800   1.470
 5508TIP3    H216410   5.695   4.674   1.505
 5509TIP3   OH216411   4.188   6.100   1.457
 5509TIP3    H116412   4.103   6.066   1.423
 5509TIP3    H216413   4.179   6.193   1.430
 5510TIP3   OH216414   4.591   4.689   1.441
 5510TIP3    H116415   4.639   4.624   1.386
 5510TIP3    H216416   4.666   4.741   1.478
 5511TIP3   OH216417   5.103   4.864   1.541
 5511TIP3    H116418   5.161   4.815   1.601
 5511TIP3    H216419   5.126   4.956   1.567
 5512TIP3   OH216420   4.962   6.287   1.041
 5512TIP3    H116421   5.051   6.308   1.006
 5512TIP3    H216422   4.940   6.212   0.981
 5513TIP3   OH216423   5.681   6.406   1.136
 5513TIP3    H116424   5.673   6.308   1.122
 5513TIP3    H216425   5.637   6.439   1.055
 5514TIP3   OH216426   4.895   4.942   2.924
 5514TIP3    H116427   4.860   4.870   2.980
 5514TIP3    H216428   4.989   4.940   2.951
 5515TIP3   OH216429   5.144   4.937   3.042
 5515TIP3    H116430   5.229   4.908   3.004
 5515TIP3    H216431   5.130   4.867   3.110
 5516TIP3   OH216432   4.268   6.126   1.097
 5516TIP3    H116433   4.267   6.148   1.191
 5516TIP3    H216434   4.356   6.083   1.086
 5517TIP3   OH216435   5.971   4.995   2.830
 5517TIP3    H116436   5.985   4.966   2.923
 5517TIP3    H216437   6.061   4.988   2.793
 5518TIP3   OH216438   5.909   6.551   2.320
 5518TIP3    H116439   5.830   6.518   2.273
 5518TIP3    H216440   5.887   6.646   2.326
 5519TIP3   OH216441   7.174   5.920   1.092
 5519TIP3    H116442   7.145   6.011   1.070
 5519TIP3    H216443   7.100   5.870   1.054
 5520TIP3   OH216444   7.170   5.925   1.472
 5520TIP3    H116445   7.205   5.894   1.558
 5520TIP3    H216446   7.133   5.843   1.435
 5521TIP3   OH216447   6.471   5.819   1.836
 5521TIP3    H116448   6.501   5.750   1.899
 5521TIP3    H216449   6.554   5.865   1.820
 5522TIP3   OH216450   7.417   6.224   1.150
 5522TIP3    H116451   7.403   6.154   1.215
 5522TIP3    H216452   7.445   6.299   1.205
 5523TIP3   OH216453   6.447   6.229   1.563
 5523TIP3    H116454   6.437   6.131   1.563
 5523TIP3    H216455   6.543   6.236   1.548
 5524TIP3   OH216456   6.150   5.432   1.343
 5524TIP3    H116457   6.099   5.514   1.357
 5524TIP3    H216458   6.081   5.375   1.304
 5525TIP3   OH216459   6.210   5.717   1.517
 5525TIP3    H116460   6.258   5.639   1.553
 5525TIP3    H216461   6.268   5.744   1.445
 5526TIP3   OH216462   7.067   6.690   1.173
 5526TIP3    H116463   7.113   6.619   1.122
 5526TIP3    H216464   7.058   6.646   1.258
 5527TIP3   OH216465   6.971   6.149   1.519
 5527TIP3    H116466   7.009   6.071   1.475
 5527TIP3    H216467   7.055   6.195   1.541
 5528TIP3   OH216468   7.985   5.469   1.515
 5528TIP3    H116469   8.015   5.552   1.557
 5528TIP3    H216470   8.008   5.486   1.422
 5529TIP3   OH216471   7.384   5.651   1.549
 5529TIP3    H116472   7.427   5.566   1.570
 5529TIP3    H216473   7.353   5.634   1.458
 5530TIP3   OH216474   6.721   5.310   1.515
 5530TIP3    H116475   6.703   5.381   1.451
 5530TIP3    H216476   6.675   5.235   1.470
 5531TIP3   OH216477   7.415   5.402   1.138
 5531TIP3    H116478   7.488   5.386   1.202
 5531TIP3    H216479   7.469   5.436   1.062
 5532TIP3   OH216480   6.356   5.511   1.621
 5532TIP3    H116481   6.439   5.490   1.669
 5532TIP3    H216482   6.368   5.455   1.542
 5533TIP3   OH216483   6.795   5.709   1.419
 5533TIP3    H116484   6.890   5.685   1.429
 5533TIP3    H216485   6.757   5.625   1.385
 5534TIP3   OH216486   8.060   5.677   1.683
 5534TIP3    H116487   7.975   5.723   1.665
 5534TIP3    H216488   8.072   5.700   1.777
 5535TIP3   OH216489   6.719   5.293   1.949
 5535TIP3    H116490   6.659   5.328   1.880
 5535TIP3    H216491   6.666   5.312   2.030
 5536TIP3   OH216492   7.059   6.136   0.966
 5536TIP3    H116493   7.036   6.126   0.872
 5536TIP3    H216494   7.020   6.223   0.987
 5537TIP3   OH216495   6.826   6.068   1.743
 5537TIP3    H116496   6.765   6.135   1.779
 5537TIP3    H216497   6.869   6.117   1.669
 5538TIP3   OH216498   7.625   5.405   1.309
 5538TIP3    H116499   7.621   5.350   1.387
 5538TIP3    H216500   7.679   5.480   1.339
 5539TIP3   OH216501   6.590   5.408   1.733
 5539TIP3    H116502   6.653   5.479   1.756
 5539TIP3    H216503   6.638   5.366   1.657
 5540TIP3   OH216504   6.653   6.262   1.846
 5540TIP3    H116505   6.625   6.344   1.800
 5540TIP3    H216506   6.573   6.244   1.899
 5541TIP3   OH216507   6.048   5.953   1.077
 5541TIP3    H116508   6.004   5.981   0.995
 5541TIP3    H216509   6.078   6.039   1.114
 5542TIP3   OH216510   7.486   6.468   1.320
 5542TIP3    H116511   7.395   6.459   1.357
 5542TIP3    H216512   7.477   6.553   1.272
 5543TIP3   OH216513   7.778   5.371   1.682
 5543TIP3    H116514   7.690   5.396   1.649
 5543TIP3    H216515   7.838   5.401   1.610
 5544TIP3   OH216516   7.074   5.010   1.660
 5544TIP3    H116517   7.064   4.915   1.679
 5544TIP3    H216518   6.996   5.046   1.708
 5545TIP3   OH216519   7.201   6.508   1.025
 5545TIP3    H116520   7.244   6.427   0.988
 5545TIP3    H216521   7.240   6.574   0.964
 5546TIP3   OH216522   7.330   6.302   0.898
 5546TIP3    H116523   7.321   6.224   0.841
 5546TIP3    H216524   7.365   6.263   0.981
 5547TIP3   OH216525   7.712   6.380   1.661
 5547TIP3    H116526   7.702   6.303   1.602
 5547TIP3    H216527   7.696   6.455   1.599
 5548TIP3   OH216528   7.005   5.777   0.917
 5548TIP3    H116529   6.922   5.822   0.893
 5548TIP3    H216530   7.047   5.764   0.830
 5549TIP3   OH216531   6.969   5.553   0.664
 5549TIP3    H116532   7.054   5.591   0.689
 5549TIP3    H216533   6.998   5.485   0.600
 5550TIP3   OH216534   7.908   6.019   1.506
 5550TIP3    H116535   7.825   6.070   1.511
 5550TIP3    H216536   7.937   6.041   1.416
 5551TIP3   OH216537   7.352   5.856   0.895
 5551TIP3    H116538   7.300   5.880   0.976
 5551TIP3    H216539   7.438   5.832   0.936
 5552TIP3   OH216540   7.587   5.896   1.803
 5552TIP3    H116541   7.584   5.979   1.854
 5552TIP3    H216542   7.501   5.899   1.757
 5553TIP3   OH216543   6.585   5.855   1.309
 5553TIP3    H116544   6.542   5.796   1.243
 5553TIP3    H216545   6.661   5.800   1.339
 5554TIP3   OH216546   6.713   6.263   1.458
 5554TIP3    H116547   6.694   6.225   1.370
 5554TIP3    H216548   6.803   6.230   1.475
 5555TIP3   OH216549   6.717   5.827   1.663
 5555TIP3    H116550   6.751   5.801   1.575
 5555TIP3    H216551   6.764   5.911   1.680
 5556TIP3   OH216552   7.244   6.465   1.440
 5556TIP3    H116553   7.233   6.543   1.497
 5556TIP3    H216554   7.231   6.390   1.502
 5557TIP3   OH216555   6.859   6.388   1.979
 5557TIP3    H116556   6.799   6.434   2.039
 5557TIP3    H216557   6.796   6.330   1.930
 5558TIP3   OH216558   7.201   5.720   0.715
 5558TIP3    H116559   7.256   5.773   0.778
 5558TIP3    H216560   7.223   5.761   0.631
 5559TIP3   OH216561   6.614   5.941   2.087
 5559TIP3    H116562   6.616   6.027   2.134
 5559TIP3    H216563   6.519   5.918   2.096
 5560TIP3   OH216564   6.931   6.397   1.007
 5560TIP3    H116565   7.021   6.429   1.025
 5560TIP3    H216566   6.904   6.465   0.943
 5561TIP3   OH216567   6.594   6.603   2.059
 5561TIP3    H116568   6.599   6.570   1.967
 5561TIP3    H216569   6.543   6.532   2.105
 5562TIP3   OH216570   7.699   4.945   0.771
 5562TIP3    H116571   7.620   4.963   0.826
 5562TIP3    H216572   7.710   5.030   0.724
 5563TIP3   OH216573   6.450   5.698   1.115
 5563TIP3    H116574   6.380   5.738   1.059
 5563TIP3    H216575   6.418   5.607   1.125
 5564TIP3   OH216576   6.234   6.084   2.017
 5564TIP3    H116577   6.167   6.060   1.950
 5564TIP3    H216578   6.270   5.996   2.043
 5565TIP3   OH216579   6.085   6.274   1.649
 5565TIP3    H116580   6.180   6.266   1.639
 5565TIP3    H216581   6.076   6.353   1.704
 5566TIP3   OH216582   7.950   6.725   1.708
 5566TIP3    H116583   7.949   6.629   1.722
 5566TIP3    H216584   7.867   6.750   1.754
 5567TIP3   OH216585   7.059   6.514   1.841
 5567TIP3    H116586   7.055   6.607   1.874
 5567TIP3    H216587   6.987   6.472   1.892
 5568TIP3   OH216588   6.763   6.645   0.758
 5568TIP3    H116589   6.775   6.671   0.665
 5568TIP3    H216590   6.764   6.730   0.805
 5569TIP3   OH216591   6.253   6.489   1.179
 5569TIP3    H116592   6.302   6.480   1.264
 5569TIP3    H216593   6.199   6.409   1.180
 5570TIP3   OH216594   7.027   6.539   0.783
 5570TIP3    H116595   6.969   6.607   0.747
 5570TIP3    H216596   7.112   6.561   0.742
 5571TIP3   OH216597   7.839   5.856   1.982
 5571TIP3    H116598   7.758   5.866   1.930
 5571TIP3    H216599   7.857   5.760   1.973
 5572TIP3   OH216600   6.435   6.271   2.014
 5572TIP3    H116601   6.487   6.244   2.093
 5572TIP3    H216602   6.362   6.205   2.014
 5573TIP3   OH216603   6.836   5.086   1.793
 5573TIP3    H116604   6.747   5.056   1.764
 5573TIP3    H216605   6.810   5.169   1.839
 5574TIP3   OH216606   7.371   5.204   1.986
 5574TIP3    H116607   7.440   5.174   2.048
 5574TIP3    H216608   7.288   5.181   2.034
 5575TIP3   OH216609   7.608   5.631   1.905
 5575TIP3    H116610   7.559   5.628   1.990
 5575TIP3    H216611   7.584   5.719   1.869
 5576TIP3   OH216612   6.979   5.137   0.763
 5576TIP3    H116613   6.947   5.133   0.855
 5576TIP3    H216614   6.941   5.053   0.729
 5577TIP3   OH216615   6.767   5.604   1.811
 5577TIP3    H116616   6.717   5.624   1.892
 5577TIP3    H216617   6.751   5.685   1.757
 5578TIP3   OH216618   6.650   5.491   1.325
 5578TIP3    H116619   6.559   5.462   1.342
 5578TIP3    H216620   6.665   5.450   1.236
 5579TIP3   OH216621   7.142   5.577   1.054
 5579TIP3    H116622   7.091   5.647   1.009
 5579TIP3    H216623   7.197   5.542   0.981
 5580TIP3   OH216624   7.317   5.855   2.140
 5580TIP3    H116625   7.295   5.780   2.201
 5580TIP3    H216626   7.412   5.866   2.160
 5581TIP3   OH216627   7.299   5.604   1.290
 5581TIP3    H116628   7.238   5.630   1.218
 5581TIP3    H216629   7.335   5.523   1.249
 5582TIP3   OH216630   6.586   5.633   2.019
 5582TIP3    H116631   6.620   5.692   2.088
 5582TIP3    H216632   6.574   5.549   2.069
 5583TIP3   OH216633   6.635   5.109   0.730
 5583TIP3    H116634   6.627   5.107   0.827
 5583TIP3    H216635   6.556   5.162   0.706
 5584TIP3   OH216636   6.179   5.155   1.601
 5584TIP3    H116637   6.257   5.185   1.653
 5584TIP3    H216638   6.218   5.120   1.519
 5585TIP3   OH216639   6.151   5.133   1.121
 5585TIP3    H116640   6.195   5.171   1.042
 5585TIP3    H216641   6.089   5.207   1.140
 5586TIP3   OH216642   7.309   5.849   1.714
 5586TIP3    H116643   7.342   5.778   1.655
 5586TIP3    H216644   7.280   5.795   1.791
 5587TIP3   OH216645   6.981   5.318   1.387
 5587TIP3    H116646   6.901   5.310   1.442
 5587TIP3    H216647   7.052   5.305   1.452
 5588TIP3   OH216648   6.413   5.367   1.394
 5588TIP3    H116649   6.319   5.372   1.366
 5588TIP3    H216650   6.438   5.275   1.371
 5589TIP3   OH216651   6.681   5.366   1.083
 5589TIP3    H116652   6.776   5.377   1.062
 5589TIP3    H216653   6.636   5.386   0.999
 5590TIP3   OH216654   7.471   5.389   1.591
 5590TIP3    H116655   7.433   5.400   1.681
 5590TIP3    H216656   7.409   5.326   1.552
 5591TIP3   OH216657   6.517   5.400   0.865
 5591TIP3    H116658   6.453   5.352   0.809
 5591TIP3    H216659   6.576   5.436   0.796
 5592TIP3   OH216660   7.641   7.077   1.807
 5592TIP3    H116661   7.640   7.100   1.712
 5592TIP3    H216662   7.722   7.123   1.837
 5593TIP3   OH216663   6.599   6.193   2.228
 5593TIP3    H116664   6.679   6.214   2.280
 5593TIP3    H216665   6.534   6.183   2.301
 5594TIP3   OH216666   7.062   5.642   1.483
 5594TIP3    H116667   7.131   5.600   1.430
 5594TIP3    H216668   7.070   5.595   1.569
 5595TIP3   OH216669   6.584   5.127   1.362
 5595TIP3    H116670   6.550   5.048   1.409
 5595TIP3    H216671   6.638   5.087   1.293
 5596TIP3   OH216672   7.038   5.536   1.773
 5596TIP3    H116673   6.949   5.572   1.787
 5596TIP3    H216674   7.096   5.597   1.823
 5597TIP3   OH216675   6.754   5.928   0.869
 5597TIP3    H116676   6.690   5.854   0.864
 5597TIP3    H216677   6.744   5.957   0.963
 5598TIP3   OH216678   7.675   6.164   1.496
 5598TIP3    H116679   7.699   6.213   1.415
 5598TIP3    H216680   7.590   6.121   1.470
 5599TIP3   OH216681   7.231   5.235   0.740
 5599TIP3    H116682   7.134   5.219   0.744
 5599TIP3    H216683   7.238   5.332   0.753
 5600TIP3   OH216684   7.170   6.242   1.866
 5600TIP3    H116685   7.205   6.222   1.953
 5600TIP3    H216686   7.141   6.334   1.874
 5601TIP3   OH216687   7.300   5.489   0.838
 5601TIP3    H116688   7.396   5.492   0.855
 5601TIP3    H216689   7.286   5.565   0.779
 5602TIP3   OH216690   6.468   5.952   1.543
 5602TIP3    H116691   6.505   5.923   1.457
 5602TIP3    H216692   6.509   5.889   1.604
 5603TIP3   OH216693   6.913   6.081   0.719
 5603TIP3    H116694   6.866   6.164   0.732
 5603TIP3    H216695   6.861   6.019   0.776
 5604TIP3   OH216696   6.347   5.873   2.158
 5604TIP3    H116697   6.367   5.855   2.252
 5604TIP3    H216698   6.280   5.804   2.139
 5605TIP3   OH216699   7.075   5.985   2.176
 5605TIP3    H116700   7.017   5.926   2.127
 5605TIP3    H216701   7.163   5.950   2.150
 5606TIP3   OH216702   7.335   6.506   1.762
 5606TIP3    H116703   7.238   6.505   1.773
 5606TIP3    H216704   7.362   6.559   1.840
 5607TIP3   OH216705   7.706   5.592   0.713
 5607TIP3    H116706   7.740   5.522   0.653
 5607TIP3    H216707   7.706   5.670   0.656
 5608TIP3   OH216708   7.963   6.436   1.750
 5608TIP3    H116709   7.865   6.429   1.742
 5608TIP3    H216710   7.989   6.405   1.660
 5609TIP3   OH216711   7.440   6.025   1.416
 5609TIP3    H116712   7.347   6.000   1.428
 5609TIP3    H216713   7.475   5.946   1.371
 5610TIP3   OH216714   6.569   6.253   1.171
 5610TIP3    H116715   6.569   6.336   1.119
 5610TIP3    H216716   6.474   6.238   1.181
 5611TIP3   OH216717   6.132   5.557   0.871
 5611TIP3    H116718   6.179   5.640   0.895
 5611TIP3    H216719   6.055   5.560   0.932
 5612TIP3   OH216720   6.702   6.018   1.115
 5612TIP3    H116721   6.670   6.108   1.137
 5612TIP3    H216722   6.670   5.967   1.191
 5613TIP3   OH216723   6.839   6.596   1.639
 5613TIP3    H116724   6.879   6.668   1.586
 5613TIP3    H216725   6.918   6.559   1.682
 5614TIP3   OH216726   6.493   6.483   1.032
 5614TIP3    H116727   6.403   6.497   1.067
 5614TIP3    H216728   6.523   6.576   1.022
 5615TIP3   OH216729   7.226   6.232   1.596
 5615TIP3    H116730   7.216   6.226   1.694
 5615TIP3    H216731   7.304   6.177   1.581
 5616TIP3   OH216732   7.117   6.207   0.543
 5616TIP3    H116733   7.177   6.166   0.608
 5616TIP3    H216734   7.055   6.136   0.520
 5617TIP3   OH216735   7.473   6.766   1.649
 5617TIP3    H116736   7.395   6.709   1.640
 5617TIP3    H216737   7.459   6.829   1.575
 5618TIP3   OH216738   6.558   5.378   2.163
 5618TIP3    H116739   6.461   5.380   2.176
 5618TIP3    H216740   6.586   5.317   2.234
 5619TIP3   OH216741   7.337   6.074   0.720
 5619TIP3    H116742   7.339   5.999   0.783
 5619TIP3    H216743   7.432   6.075   0.694
 5620TIP3   OH216744   6.278   6.461   1.797
 5620TIP3    H116745   6.325   6.379   1.815
 5620TIP3    H216746   6.309   6.516   1.870
 5621TIP3   OH216747   6.539   6.102   0.502
 5621TIP3    H116748   6.552   6.027   0.441
 5621TIP3    H216749   6.538   6.056   0.588
 5622TIP3   OH216750   6.525   6.140   0.769
 5622TIP3    H116751   6.552   6.055   0.808
 5622TIP3    H216752   6.591   6.199   0.810
 5623TIP3   OH216753   6.246   5.802   0.955
 5623TIP3    H116754   6.179   5.845   1.012
 5623TIP3    H216755   6.260   5.872   0.889
 5624TIP3   OH216756   7.393   5.444   1.851
 5624TIP3    H116757   7.478   5.477   1.884
 5624TIP3    H216758   7.382   5.361   1.903
 5625TIP3   OH216759   7.274   5.191   1.015
 5625TIP3    H116760   7.261   5.212   0.921
 5625TIP3    H216761   7.315   5.273   1.049
 5626TIP3   OH216762   6.711   6.341   0.692
 5626TIP3    H116763   6.738   6.407   0.760
 5626TIP3    H216764   6.789   6.347   0.633
 5627TIP3   OH216765   6.963   5.372   1.115
 5627TIP3    H116766   7.030   5.442   1.097
 5627TIP3    H216767   6.971   5.363   1.212
 5628TIP3   OH216768   7.235   5.688   1.921
 5628TIP3    H116769   7.260   5.737   2.002
 5628TIP3    H216770   7.290   5.607   1.928
 5629TIP3   OH216771   7.109   5.095   1.216
 5629TIP3    H116772   7.108   5.171   1.277
 5629TIP3    H216773   7.170   5.129   1.146
 5630TIP3   OH216774   6.621   5.096   1.006
 5630TIP3    H116775   6.619   5.185   1.044
 5630TIP3    H216776   6.716   5.076   1.014
 5631TIP3   OH216777   7.875   5.590   1.900
 5631TIP3    H116778   7.777   5.589   1.909
 5631TIP3    H216779   7.885   5.542   1.817
 5632TIP3   OH216780   7.526   5.784   1.291
 5632TIP3    H116781   7.451   5.723   1.301
 5632TIP3    H216782   7.598   5.736   1.338
 5633TIP3   OH216783   6.240   6.026   0.767
 5633TIP3    H116784   6.316   6.085   0.782
 5633TIP3    H216785   6.279   5.964   0.701
 5634TIP3   OH216786   6.181   5.286   0.898
 5634TIP3    H116787   6.182   5.384   0.890
 5634TIP3    H216788   6.107   5.263   0.841
 5635TIP3   OH216789   7.494   6.740   1.242
 5635TIP3    H116790   7.448   6.786   1.167
 5635TIP3    H216791   7.587   6.763   1.220
 5636TIP3   OH216792   6.569   5.008   1.767
 5636TIP3    H116793   6.540   4.974   1.680
 5636TIP3    H216794   6.560   4.928   1.824
 5637TIP3   OH216795   6.108   6.228   1.146
 5637TIP3    H116796   6.039   6.258   1.208
 5637TIP3    H216797   6.077   6.270   1.062
 5638TIP3   OH216798   6.264   6.750   2.215
 5638TIP3    H116799   6.338   6.744   2.277
 5638TIP3    H216800   6.234   6.657   2.212
 5639TIP3   OH216801   6.774   6.732   2.238
 5639TIP3    H116802   6.856   6.761   2.283
 5639TIP3    H216803   6.809   6.653   2.193
 5640TIP3   OH216804   7.382   6.641   2.001
 5640TIP3    H116805   7.377   6.569   2.067
 5640TIP3    H216806   7.463   6.688   2.027
 5641TIP3   OH216807   6.398   6.175   2.418
 5641TIP3    H116808   6.414   6.079   2.427
 5641TIP3    H216809   6.309   6.176   2.374
 5642TIP3   OH216810   6.378   5.830   0.646
 5642TIP3    H116811   6.425   5.782   0.717
 5642TIP3    H216812   6.443   5.818   0.573
 5643TIP3   OH216813   7.002   6.257   2.192
 5643TIP3    H116814   6.970   6.268   2.100
 5643TIP3    H216815   7.038   6.165   2.189
 5644TIP3   OH216816   6.903   6.024   0.453
 5644TIP3    H116817   6.902   6.028   0.550
 5644TIP3    H216818   6.930   5.930   0.439
 5645TIP3   OH216819   7.497   6.271   1.800
 5645TIP3    H116820   7.574   6.311   1.755
 5645TIP3    H216821   7.428   6.338   1.782
 5646TIP3   OH216822   6.519   5.913   2.399
 5646TIP3    H116823   6.591   5.852   2.379
 5646TIP3    H216824   6.544   5.942   2.490
 5647TIP3   OH216825   6.570   5.728   0.837
 5647TIP3    H116826   6.551   5.681   0.921
 5647TIP3    H216827   6.617   5.657   0.787
 5648TIP3   OH216828   6.850   5.792   2.062
 5648TIP3    H116829   6.773   5.854   2.063
 5648TIP3    H216830   6.902   5.826   1.986
 5649TIP3   OH216831   6.694   5.526   0.702
 5649TIP3    H116832   6.668   5.512   0.607
 5649TIP3    H216833   6.792   5.526   0.693
 5650TIP3   OH216834   7.370   6.196   2.196
 5650TIP3    H116835   7.449   6.169   2.147
 5650TIP3    H216836   7.366   6.129   2.267
 5651TIP3   OH216837   6.972   5.581   2.190
 5651TIP3    H116838   6.976   5.501   2.132
 5651TIP3    H216839   6.930   5.646   2.130
 5652TIP3   OH216840   6.977   5.369   1.997
 5652TIP3    H116841   7.006   5.408   1.913
 5652TIP3    H216842   6.884   5.345   1.977
 5653TIP3   OH216843   7.003   5.903   1.872
 5653TIP3    H116844   7.088   5.907   1.825
 5653TIP3    H216845   6.949   5.970   1.824
 5654TIP3   OH216846   7.586   5.870   2.250
 5654TIP3    H116847   7.631   5.785   2.262
 5654TIP3    H216848   7.657   5.925   2.214
 5655TIP3   OH216849   7.627   6.125   1.987
 5655TIP3    H116850   7.570   6.179   1.927
 5655TIP3    H216851   7.715   6.143   1.948
 5656TIP3   OH216852   6.852   5.694   2.419
 5656TIP3    H116853   6.784   5.626   2.435
 5656TIP3    H216854   6.887   5.666   2.332
 5657TIP3   OH216855   7.110   5.133   2.065
 5657TIP3    H116856   7.061   5.214   2.041
 5657TIP3    H216857   7.042   5.063   2.051
 5658TIP3   OH216858   7.234   5.636   2.280
 5658TIP3    H116859   7.225   5.622   2.376
 5658TIP3    H216860   7.144   5.610   2.251
 5659TIP3   OH216861   7.476   5.589   2.136
 5659TIP3    H116862   7.400   5.586   2.198
 5659TIP3    H216863   7.550   5.556   2.191
 5660TIP3   OH216864   7.702   5.525   2.285
 5660TIP3    H116865   7.717   5.430   2.302
 5660TIP3    H216866   7.700   5.563   2.375
 5661TIP3   OH216867   6.691   5.475   2.473
 5661TIP3    H116868   6.701   5.387   2.434
 5661TIP3    H216869   6.728   5.461   2.562
 5662TIP3   OH216870   7.200   5.139   2.324
 5662TIP3    H116871   7.270   5.071   2.318
 5662TIP3    H216872   7.164   5.135   2.233
 5663TIP3   OH216873   7.270   5.356   2.480
 5663TIP3    H116874   7.248   5.284   2.416
 5663TIP3    H216875   7.191   5.414   2.472
 5664TIP3   OH216876   5.969   5.968   0.795
 5664TIP3    H116877   6.064   5.991   0.782
 5664TIP3    H216878   5.965   5.877   0.757
 5665TIP3   OH216879   5.884   6.578   1.212
 5665TIP3    H116880   5.818   6.516   1.173
 5665TIP3    H216881   5.930   6.519   1.276
 5666TIP3   OH216882   6.021   6.427   1.398
 5666TIP3    H116883   6.009   6.355   1.461
 5666TIP3    H216884   6.072   6.490   1.452
 5667TIP3   OH216885   7.741   6.843   1.198
 5667TIP3    H116886   7.773   6.867   1.287
 5667TIP3    H216887   7.816   6.868   1.142
 5668TIP3   OH216888   7.778   6.851   1.480
 5668TIP3    H116889   7.734   6.763   1.476
 5668TIP3    H216890   7.855   6.827   1.534
 5669TIP3   OH216891   7.822   6.528   2.051
 5669TIP3    H116892   7.751   6.536   2.118
 5669TIP3    H216893   7.865   6.616   2.057
 5670TIP3   OH216894   7.611   6.056   0.685
 5670TIP3    H116895   7.682   6.109   0.643
 5670TIP3    H216896   7.664   5.998   0.743
 5671TIP3   OH216897   7.769   5.910   0.869
 5671TIP3    H116898   7.702   5.867   0.927
 5671TIP3    H216899   7.832   5.947   0.933
 5672TIP3   OH216900   7.823   6.300   1.307
 5672TIP3    H116901   7.876   6.233   1.259
 5672TIP3    H216902   7.816   6.372   1.242
 5673TIP3   OH216903   7.653   6.600   1.502
 5673TIP3    H116904   7.581   6.640   1.553
 5673TIP3    H216905   7.604   6.552   1.431
 5674TIP3   OH216906   7.583   5.766   1.021
 5674TIP3    H116907   7.589   5.669   1.014
 5674TIP3    H216908   7.569   5.779   1.118
 5675TIP3   OH216909   6.207   5.839   1.768
 5675TIP3    H116910   6.206   5.806   1.676
 5675TIP3    H216911   6.304   5.840   1.785
 5676TIP3   OH216912   7.871   6.189   1.879
 5676TIP3    H116913   7.942   6.122   1.870
 5676TIP3    H216914   7.899   6.257   1.816
 5677TIP3   OH216915   8.055   5.993   1.894
 5677TIP3    H116916   7.981   5.942   1.933
 5677TIP3    H216917   8.128   5.930   1.909
 5678TIP3   OH216918   7.512   5.243   0.496
 5678TIP3    H116919   7.587   5.199   0.543
 5678TIP3    H216920   7.438   5.183   0.517
 5679TIP3   OH216921   7.572   5.482   0.924
 5679TIP3    H116922   7.620   5.396   0.931
 5679TIP3    H216923   7.622   5.524   0.850
 5680TIP3   OH216924   7.739   5.655   1.411
 5680TIP3    H116925   7.825   5.680   1.370
 5680TIP3    H216926   7.754   5.690   1.501
 5681TIP3   OH216927   7.809   5.798   1.643
 5681TIP3    H116928   7.731   5.832   1.691
 5681TIP3    H216929   7.842   5.879   1.598
 5682TIP3   OH216930   6.421   5.518   2.446
 5682TIP3    H116931   6.519   5.513   2.447
 5682TIP3    H216932   6.399   5.435   2.492
 5683TIP3   OH216933   8.258   5.389   2.198
 5683TIP3    H116934   8.319   5.324   2.157
 5683TIP3    H216935   8.232   5.444   2.121
 5684TIP3   OH216936   7.690   5.231   0.950
 5684TIP3    H116937   7.735   5.215   1.036
 5684TIP3    H216938   7.627   5.156   0.949
 5685TIP3   OH216939   6.386   5.217   1.777
 5685TIP3    H116940   6.447   5.141   1.784
 5685TIP3    H216941   6.450   5.290   1.768
 5686TIP3   OH216942   6.189   5.491   1.846
 5686TIP3    H116943   6.238   5.481   1.762
 5686TIP3    H216944   6.223   5.575   1.878
 5687TIP3   OH216945   8.131   5.529   2.002
 5687TIP3    H116946   8.044   5.568   2.023
 5687TIP3    H216947   8.102   5.455   1.945
 5688TIP3   OH216948   7.749   5.161   0.613
 5688TIP3    H116949   7.823   5.124   0.560
 5688TIP3    H216950   7.771   5.256   0.610
 5689TIP3   OH216951   6.173   4.998   1.352
 5689TIP3    H116952   6.079   4.990   1.375
 5689TIP3    H216953   6.170   5.053   1.271
 5690TIP3   OH216954   7.319   6.696   0.860
 5690TIP3    H116955   7.371   6.658   0.789
 5690TIP3    H216956   7.379   6.760   0.899
 5691TIP3   OH216957   6.393   5.076   2.164
 5691TIP3    H116958   6.340   5.070   2.245
 5691TIP3    H216959   6.327   5.112   2.102
 5692TIP3   OH216960   6.433   6.503   2.255
 5692TIP3    H116961   6.344   6.471   2.228
 5692TIP3    H216962   6.441   6.464   2.343
 5693TIP3   OH216963   6.615   6.538   1.792
 5693TIP3    H116964   6.565   6.610   1.747
 5693TIP3    H216965   6.700   6.548   1.744
 5694TIP3   OH216966   7.053   6.781   1.926
 5694TIP3    H116967   7.098   6.779   2.013
 5694TIP3    H216968   7.119   6.830   1.872
 5695TIP3   OH216969   7.233   6.930   1.784
 5695TIP3    H116970   7.302   6.879   1.739
 5695TIP3    H216971   7.287   6.986   1.844
 5696TIP3   OH216972   8.030   5.290   1.883
 5696TIP3    H116973   7.939   5.280   1.850
 5696TIP3    H216974   8.063   5.198   1.873
 5697TIP3   OH216975   6.291   6.805   1.821
 5697TIP3    H116976   6.207   6.841   1.786
 5697TIP3    H216977   6.262   6.783   1.911
 5698TIP3   OH216978   6.523   6.769   1.671
 5698TIP3    H116979   6.438   6.789   1.717
 5698TIP3    H216980   6.504   6.800   1.580
 5699TIP3   OH216981   6.947   6.796   1.469
 5699TIP3    H116982   6.881   6.816   1.400
 5699TIP3    H216983   6.962   6.884   1.508
 5700TIP3   OH216984   7.218   6.738   1.522
 5700TIP3    H116985   7.125   6.753   1.498
 5700TIP3    H216986   7.263   6.809   1.473
 5701TIP3   OH216987   7.424   6.928   1.433
 5701TIP3    H116988   7.410   7.012   1.384
 5701TIP3    H216989   7.452   6.868   1.360
 5702TIP3   OH216990   6.200   6.584   1.557
 5702TIP3    H116991   6.227   6.554   1.646
 5702TIP3    H216992   6.271   6.541   1.503
 5703TIP3   OH216993   6.392   6.455   1.414
 5703TIP3    H116994   6.410   6.371   1.462
 5703TIP3    H216995   6.483   6.492   1.407
 5704TIP3   OH216996   6.659   6.551   1.417
 5704TIP3    H116997   6.691   6.461   1.398
 5704TIP3    H216998   6.708   6.569   1.499
 5705TIP3   OH216999   7.231   5.204   1.499
 5705TIP3    H117000   7.191   5.133   1.552
 5705TIP3    H217001   7.306   5.159   1.456
 5706TIP3   OH217002   7.757   5.093   1.410
 5706TIP3    H117003   7.792   5.140   1.332
 5706TIP3    H217004   7.661   5.103   1.399
 5707TIP3   OH217005   7.851   5.189   1.172
 5707TIP3    H117006   7.924   5.136   1.133
 5707TIP3    H217007   7.886   5.280   1.157
 5708TIP3   OH217008   6.482   4.915   1.519
 5708TIP3    H117009   6.390   4.882   1.520
 5708TIP3    H217010   6.531   4.830   1.516
 5709TIP3   OH217011   6.268   4.785   1.166
 5709TIP3    H117012   6.300   4.841   1.094
 5709TIP3    H217013   6.243   4.851   1.234
 5710TIP3   OH217014   6.923   4.954   1.400
 5710TIP3    H117015   6.984   4.996   1.337
 5710TIP3    H217016   6.960   4.982   1.485
 5711TIP3   OH217017   7.473   5.096   1.381
 5711TIP3    H117018   7.476   5.051   1.295
 5711TIP3    H217019   7.467   5.018   1.442
 5712TIP3   OH217020   7.501   5.018   0.950
 5712TIP3    H117021   7.413   5.058   0.962
 5712TIP3    H217022   7.489   4.933   0.997
 5713TIP3   OH217023   5.989   6.357   0.942
 5713TIP3    H117024   5.901   6.328   0.909
 5713TIP3    H217025   5.984   6.451   0.917
 5714TIP3   OH217026   6.387   4.944   0.929
 5714TIP3    H117027   6.436   4.880   0.873
 5714TIP3    H217028   6.461   4.998   0.965
 5715TIP3   OH217029   6.897   5.121   1.028
 5715TIP3    H117030   6.957   5.072   1.087
 5715TIP3    H217031   6.922   5.213   1.054
 5716TIP3   OH217032   6.701   5.203   2.397
 5716TIP3    H117033   6.664   5.161   2.476
 5716TIP3    H217034   6.797   5.200   2.419
 5717TIP3   OH217035   6.944   5.191   2.527
 5717TIP3    H117036   7.030   5.169   2.486
 5717TIP3    H217037   6.936   5.120   2.593
 5718TIP3   OH217038   6.061   6.376   0.596
 5718TIP3    H117039   6.029   6.437   0.664
 5718TIP3    H217040   6.095   6.303   0.648
 5719TIP3   OH217041   7.766   5.256   2.316
 5719TIP3    H117042   7.784   5.224   2.407
 5719TIP3    H217043   7.854   5.250   2.275
 5720TIP3   OH217044   7.702   6.807   1.810
 5720TIP3    H117045   7.624   6.776   1.759
 5720TIP3    H217046   7.684   6.903   1.813
 5721TIP3   OH217047   8.932   6.167   0.966
 5721TIP3    H117048   8.992   6.173   1.044
 5721TIP3    H217049   8.912   6.071   0.968
 5722TIP3   OH217050   8.267   6.075   1.323
 5722TIP3    H117051   8.298   6.006   1.386
 5722TIP3    H217052   8.350   6.122   1.307
 5723TIP3   OH217053   8.233   6.480   1.055
 5723TIP3    H117054   8.226   6.382   1.051
 5723TIP3    H217055   8.329   6.490   1.069
 5724TIP3   OH217056   7.936   5.683   0.832
 5724TIP3    H117057   7.903   5.774   0.842
 5724TIP3    H217058   7.853   5.638   0.810
 5725TIP3   OH217059   8.012   5.976   1.000
 5725TIP3    H117060   8.056   5.897   1.037
 5725TIP3    H217061   8.079   6.006   0.937
 5726TIP3   OH217062   8.759   6.402   1.003
 5726TIP3    H117063   8.796   6.314   0.981
 5726TIP3    H217064   8.843   6.447   1.027
 5727TIP3   OH217065   9.194   5.931   1.038
 5727TIP3    H117066   9.197   5.835   1.057
 5727TIP3    H217067   9.155   5.932   0.951
 5728TIP3   OH217068   8.506   5.558   1.015
 5728TIP3    H117069   8.485   5.637   0.961
 5728TIP3    H217070   8.461   5.488   0.962
 5729TIP3   OH217071   8.150   5.763   1.103
 5729TIP3    H117072   8.234   5.747   1.151
 5729TIP3    H217073   8.164   5.707   1.024
 5730TIP3   OH217074   8.609   5.975   0.920
 5730TIP3    H117075   8.703   5.948   0.923
 5730TIP3    H217076   8.567   5.895   0.885
 5731TIP3   OH217077   8.516   5.551   1.437
 5731TIP3    H117078   8.455   5.587   1.370
 5731TIP3    H217079   8.463   5.566   1.518
 5732TIP3   OH217080   8.623   6.326   1.234
 5732TIP3    H117081   8.560   6.391   1.271
 5732TIP3    H217082   8.667   6.378   1.163
 5733TIP3   OH217083   8.381   5.668   1.227
 5733TIP3    H117084   8.445   5.739   1.247
 5733TIP3    H217085   8.429   5.623   1.153
 5734TIP3   OH217086   8.448   6.520   1.325
 5734TIP3    H117087   8.422   6.609   1.294
 5734TIP3    H217088   8.371   6.502   1.384
 5735TIP3   OH217089   8.868   5.271   1.153
 5735TIP3    H117090   8.855   5.175   1.161
 5735TIP3    H217091   8.786   5.305   1.196
 5736TIP3   OH217092   8.343   6.057   0.829
 5736TIP3    H117093   8.334   6.122   0.755
 5736TIP3    H217094   8.438   6.038   0.831
 5737TIP3   OH217095   8.523   6.528   0.929
 5737TIP3    H117096   8.478   6.449   0.895
 5737TIP3    H217097   8.609   6.490   0.958
 5738TIP3   OH217098   8.514   6.083   1.158
 5738TIP3    H117099   8.547   6.056   1.069
 5738TIP3    H217100   8.560   6.168   1.172
 5739TIP3   OH217101   8.654   6.637   1.474
 5739TIP3    H117102   8.594   6.700   1.520
 5739TIP3    H217103   8.588   6.585   1.424
 5740TIP3   OH217104   8.411   6.195   1.576
 5740TIP3    H117105   8.414   6.282   1.620
 5740TIP3    H217106   8.316   6.175   1.583
 5741TIP3   OH217107   8.449   6.806   1.559
 5741TIP3    H117108   8.413   6.808   1.468
 5741TIP3    H217109   8.369   6.786   1.613
 5742TIP3   OH217110   8.028   6.338   1.506
 5742TIP3    H117111   7.963   6.315   1.437
 5742TIP3    H217112   8.066   6.251   1.530
 5743TIP3   OH217113   7.884   6.531   1.140
 5743TIP3    H117114   7.979   6.519   1.122
 5743TIP3    H217115   7.886   6.606   1.201
 5744TIP3   OH217116   8.849   6.767   1.329
 5744TIP3    H117117   8.850   6.859   1.363
 5744TIP3    H217118   8.779   6.727   1.387
 5745TIP3   OH217119   8.234   6.520   1.494
 5745TIP3    H117120   8.283   6.503   1.577
 5745TIP3    H217121   8.159   6.457   1.502
 5746TIP3   OH217122   8.630   5.343   1.280
 5746TIP3    H117123   8.541   5.312   1.252
 5746TIP3    H217124   8.604   5.426   1.326
 5747TIP3   OH217125   9.153   5.462   1.478
 5747TIP3    H117126   9.202   5.436   1.558
 5747TIP3    H217127   9.061   5.442   1.506
 5748TIP3   OH217128   8.567   5.859   1.300
 5748TIP3    H117129   8.515   5.878   1.381
 5748TIP3    H217130   8.549   5.940   1.247
 5749TIP3   OH217131   8.429   5.757   0.858
 5749TIP3    H117132   8.343   5.715   0.839
 5749TIP3    H217133   8.469   5.769   0.769
 5750TIP3   OH217134   9.115   6.110   1.625
 5750TIP3    H117135   9.090   6.038   1.687
 5750TIP3    H217136   9.209   6.121   1.646
 5751TIP3   OH217137   8.384   5.888   1.506
 5751TIP3    H117138   8.410   5.951   1.575
 5751TIP3    H217139   8.372   5.806   1.557
 5752TIP3   OH217140   7.976   5.413   1.085
 5752TIP3    H117141   8.052   5.442   1.141
 5752TIP3    H217142   8.018   5.374   1.007
 5753TIP3   OH217143   8.103   5.463   0.586
 5753TIP3    H117144   8.121   5.557   0.566
 5753TIP3    H217145   8.006   5.460   0.590
 5754TIP3   OH217146   9.074   6.114   1.199
 5754TIP3    H117147   9.133   6.057   1.144
 5754TIP3    H217148   9.063   6.056   1.277
 5755TIP3   OH217149   8.763   5.492   0.933
 5755TIP3    H117150   8.677   5.526   0.963
 5755TIP3    H217151   8.821   5.568   0.945
 5756TIP3   OH217152   8.195   5.610   0.862
 5756TIP3    H117153   8.096   5.616   0.855
 5756TIP3    H217154   8.212   5.514   0.852
 5757TIP3   OH217155   9.170   5.662   1.076
 5757TIP3    H117156   9.175   5.665   1.173
 5757TIP3    H217157   9.128   5.575   1.059
 5758TIP3   OH217158   8.394   6.443   1.715
 5758TIP3    H117159   8.474   6.473   1.763
 5758TIP3    H217160   8.330   6.441   1.789
 5759TIP3   OH217161   8.877   5.889   0.970
 5759TIP3    H117162   8.911   5.817   0.914
 5759TIP3    H217163   8.880   5.850   1.059
 5760TIP3   OH217164   8.386   5.377   0.848
 5760TIP3    H117165   8.347   5.300   0.895
 5760TIP3    H217166   8.462   5.338   0.804
 5761TIP3   OH217167   8.837   5.796   1.257
 5761TIP3    H117168   8.745   5.828   1.271
 5761TIP3    H217169   8.890   5.858   1.310
 5762TIP3   OH217170   8.969   6.504   1.352
 5762TIP3    H117171   8.986   6.486   1.445
 5762TIP3    H217172   8.934   6.595   1.354
 5763TIP3   OH217173   8.264   6.206   1.041
 5763TIP3    H117174   8.285   6.158   0.957
 5763TIP3    H217175   8.301   6.143   1.104
 5764TIP3   OH217176   8.144   6.127   1.644
 5764TIP3    H117177   8.165   6.113   1.739
 5764TIP3    H217178   8.076   6.059   1.628
 5765TIP3   OH217179   8.870   6.240   1.663
 5765TIP3    H117180   8.808   6.181   1.616
 5765TIP3    H217181   8.956   6.206   1.632
 5766TIP3   OH217182   9.135   6.770   1.243
 5766TIP3    H117183   9.039   6.761   1.247
 5766TIP3    H217184   9.155   6.816   1.326
 5767TIP3   OH217185   8.633   6.849   1.131
 5767TIP3    H117186   8.667   6.935   1.105
 5767TIP3    H217187   8.711   6.810   1.176
 5768TIP3   OH217188   9.007   6.470   1.081
 5768TIP3    H117189   9.004   6.484   1.179
 5768TIP3    H217190   9.101   6.457   1.067
 5769TIP3   OH217191   8.355   5.632   1.652
 5769TIP3    H117192   8.258   5.635   1.664
 5769TIP3    H217193   8.383   5.572   1.723
 5770TIP3   OH217194   8.066   6.718   1.289
 5770TIP3    H117195   8.122   6.641   1.312
 5770TIP3    H217196   8.102   6.785   1.348
 5771TIP3   OH217197   9.222   5.697   1.359
 5771TIP3    H117198   9.250   5.743   1.441
 5771TIP3    H217199   9.187   5.614   1.397
 5772TIP3   OH217200   9.033   5.944   1.410
 5772TIP3    H117201   9.049   6.003   1.485
 5772TIP3    H217202   9.094   5.871   1.429
 5773TIP3   OH217203   8.366   5.264   1.253
 5773TIP3    H117204   8.336   5.229   1.167
 5773TIP3    H217205   8.357   5.186   1.311
 5774TIP3   OH217206   8.064   7.026   1.708
 5774TIP3    H117207   8.150   7.026   1.754
 5774TIP3    H217208   8.045   6.930   1.705
 5775TIP3   OH217209   8.542   6.988   1.752
 5775TIP3    H117210   8.637   6.972   1.759
 5775TIP3    H217211   8.519   6.929   1.677
 5776TIP3   OH217212   9.190   6.889   1.487
 5776TIP3    H117213   9.164   6.818   1.550
 5776TIP3    H217214   9.262   6.931   1.534
 5777TIP3   OH217215   8.193   6.431   1.906
 5777TIP3    H117216   8.210   6.335   1.912
 5777TIP3    H217217   8.106   6.433   1.861
 5778TIP3   OH217218   8.801   6.516   1.679
 5778TIP3    H117219   8.759   6.534   1.593
 5778TIP3    H217220   8.830   6.423   1.670
 5779TIP3   OH217221   8.312   6.166   1.888
 5779TIP3    H117222   8.387   6.110   1.866
 5779TIP3    H217223   8.339   6.198   1.977
 5780TIP3   OH217224   8.650   6.051   1.550
 5780TIP3    H117225   8.571   6.109   1.551
 5780TIP3    H217226   8.698   6.084   1.470
 5781TIP3   OH217227   9.160   6.453   1.691
 5781TIP3    H117228   9.230   6.420   1.634
 5781TIP3    H217229   9.155   6.385   1.760
 5782TIP3   OH217230   8.773   5.840   1.674
 5782TIP3    H117231   8.771   5.759   1.618
 5782TIP3    H217232   8.728   5.906   1.617
 5783TIP3   OH217233   8.774   5.626   1.482
 5783TIP3    H117234   8.799   5.667   1.396
 5783TIP3    H217235   8.680   5.601   1.465
 5784TIP3   OH217236   8.804   6.159   1.354
 5784TIP3    H117237   8.887   6.167   1.304
 5784TIP3    H217238   8.747   6.226   1.311
 5785TIP3   OH217239   9.392   6.130   1.733
 5785TIP3    H117240   9.421   6.046   1.772
 5785TIP3    H217241   9.475   6.178   1.729
 5786TIP3   OH217242   8.649   5.948   1.906
 5786TIP3    H117243   8.581   5.880   1.921
 5786TIP3    H217244   8.684   5.922   1.818
 5787TIP3   OH217245   8.902   5.388   1.546
 5787TIP3    H117246   8.850   5.469   1.526
 5787TIP3    H217247   8.834   5.318   1.536
 5788TIP3   OH217248   9.034   5.891   1.763
 5788TIP3    H117249   9.022   5.877   1.859
 5788TIP3    H217250   8.943   5.868   1.733
 5789TIP3   OH217251   9.260   5.810   1.610
 5789TIP3    H117252   9.185   5.832   1.669
 5789TIP3    H217253   9.332   5.796   1.675
 5790TIP3   OH217254   9.477   5.762   1.790
 5790TIP3    H117255   9.524   5.692   1.837
 5790TIP3    H217256   9.473   5.831   1.860
 5791TIP3   OH217257   8.489   5.729   1.959
 5791TIP3    H117258   8.493   5.637   1.926
 5791TIP3    H217259   8.526   5.717   2.050
 5792TIP3   OH217260   9.004   5.402   1.802
 5792TIP3    H117261   9.068   5.327   1.798
 5792TIP3    H217262   8.959   5.392   1.716
 5793TIP3   OH217263   9.069   5.616   1.963
 5793TIP3    H117264   9.045   5.544   1.900
 5793TIP3    H217265   8.990   5.673   1.960
 5794TIP3   OH217266   7.806   6.690   0.907
 5794TIP3    H117267   7.800   6.615   0.969
 5794TIP3    H217268   7.858   6.753   0.960
 5795TIP3   OH217269   8.003   6.094   1.254
 5795TIP3    H117270   8.003   6.063   1.162
 5795TIP3    H217271   8.100   6.096   1.273
 5796TIP3   OH217272   8.222   5.782   1.932
 5796TIP3    H117273   8.320   5.775   1.933
 5796TIP3    H217274   8.198   5.695   1.970
 5797TIP3   OH217275   8.182   5.472   1.260
 5797TIP3    H117276   8.244   5.397   1.270
 5797TIP3    H217277   8.244   5.547   1.256
 5798TIP3   OH217278   7.986   5.746   1.332
 5798TIP3    H117279   8.034   5.739   1.248
 5798TIP3    H217280   8.018   5.831   1.365
 5799TIP3   OH217281   7.964   5.257   0.831
 5799TIP3    H117282   7.872   5.248   0.864
 5799TIP3    H217283   7.954   5.317   0.756
 5800TIP3   OH217284   8.190   5.333   1.650
 5800TIP3    H117285   8.138   5.324   1.731
 5800TIP3    H217286   8.123   5.368   1.589
 5801TIP3   OH217287   8.228   6.760   1.725
 5801TIP3    H117288   8.136   6.730   1.709
 5801TIP3    H217289   8.240   6.739   1.818
 5802TIP3   OH217290   8.403   6.790   1.273
 5802TIP3    H117291   8.356   6.865   1.232
 5802TIP3    H217292   8.490   6.803   1.230
 5803TIP3   OH217293   8.848   7.031   1.413
 5803TIP3    H117294   8.892   7.039   1.500
 5803TIP3    H217295   8.911   7.079   1.355
 5804TIP3   OH217296   9.020   7.173   1.258
 5804TIP3    H117297   9.105   7.154   1.215
 5804TIP3    H217298   9.052   7.227   1.334
 5805TIP3   OH217299   8.084   7.046   1.300
 5805TIP3    H117300   7.995   7.080   1.276
 5805TIP3    H217301   8.096   7.088   1.386
 5806TIP3   OH217302   8.315   7.030   1.151
 5806TIP3    H117303   8.232   7.043   1.201
 5806TIP3    H217304   8.285   7.042   1.060
 5807TIP3   OH217305   7.983   6.854   1.057
 5807TIP3    H117306   8.015   6.827   1.146
 5807TIP3    H217307   8.052   6.809   1.003
 5808TIP3   OH217308   8.177   6.722   0.924
 5808TIP3    H117309   8.194   6.634   0.964
 5808TIP3    H217310   8.268   6.758   0.920
 5809TIP3   OH217311   8.439   6.794   0.928
 5809TIP3    H117312   8.473   6.702   0.927
 5809TIP3    H217313   8.501   6.836   0.990
 5810TIP3   OH217314   9.057   5.420   0.983
 5810TIP3    H117315   8.983   5.385   1.037
 5810TIP3    H217316   9.065   5.347   0.919
 5811TIP3   OH217317   8.280   5.171   1.004
 5811TIP3    H117318   8.188   5.136   1.006
 5811TIP3    H217319   8.329   5.086   1.000
 5812TIP3   OH217320   8.099   5.042   0.688
 5812TIP3    H117321   8.054   5.062   0.604
 5812TIP3    H217322   8.058   5.105   0.750
 5813TIP3   OH217323   8.715   5.206   0.890
 5813TIP3    H117324   8.750   5.273   0.829
 5813TIP3    H217325   8.738   5.249   0.974
 5814TIP3   OH217326   8.487   5.454   1.898
 5814TIP3    H117327   8.452   5.382   1.953
 5814TIP3    H217328   8.581   5.453   1.925
 5815TIP3   OH217329   8.736   5.449   2.016
 5815TIP3    H117330   8.822   5.420   1.981
 5815TIP3    H217331   8.721   5.380   2.085
 5816TIP3   OH217332  -0.054   7.002   2.838
 5816TIP3    H117333  -0.023   6.953   2.916
 5816TIP3    H217334  -0.050   7.094   2.866
 5817TIP3   OH217335   0.440   6.258   3.204
 5817TIP3    H117336   0.470   6.342   3.245
 5817TIP3    H217337   0.459   6.276   3.110
 5818TIP3   OH217338  -0.088   6.435   3.231
 5818TIP3    H117339  -0.057   6.345   3.253
 5818TIP3    H217340  -0.118   6.420   3.140
 5819TIP3   OH217341  -0.135   6.191   2.828
 5819TIP3    H117342  -0.061   6.171   2.891
 5819TIP3    H217343  -0.083   6.221   2.751
 5820TIP3   OH217344   0.518   6.466   3.371
 5820TIP3    H117345   0.433   6.510   3.350
 5820TIP3    H217346   0.523   6.484   3.466
 5821TIP3   OH217347   0.079   6.191   2.998
 5821TIP3    H117348   0.055   6.153   3.084
 5821TIP3    H217349   0.135   6.266   3.024
 5822TIP3   OH217350   0.243   6.155   3.376
 5822TIP3    H117351   0.154   6.191   3.359
 5822TIP3    H217352   0.294   6.187   3.299
 5823TIP3   OH217353   0.181   7.177   3.357
 5823TIP3    H117354   0.144   7.095   3.320
 5823TIP3    H217355   0.155   7.242   3.289
 5824TIP3   OH217356   0.382   6.796   3.194
 5824TIP3    H117357   0.296   6.842   3.204
 5824TIP3    H217358   0.405   6.824   3.103
 5825TIP3   OH217359  -0.201   6.585   2.559
 5825TIP3    H117360  -0.253   6.643   2.619
 5825TIP3    H217361  -0.114   6.589   2.603
 5826TIP3   OH217362   0.063   6.710   3.463
 5826TIP3    H117363   0.052   6.772   3.538
 5826TIP3    H217364  -0.029   6.691   3.441
 5827TIP3   OH217365   0.162   5.743   2.454
 5827TIP3    H117366   0.080   5.763   2.504
 5827TIP3    H217367   0.175   5.826   2.405
 5828TIP3   OH217368   0.417   7.505   3.392
 5828TIP3    H117369   0.418   7.410   3.413
 5828TIP3    H217370   0.324   7.528   3.412
 5829TIP3   OH217371   0.299   6.647   3.665
 5829TIP3    H117372   0.212   6.654   3.623
 5829TIP3    H217373   0.309   6.551   3.671
 5830TIP3   OH217374  -0.161   5.986   3.676
 5830TIP3    H117375  -0.087   5.951   3.731
 5830TIP3    H217376  -0.237   5.960   3.729
 5831TIP3   OH217377   0.095   6.439   3.572
 5831TIP3    H117378   0.057   6.426   3.663
 5831TIP3    H217379   0.030   6.502   3.537
 5832TIP3   OH217380  -0.235   6.396   2.988
 5832TIP3    H117381  -0.318   6.414   2.940
 5832TIP3    H217382  -0.207   6.315   2.941
 5833TIP3   OH217383  -0.062   6.161   3.251
 5833TIP3    H117384  -0.063   6.163   3.350
 5833TIP3    H217385  -0.138   6.102   3.235
 5834TIP3   OH217386   0.155   6.937   3.190
 5834TIP3    H117387   0.175   6.995   3.113
 5834TIP3    H217388   0.057   6.940   3.192
 5835TIP3   OH217389  -0.359   6.034   2.424
 5835TIP3    H117390  -0.435   6.088   2.397
 5835TIP3    H217391  -0.292   6.105   2.432
 5836TIP3   OH217392  -0.215   6.260   2.485
 5836TIP3    H117393  -0.129   6.271   2.530
 5836TIP3    H217394  -0.249   6.350   2.489
 5837TIP3   OH217395   0.202   6.364   2.363
 5837TIP3    H117396   0.136   6.318   2.306
 5837TIP3    H217397   0.196   6.452   2.320
 5838TIP3   OH217398   0.429   7.227   3.440
 5838TIP3    H117399   0.331   7.219   3.434
 5838TIP3    H217400   0.453   7.194   3.351
 5839TIP3   OH217401  -0.111   6.822   3.076
 5839TIP3    H117402  -0.172   6.779   3.136
 5839TIP3    H217403  -0.065   6.744   3.038
 5840TIP3   OH217404  -0.058   6.187   3.516
 5840TIP3    H117405  -0.030   6.267   3.564
 5840TIP3    H217406  -0.083   6.125   3.588
 5841TIP3   OH217407  -0.256   5.964   2.688
 5841TIP3    H117408  -0.295   5.998   2.606
 5841TIP3    H217409  -0.237   6.045   2.739
 5842TIP3   OH217410   0.349   6.367   3.586
 5842TIP3    H117411   0.252   6.385   3.586
 5842TIP3    H217412   0.356   6.320   3.502
 5843TIP3   OH217413  -0.017   6.578   2.978
 5843TIP3    H117414  -0.092   6.516   2.980
 5843TIP3    H217415   0.052   6.529   3.027
 5844TIP3   OH217416   0.018   7.474   2.934
 5844TIP3    H117417  -0.069   7.493   2.895
 5844TIP3    H217418   0.067   7.555   2.911
 5845TIP3   OH217419   0.064   6.658   3.910
 5845TIP3    H117420   0.096   6.582   3.960
 5845TIP3    H217421   0.121   6.729   3.941
 5846TIP3   OH217422   0.085   6.912   3.657
 5846TIP3    H117423   0.030   6.968   3.601
 5846TIP3    H217424   0.175   6.930   3.620
 5847TIP3   OH217425  -0.025   6.388   3.802
 5847TIP3    H117426  -0.105   6.361   3.852
 5847TIP3    H217427   0.046   6.363   3.865
 5848TIP3   OH217428   0.157   6.308   3.985
 5848TIP3    H117429   0.174   6.213   4.004
 5848TIP3    H217430   0.146   6.348   4.074
 5849TIP3   OH217431   0.205   7.715   2.885
 5849TIP3    H117432   0.238   7.683   2.972
 5849TIP3    H217433   0.266   7.673   2.822
 5850TIP3   OH217434   0.235   7.627   3.148
 5850TIP3    H117435   0.195   7.539   3.164
 5850TIP3    H217436   0.300   7.628   3.220
 5851TIP3   OH217437   0.268   7.325   3.729
 5851TIP3    H117438   0.225   7.315   3.815
 5851TIP3    H217439   0.318   7.409   3.740
 5852TIP3   OH217440   0.134   6.817   2.361
 5852TIP3    H117441   0.213   6.873   2.367
 5852TIP3    H217442   0.138   6.771   2.448
 5853TIP3   OH217443   0.228   6.687   2.580
 5853TIP3    H117444   0.160   6.644   2.637
 5853TIP3    H217445   0.289   6.726   2.645
 5854TIP3   OH217446   0.264   7.089   2.989
 5854TIP3    H117447   0.324   7.022   2.950
 5854TIP3    H217448   0.274   7.164   2.927
 5855TIP3   OH217449   0.083   7.374   3.181
 5855TIP3    H117450   0.017   7.431   3.223
 5855TIP3    H217451   0.064   7.391   3.085
 5856TIP3   OH217452   0.146   6.594   2.211
 5856TIP3    H117453   0.066   6.595   2.157
 5856TIP3    H217454   0.133   6.676   2.265
 5857TIP3   OH217455   0.022   6.269   2.184
 5857TIP3    H117456  -0.057   6.310   2.147
 5857TIP3    H217457   0.003   6.175   2.165
 5858TIP3   OH217458   0.040   6.546   2.713
 5858TIP3    H117459   0.042   6.449   2.706
 5858TIP3    H217460   0.025   6.561   2.809
 5859TIP3   OH217461   0.330   6.980   3.566
 5859TIP3    H117462   0.399   6.910   3.559
 5859TIP3    H217463   0.357   7.043   3.498
 5860TIP3   OH217464   0.513   6.784   3.582
 5860TIP3    H117465   0.437   6.733   3.617
 5860TIP3    H217466   0.584   6.719   3.599
 5861TIP3   OH217467  -0.009   5.994   2.135
 5861TIP3    H117468   0.055   5.977   2.207
 5861TIP3    H217469  -0.091   5.953   2.172
 5862TIP3   OH217470   0.036   6.270   2.614
 5862TIP3    H117471   0.076   6.181   2.627
 5862TIP3    H217472   0.092   6.303   2.541
 5863TIP3   OH217473   0.192   6.439   3.095
 5863TIP3    H117474   0.280   6.466   3.058
 5863TIP3    H217475   0.203   6.476   3.186
 5864TIP3   OH217476   0.269   6.580   3.326
 5864TIP3    H117477   0.194   6.617   3.377
 5864TIP3    H217478   0.304   6.661   3.283
 5865TIP3   OH217479   0.712   6.174   3.891
 5865TIP3    H117480   0.772   6.110   3.847
 5865TIP3    H217481   0.685   6.231   3.816
 5866TIP3   OH217482   0.141   6.019   2.643
 5866TIP3    H117483   0.187   6.002   2.728
 5866TIP3    H217484   0.079   5.943   2.640
 5867TIP3   OH217485   0.592   6.315   3.695
 5867TIP3    H117486   0.504   6.356   3.709
 5867TIP3    H217487   0.565   6.242   3.636
 5868TIP3   OH217488   0.224   5.953   2.281
 5868TIP3    H117489   0.264   5.881   2.227
 5868TIP3    H217490   0.291   6.023   2.275
 5869TIP3   OH217491   0.485   6.077   3.573
 5869TIP3    H117492   0.394   6.074   3.539
 5869TIP3    H217493   0.513   5.984   3.561
 5870TIP3   OH217494  -0.265   5.966   3.214
 5870TIP3    H117495  -0.276   5.885   3.266
 5870TIP3    H217496  -0.192   5.938   3.154
 5871TIP3   OH217497   0.214   5.875   3.097
 5871TIP3    H117498   0.249   5.928   3.022
 5871TIP3    H217499   0.118   5.893   3.090
 5872TIP3   OH217500   0.306   5.974   2.860
 5872TIP3    H117501   0.379   5.924   2.820
 5872TIP3    H217502   0.338   6.066   2.846
 5873TIP3   OH217503  -0.060   5.873   3.060
 5873TIP3    H117504  -0.059   5.836   2.971
 5873TIP3    H217505  -0.075   5.793   3.115
 5874TIP3   OH217506  -0.039   5.805   2.634
 5874TIP3    H117507  -0.123   5.853   2.651
 5874TIP3    H217508  -0.057   5.720   2.679
 5875TIP3   OH217509   0.220   6.041   4.008
 5875TIP3    H117510   0.239   6.009   4.099
 5875TIP3    H217511   0.308   6.036   3.966
 5876TIP3   OH217512   0.163   7.590   3.433
 5876TIP3    H117513   0.090   7.539   3.470
 5876TIP3    H217514   0.163   7.664   3.495
 5877TIP3   OH217515   1.423   6.968   2.265
 5877TIP3    H117516   1.392   7.058   2.242
 5877TIP3    H217517   1.350   6.915   2.227
 5878TIP3   OH217518   1.423   6.970   2.647
 5878TIP3    H117519   1.453   6.937   2.733
 5878TIP3    H217520   1.382   6.891   2.609
 5879TIP3   OH217521   0.718   6.862   3.012
 5879TIP3    H117522   0.749   6.794   3.074
 5879TIP3    H217523   0.799   6.915   3.001
 5880TIP3   OH217524   1.668   7.269   2.327
 5880TIP3    H117525   1.649   7.199   2.390
 5880TIP3    H217526   1.695   7.343   2.384
 5881TIP3   OH217527   0.694   7.270   2.738
 5881TIP3    H117528   0.686   7.172   2.738
 5881TIP3    H217529   0.791   7.279   2.732
 5882TIP3   OH217530   0.403   6.474   2.522
 5882TIP3    H117531   0.351   6.555   2.541
 5882TIP3    H217532   0.334   6.419   2.481
 5883TIP3   OH217533   0.464   6.766   2.699
 5883TIP3    H117534   0.512   6.687   2.733
 5883TIP3    H217535   0.516   6.788   2.621
 5884TIP3   OH217536   1.318   7.734   2.346
 5884TIP3    H117537   1.359   7.663   2.293
 5884TIP3    H217538   1.308   7.691   2.431
 5885TIP3   OH217539   1.219   7.194   2.695
 5885TIP3    H117540   1.256   7.118   2.648
 5885TIP3    H217541   1.304   7.239   2.718
 5886TIP3   OH217542   2.236   6.512   2.693
 5886TIP3    H117543   2.264   6.597   2.734
 5886TIP3    H217544   2.253   6.530   2.599
 5887TIP3   OH217545   1.633   6.694   2.726
 5887TIP3    H117546   1.675   6.608   2.744
 5887TIP3    H217547   1.601   6.679   2.635
 5888TIP3   OH217548   0.973   6.354   2.691
 5888TIP3    H117549   0.951   6.427   2.628
 5888TIP3    H217550   0.924   6.280   2.647
 5889TIP3   OH217551   1.666   6.448   2.316
 5889TIP3    H117552   1.741   6.432   2.377
 5889TIP3    H217553   1.713   6.481   2.237
 5890TIP3   OH217554   0.605   6.555   2.799
 5890TIP3    H117555   0.688   6.534   2.846
 5890TIP3    H217556   0.617   6.499   2.719
 5891TIP3   OH217557   1.044   6.754   2.594
 5891TIP3    H117558   1.138   6.729   2.605
 5891TIP3    H217559   1.005   6.671   2.560
 5892TIP3   OH217560   2.309   6.722   2.861
 5892TIP3    H117561   2.224   6.768   2.842
 5892TIP3    H217562   2.322   6.747   2.954
 5893TIP3   OH217563   0.968   6.337   3.126
 5893TIP3    H117564   0.908   6.374   3.058
 5893TIP3    H217565   0.916   6.354   3.207
 5894TIP3   OH217566   1.312   7.188   2.135
 5894TIP3    H117567   1.274   7.167   2.049
 5894TIP3    H217568   1.265   7.271   2.158
 5895TIP3   OH217569   1.075   7.113   2.920
 5895TIP3    H117570   1.013   7.179   2.957
 5895TIP3    H217571   1.116   7.163   2.847
 5896TIP3   OH217572   1.878   6.447   2.487
 5896TIP3    H117573   1.862   6.401   2.570
 5896TIP3    H217574   1.929   6.525   2.515
 5897TIP3   OH217575   0.839   6.452   2.910
 5897TIP3    H117576   0.902   6.524   2.933
 5897TIP3    H217577   0.888   6.411   2.834
 5898TIP3   OH217578   0.902   7.307   3.018
 5898TIP3    H117579   0.875   7.393   2.980
 5898TIP3    H217580   0.824   7.290   3.075
 5899TIP3   OH217581   0.340   7.005   2.271
 5899TIP3    H117582   0.339   7.035   2.178
 5899TIP3    H217583   0.361   7.089   2.316
 5900TIP3   OH217584   1.737   7.514   2.497
 5900TIP3    H117585   1.647   7.504   2.536
 5900TIP3    H217586   1.727   7.599   2.449
 5901TIP3   OH217587   2.028   6.410   2.859
 5901TIP3    H117588   1.940   6.439   2.828
 5901TIP3    H217589   2.086   6.443   2.788
 5902TIP3   OH217590   1.326   6.054   2.846
 5902TIP3    H117591   1.305   5.959   2.857
 5902TIP3    H217592   1.248   6.095   2.888
 5903TIP3   OH217593   1.435   7.560   2.167
 5903TIP3    H117594   1.484   7.476   2.148
 5903TIP3    H217595   1.499   7.624   2.128
 5904TIP3   OH217596   1.578   7.345   2.076
 5904TIP3    H117597   1.549   7.265   2.031
 5904TIP3    H217598   1.615   7.308   2.160
 5905TIP3   OH217599   1.963   7.425   2.837
 5905TIP3    H117600   1.949   7.347   2.779
 5905TIP3    H217601   1.944   7.499   2.776
 5906TIP3   OH217602   1.256   6.820   2.096
 5906TIP3    H117603   1.175   6.870   2.072
 5906TIP3    H217604   1.298   6.808   2.009
 5907TIP3   OH217605   1.211   6.588   1.796
 5907TIP3    H117606   1.290   6.628   1.836
 5907TIP3    H217607   1.252   6.520   1.736
 5908TIP3   OH217608   2.158   7.065   2.684
 5908TIP3    H117609   2.073   7.115   2.689
 5908TIP3    H217610   2.186   7.087   2.593
 5909TIP3   OH217611   1.601   6.904   2.066
 5909TIP3    H117612   1.545   6.926   2.144
 5909TIP3    H217613   1.684   6.876   2.110
 5910TIP3   OH217614   1.836   6.940   2.980
 5910TIP3    H117615   1.832   7.023   3.030
 5910TIP3    H217616   1.749   6.943   2.934
 5911TIP3   OH217617   0.832   6.900   2.485
 5911TIP3    H117618   0.789   6.841   2.419
 5911TIP3    H217619   0.909   6.846   2.513
 5912TIP3   OH217620   0.963   7.311   2.632
 5912TIP3    H117621   0.942   7.271   2.546
 5912TIP3    H217622   1.052   7.276   2.650
 5913TIP3   OH217623   0.968   6.870   2.840
 5913TIP3    H117624   1.000   6.846   2.750
 5913TIP3    H217625   1.012   6.956   2.857
 5914TIP3   OH217626   1.495   7.509   2.616
 5914TIP3    H117627   1.482   7.587   2.672
 5914TIP3    H217628   1.480   7.434   2.678
 5915TIP3   OH217629   1.108   7.427   3.161
 5915TIP3    H117630   1.048   7.489   3.208
 5915TIP3    H217631   1.042   7.373   3.112
 5916TIP3   OH217632   1.439   6.759   1.892
 5916TIP3    H117633   1.498   6.819   1.942
 5916TIP3    H217634   1.463   6.783   1.799
 5917TIP3   OH217635   0.862   6.984   3.264
 5917TIP3    H117636   0.866   7.070   3.309
 5917TIP3    H217637   0.768   6.963   3.276
 5918TIP3   OH217638   1.183   7.443   2.177
 5918TIP3    H117639   1.266   7.494   2.183
 5918TIP3    H217640   1.126   7.503   2.127
 5919TIP3   OH217641   0.903   7.596   3.248
 5919TIP3    H117642   0.866   7.593   3.158
 5919TIP3    H217643   0.824   7.574   3.303
 5920TIP3   OH217644   1.958   5.998   1.944
 5920TIP3    H117645   1.875   6.020   1.990
 5920TIP3    H217646   1.972   6.080   1.892
 5921TIP3   OH217647   0.701   6.739   2.297
 5921TIP3    H117648   0.640   6.783   2.233
 5921TIP3    H217649   0.662   6.651   2.299
 5922TIP3   OH217650   1.756   7.367   1.492
 5922TIP3    H117651   1.763   7.463   1.474
 5922TIP3    H217652   1.849   7.338   1.477
 5923TIP3   OH217653   0.482   7.126   3.195
 5923TIP3    H117654   0.416   7.100   3.128
 5923TIP3    H217655   0.520   7.040   3.223
 5924TIP3   OH217656   0.344   7.320   2.837
 5924TIP3    H117657   0.431   7.296   2.802
 5924TIP3    H217658   0.368   7.391   2.899
 5925TIP3   OH217659   2.199   7.774   2.882
 5925TIP3    H117660   2.200   7.677   2.895
 5925TIP3    H217661   2.116   7.796   2.929
 5926TIP3   OH217662   1.305   7.556   3.019
 5926TIP3    H117663   1.303   7.649   3.052
 5926TIP3    H217664   1.233   7.516   3.073
 5927TIP3   OH217665   1.068   7.684   1.986
 5927TIP3    H117666   1.047   7.668   1.892
 5927TIP3    H217667   1.036   7.774   2.001
 5928TIP3   OH217668   0.514   7.510   2.361
 5928TIP3    H117669   0.568   7.521   2.442
 5928TIP3    H217670   0.470   7.426   2.384
 5929TIP3   OH217671   1.315   7.611   1.612
 5929TIP3    H117672   1.361   7.543   1.558
 5929TIP3    H217673   1.352   7.596   1.700
 5930TIP3   OH217674   1.324   7.637   1.893
 5930TIP3    H117675   1.235   7.641   1.933
 5930TIP3    H217676   1.373   7.591   1.963
 5931TIP3   OH217677   2.090   6.902   3.157
 5931TIP3    H117678   2.007   6.913   3.110
 5931TIP3    H217679   2.105   6.806   3.150
 5932TIP3   OH217680   0.685   7.310   3.184
 5932TIP3    H117681   0.736   7.292   3.266
 5932TIP3    H217682   0.612   7.245   3.191
 5933TIP3   OH217683   1.085   6.132   2.969
 5933TIP3    H117684   0.996   6.101   2.942
 5933TIP3    H217685   1.059   6.214   3.015
 5934TIP3   OH217686   1.616   6.245   3.164
 5934TIP3    H117687   1.677   6.226   3.237
 5934TIP3    H217688   1.528   6.230   3.205
 5935TIP3   OH217689   1.858   6.677   3.083
 5935TIP3    H117690   1.808   6.673   3.168
 5935TIP3    H217691   1.832   6.764   3.047
 5936TIP3   OH217692   1.517   6.817   1.640
 5936TIP3    H117693   1.482   6.772   1.561
 5936TIP3    H217694   1.600   6.855   1.606
 5937TIP3   OH217695   1.219   6.180   1.937
 5937TIP3    H117696   1.191   6.176   2.030
 5937TIP3    H217697   1.183   6.096   1.904
 5938TIP3   OH217698   1.017   6.648   2.988
 5938TIP3    H117699   0.966   6.668   3.069
 5938TIP3    H217700   1.001   6.729   2.935
 5939TIP3   OH217701   0.901   6.535   2.502
 5939TIP3    H117702   0.808   6.509   2.519
 5939TIP3    H217703   0.914   6.495   2.412
 5940TIP3   OH217704   1.391   6.620   2.232
 5940TIP3    H117705   1.339   6.691   2.186
 5940TIP3    H217706   1.447   6.588   2.158
 5941TIP3   OH217707   1.565   6.897   3.314
 5941TIP3    H117708   1.543   6.825   3.377
 5941TIP3    H217709   1.659   6.912   3.338
 5942TIP3   OH217710   1.547   6.649   2.467
 5942TIP3    H117711   1.486   6.676   2.396
 5942TIP3    H217712   1.582   6.568   2.424
 5943TIP3   OH217713   0.835   6.677   3.195
 5943TIP3    H117714   0.863   6.738   3.264
 5943TIP3    H217715   0.822   6.594   3.246
 5944TIP3   OH217716   0.873   6.138   1.905
 5944TIP3    H117717   0.872   6.146   2.003
 5944TIP3    H217718   0.807   6.206   1.880
 5945TIP3   OH217719   0.428   6.199   2.777
 5945TIP3    H117720   0.505   6.230   2.830
 5945TIP3    H217721   0.468   6.166   2.695
 5946TIP3   OH217722   0.401   6.177   2.297
 5946TIP3    H117723   0.444   6.215   2.217
 5946TIP3    H217724   0.341   6.251   2.319
 5947TIP3   OH217725   1.561   6.894   2.891
 5947TIP3    H117726   1.592   6.822   2.832
 5947TIP3    H217727   1.530   6.841   2.967
 5948TIP3   OH217728   1.230   6.354   2.564
 5948TIP3    H117729   1.146   6.354   2.613
 5948TIP3    H217730   1.296   6.357   2.635
 5949TIP3   OH217731   0.664   6.412   2.571
 5949TIP3    H117732   0.569   6.420   2.543
 5949TIP3    H217733   0.686   6.320   2.547
 5950TIP3   OH217734   0.931   6.409   2.260
 5950TIP3    H117735   1.025   6.423   2.236
 5950TIP3    H217736   0.883   6.430   2.176
 5951TIP3   OH217737   1.721   6.430   2.764
 5951TIP3    H117738   1.686   6.444   2.855
 5951TIP3    H217739   1.653   6.370   2.728
 5952TIP3   OH217740   0.775   6.441   2.039
 5952TIP3    H117741   0.703   6.398   1.989
 5952TIP3    H217742   0.827   6.478   1.965
 5953TIP3   OH217743   1.890   8.121   2.984
 5953TIP3    H117744   1.888   8.143   2.889
 5953TIP3    H217745   1.967   8.171   3.015
 5954TIP3   OH217746   0.846   7.233   3.404
 5954TIP3    H117747   0.927   7.261   3.452
 5954TIP3    H217748   0.783   7.228   3.479
 5955TIP3   OH217749   1.310   6.685   2.660
 5955TIP3    H117750   1.382   6.646   2.608
 5955TIP3    H217751   1.320   6.640   2.746
 5956TIP3   OH217752   0.835   6.171   2.540
 5956TIP3    H117753   0.799   6.092   2.585
 5956TIP3    H217754   0.877   6.133   2.462
 5957TIP3   OH217755   1.287   6.580   2.951
 5957TIP3    H117756   1.197   6.616   2.964
 5957TIP3    H217757   1.343   6.643   3.001
 5958TIP3   OH217758   1.023   6.970   2.046
 5958TIP3    H117759   0.951   6.905   2.034
 5958TIP3    H217760   1.004   7.003   2.138
 5959TIP3   OH217761   1.923   7.207   2.674
 5959TIP3    H117762   1.946   7.257   2.592
 5959TIP3    H217763   1.838   7.165   2.649
 5960TIP3   OH217764   1.476   6.278   1.918
 5960TIP3    H117765   1.380   6.261   1.904
 5960TIP3    H217766   1.483   6.373   1.904
 5961TIP3   OH217767   1.426   7.292   3.041
 5961TIP3    H117768   1.447   7.267   3.132
 5961TIP3    H217769   1.384   7.379   3.051
 5962TIP3   OH217770   1.553   6.540   2.021
 5962TIP3    H117771   1.650   6.541   2.024
 5962TIP3    H217772   1.531   6.612   1.959
 5963TIP3   OH217773   0.718   6.996   2.720
 5963TIP3    H117774   0.754   6.966   2.634
 5963TIP3    H217775   0.755   6.931   2.781
 5964TIP3   OH217776   1.170   7.121   1.874
 5964TIP3    H117777   1.122   7.206   1.885
 5964TIP3    H217778   1.116   7.062   1.930
 5965TIP3   OH217779   0.598   6.917   3.335
 5965TIP3    H117780   0.614   6.898   3.430
 5965TIP3    H217781   0.532   6.848   3.313
 5966TIP3   OH217782   1.323   7.030   3.352
 5966TIP3    H117783   1.263   6.969   3.306
 5966TIP3    H217784   1.410   6.994   3.324
 5967TIP3   OH217785   1.584   7.554   2.935
 5967TIP3    H117786   1.488   7.548   2.949
 5967TIP3    H217787   1.611   7.603   3.016
 5968TIP3   OH217788   1.996   6.622   1.844
 5968TIP3    H117789   1.934   6.577   1.782
 5968TIP3    H217790   1.989   6.711   1.804
 5969TIP3   OH217791   2.213   7.483   2.925
 5969TIP3    H117792   2.115   7.475   2.918
 5969TIP3    H217793   2.238   7.450   2.835
 5970TIP3   OH217794   1.699   7.440   1.757
 5970TIP3    H117795   1.667   7.369   1.814
 5970TIP3    H217796   1.707   7.396   1.670
 5971TIP3   OH217797   1.690   7.070   2.593
 5971TIP3    H117798   1.596   7.045   2.605
 5971TIP3    H217799   1.723   6.990   2.547
 5972TIP3   OH217800   0.820   7.300   2.350
 5972TIP3    H117801   0.824   7.378   2.292
 5972TIP3    H217802   0.726   7.280   2.349
 5973TIP3   OH217803   0.396   6.594   2.090
 5973TIP3    H117804   0.435   6.684   2.100
 5973TIP3    H217805   0.310   6.604   2.137
 5974TIP3   OH217806   0.954   7.063   2.291
 5974TIP3    H117807   0.922   7.153   2.311
 5974TIP3    H217808   0.917   7.012   2.365
 5975TIP3   OH217809   1.086   7.641   2.814
 5975TIP3    H117810   1.128   7.714   2.764
 5975TIP3    H217811   1.163   7.605   2.863
 5976TIP3   OH217812   0.740   7.536   2.195
 5976TIP3    H117813   0.656   7.542   2.244
 5976TIP3    H217814   0.773   7.628   2.202
 5977TIP3   OH217815   1.475   7.276   2.773
 5977TIP3    H117816   1.465   7.274   2.871
 5977TIP3    H217817   1.552   7.219   2.760
 5978TIP3   OH217818   1.453   7.171   1.654
 5978TIP3    H117819   1.500   7.144   1.736
 5978TIP3    H217820   1.364   7.135   1.671
 5979TIP3   OH217821   1.723   7.809   2.825
 5979TIP3    H117822   1.645   7.751   2.819
 5979TIP3    H217823   1.705   7.872   2.751
 5980TIP3   OH217824   1.789   7.643   1.473
 5980TIP3    H117825   1.823   7.715   1.417
 5980TIP3    H217826   1.709   7.687   1.508
 5981TIP3   OH217827   0.807   6.420   3.340
 5981TIP3    H117828   0.711   6.426   3.353
 5981TIP3    H217829   0.834   6.362   3.413
 5982TIP3   OH217830   1.610   7.110   1.877
 5982TIP3    H117831   1.597   7.038   1.943
 5982TIP3    H217832   1.706   7.101   1.861
 5983TIP3   OH217833   0.519   7.501   2.975
 5983TIP3    H117834   0.576   7.429   3.007
 5983TIP3    H217835   0.547   7.573   3.033
 5984TIP3   OH217836   0.787   7.148   1.652
 5984TIP3    H117837   0.824   7.062   1.625
 5984TIP3    H217838   0.785   7.138   1.750
 5985TIP3   OH217839   0.785   7.161   1.923
 5985TIP3    H117840   0.846   7.129   1.991
 5985TIP3    H217841   0.781   7.257   1.940
 5986TIP3   OH217842   0.508   6.839   2.135
 5986TIP3    H117843   0.453   6.888   2.199
 5986TIP3    H217844   0.521   6.910   2.068
 5987TIP3   OH217845   1.647   6.483   3.023
 5987TIP3    H117846   1.724   6.523   3.065
 5987TIP3    H217847   1.631   6.403   3.078
 5988TIP3   OH217848   1.521   6.234   2.190
 5988TIP3    H117849   1.502   6.253   2.095
 5988TIP3    H217850   1.559   6.319   2.219
 5989TIP3   OH217851   1.030   7.352   1.905
 5989TIP3    H117852   0.940   7.382   1.925
 5989TIP3    H217853   1.048   7.396   1.821
 5990TIP3   OH217854   1.215   6.414   2.291
 5990TIP3    H117855   1.279   6.486   2.270
 5990TIP3    H217856   1.220   6.410   2.388
 5991TIP3   OH217857   1.484   6.734   3.098
 5991TIP3    H117858   1.505   6.788   3.177
 5991TIP3    H217859   1.538   6.654   3.113
 5992TIP3   OH217860   1.359   6.141   2.396
 5992TIP3    H117861   1.343   6.222   2.447
 5992TIP3    H217862   1.419   6.175   2.325
 5993TIP3   OH217863   0.766   7.436   1.944
 5993TIP3    H117864   0.760   7.517   1.890
 5993TIP3    H217865   0.754   7.472   2.035
 5994TIP3   OH217866   0.870   6.141   2.185
 5994TIP3    H117867   0.868   6.233   2.218
 5994TIP3    H217868   0.966   6.123   2.191
 5995TIP3   OH217869   2.124   6.633   3.077
 5995TIP3    H117870   2.026   6.633   3.087
 5995TIP3    H217871   2.132   6.592   2.990
 5996TIP3   OH217872   1.775   6.828   2.467
 5996TIP3    H117873   1.698   6.768   2.477
 5996TIP3    H217874   1.845   6.778   2.515
 5997TIP3   OH217875   0.515   7.067   1.991
 5997TIP3    H117876   0.529   7.159   1.964
 5997TIP3    H217877   0.552   7.021   1.913
 5998TIP3   OH217878   0.439   6.327   2.074
 5998TIP3    H117879   0.440   6.425   2.082
 5998TIP3    H217880   0.366   6.314   2.013
 5999TIP3   OH217881   1.743   7.786   2.417
 5999TIP3    H117882   1.700   7.833   2.342
 5999TIP3    H217883   1.837   7.802   2.395
 6000TIP3   OH217884   0.821   6.052   2.942
 6000TIP3    H117885   0.789   6.019   2.856
 6000TIP3    H217886   0.809   5.974   3.000
 6001TIP3   OH217887   0.359   7.274   2.326
 6001TIP3    H117888   0.295   7.327   2.376
 6001TIP3    H217889   0.355   7.311   2.237
 6002TIP3   OH217890   0.515   7.810   3.400
 6002TIP3    H117891   0.602   7.814   3.444
 6002TIP3    H217892   0.502   7.714   3.394
 6003TIP3   OH217893   0.995   7.778   3.439
 6003TIP3    H117894   1.089   7.758   3.449
 6003TIP3    H217895   0.971   7.717   3.366
 6004TIP3   OH217896   0.981   7.356   1.613
 6004TIP3    H117897   0.917   7.282   1.622
 6004TIP3    H217898   1.035   7.320   1.540
 6005TIP3   OH217899   1.636   7.683   3.173
 6005TIP3    H117900   1.627   7.613   3.241
 6005TIP3    H217901   1.713   7.734   3.206
 6006TIP3   OH217902   1.438   7.400   1.488
 6006TIP3    H117903   1.469   7.325   1.543
 6006TIP3    H217904   1.489   7.390   1.406
 6007TIP3   OH217905   0.650   7.218   3.600
 6007TIP3    H117906   0.668   7.122   3.604
 6007TIP3    H217907   0.565   7.220   3.551
 6008TIP3   OH217908   0.644   6.882   1.820
 6008TIP3    H117909   0.708   6.844   1.884
 6008TIP3    H217910   0.697   6.879   1.738
 6009TIP3   OH217911   1.253   7.305   3.369
 6009TIP3    H117912   1.212   7.320   3.283
 6009TIP3    H217913   1.285   7.212   3.362
 6010TIP3   OH217914   1.152   7.065   1.600
 6010TIP3    H117915   1.148   7.075   1.697
 6010TIP3    H217916   1.142   6.968   1.592
 6011TIP3   OH217917   1.747   7.313   2.977
 6011TIP3    H117918   1.820   7.359   2.932
 6011TIP3    H217919   1.674   7.376   2.962
 6012TIP3   OH217920   0.768   6.958   3.577
 6012TIP3    H117921   0.838   6.895   3.557
 6012TIP3    H217922   0.793   6.986   3.668
 6013TIP3   OH217923   0.834   6.772   2.012
 6013TIP3    H117924   0.805   6.726   2.092
 6013TIP3    H217925   0.872   6.699   1.959
 6014TIP3   OH217926   1.100   6.838   3.240
 6014TIP3    H117927   1.022   6.897   3.241
 6014TIP3    H217928   1.150   6.872   3.162
 6015TIP3   OH217929   0.936   6.567   1.857
 6015TIP3    H117930   0.909   6.554   1.764
 6015TIP3    H217931   1.034   6.567   1.846
 6016TIP3   OH217932   1.617   7.240   3.373
 6016TIP3    H117933   1.697   7.212   3.326
 6016TIP3    H217934   1.612   7.175   3.445
 6017TIP3   OH217935   1.755   6.897   1.514
 6017TIP3    H117936   1.732   6.849   1.432
 6017TIP3    H217937   1.720   6.986   1.490
 6018TIP3   OH217938   1.225   6.627   3.365
 6018TIP3    H117939   1.223   6.547   3.309
 6018TIP3    H217940   1.180   6.693   3.307
 6019TIP3   OH217941   1.227   6.410   3.172
 6019TIP3    H117942   1.253   6.454   3.089
 6019TIP3    H217943   1.133   6.389   3.155
 6020TIP3   OH217944   1.252   6.948   3.046
 6020TIP3    H117945   1.336   6.956   2.998
 6020TIP3    H217946   1.196   7.014   3.001
 6021TIP3   OH217947   1.832   6.914   3.424
 6021TIP3    H117948   1.882   6.834   3.447
 6021TIP3    H217949   1.903   6.972   3.392
 6022TIP3   OH217950   1.877   7.168   3.163
 6022TIP3    H117951   1.818   7.221   3.105
 6022TIP3    H217952   1.964   7.188   3.123
 6023TIP3   OH217953   1.101   6.737   3.596
 6023TIP3    H117954   1.033   6.669   3.612
 6023TIP3    H217955   1.136   6.710   3.508
 6024TIP3   OH217956   1.357   6.174   3.237
 6024TIP3    H117957   1.309   6.257   3.217
 6024TIP3    H217958   1.285   6.108   3.228
 6025TIP3   OH217959   1.485   6.680   3.456
 6025TIP3    H117960   1.473   6.666   3.552
 6025TIP3    H217961   1.395   6.656   3.426
 6026TIP3   OH217962   1.722   6.624   3.310
 6026TIP3    H117963   1.647   6.630   3.373
 6026TIP3    H217964   1.796   6.598   3.369
 6027TIP3   OH217965   1.952   6.567   3.460
 6027TIP3    H117966   1.964   6.473   3.483
 6027TIP3    H217967   1.946   6.610   3.548
 6028TIP3   OH217968   0.942   6.517   3.649
 6028TIP3    H117969   0.946   6.425   3.616
 6028TIP3    H217970   0.978   6.505   3.739
 6029TIP3   OH217971   1.453   6.188   3.495
 6029TIP3    H117972   1.517   6.115   3.492
 6029TIP3    H217973   1.411   6.180   3.407
 6030TIP3   OH217974   1.520   6.403   3.653
 6030TIP3    H117975   1.496   6.331   3.591
 6030TIP3    H217976   1.441   6.461   3.650
 6031TIP3   OH217977   0.294   7.460   2.556
 6031TIP3    H117978   0.254   7.403   2.623
 6031TIP3    H217979   0.336   7.527   2.612
 6032TIP3   OH217980   1.998   7.873   2.374
 6032TIP3    H117981   2.025   7.907   2.461
 6032TIP3    H217982   2.059   7.918   2.314
 6033TIP3   OH217983   2.028   7.895   2.657
 6033TIP3    H117984   1.979   7.810   2.649
 6033TIP3    H217985   2.099   7.866   2.715
 6034TIP3   OH217986   2.072   7.572   3.228
 6034TIP3    H117987   1.999   7.579   3.293
 6034TIP3    H217988   2.113   7.661   3.234
 6035TIP3   OH217989   1.889   7.084   1.849
 6035TIP3    H117990   1.957   7.148   1.819
 6035TIP3    H217991   1.932   7.045   1.927
 6036TIP3   OH217992   2.018   6.952   2.053
 6036TIP3    H117993   1.949   6.908   2.109
 6036TIP3    H217994   2.078   6.990   2.119
 6037TIP3   OH217995   2.073   7.346   2.486
 6037TIP3    H117996   2.124   7.278   2.436
 6037TIP3    H217997   2.064   7.417   2.421
 6038TIP3   OH217998   1.902   7.646   2.679
 6038TIP3    H117999   1.830   7.686   2.731
 6038TIP3    H218000   1.852   7.598   2.609
 6039TIP3   OH218001   1.954   6.860   1.698
 6039TIP3    H118002   1.883   6.860   1.630
 6039TIP3    H218003   1.924   6.936   1.753
 6040TIP3   OH218004   1.831   6.531   1.650
 6040TIP3    H118005   1.769   6.570   1.587
 6040TIP3    H218006   1.808   6.436   1.640
 6041TIP3   OH218007   1.831   6.808   2.197
 6041TIP3    H118008   1.835   6.711   2.188
 6041TIP3    H218009   1.816   6.820   2.293
 6042TIP3   OH218010   0.455   6.893   2.944
 6042TIP3    H118011   0.453   6.856   2.853
 6042TIP3    H218012   0.552   6.890   2.962
 6043TIP3   OH218013   2.120   7.234   3.055
 6043TIP3    H118014   2.192   7.167   3.045
 6043TIP3    H218015   2.145   7.301   2.990
 6044TIP3   OH218016   2.306   7.039   3.068
 6044TIP3    H118017   2.231   6.989   3.107
 6044TIP3    H218018   2.378   6.974   3.084
 6045TIP3   OH218019   1.787   6.264   1.626
 6045TIP3    H118020   1.847   6.235   1.697
 6045TIP3    H218021   1.705   6.215   1.650
 6046TIP3   OH218022   1.832   6.527   2.094
 6046TIP3    H118023   1.870   6.438   2.110
 6046TIP3    H218024   1.887   6.556   2.020
 6047TIP3   OH218025   1.988   6.696   2.589
 6047TIP3    H118026   2.074   6.723   2.548
 6047TIP3    H218027   2.001   6.735   2.678
 6048TIP3   OH218028   2.058   6.843   2.820
 6048TIP3    H118029   1.980   6.876   2.868
 6048TIP3    H218030   2.089   6.924   2.775
 6049TIP3   OH218031   0.676   6.571   3.623
 6049TIP3    H118032   0.774   6.564   3.624
 6049TIP3    H218033   0.652   6.485   3.662
 6050TIP3   OH218034   2.505   6.432   3.375
 6050TIP3    H118035   2.567   6.368   3.333
 6050TIP3    H218036   2.479   6.488   3.299
 6051TIP3   OH218037   1.937   6.275   2.131
 6051TIP3    H118038   1.982   6.257   2.216
 6051TIP3    H218039   1.874   6.200   2.127
 6052TIP3   OH218040   0.636   6.261   2.950
 6052TIP3    H118041   0.698   6.186   2.960
 6052TIP3    H218042   0.698   6.335   2.944
 6053TIP3   OH218043   0.439   6.533   3.023
 6053TIP3    H118044   0.488   6.529   2.938
 6053TIP3    H218045   0.472   6.615   3.062
 6054TIP3   OH218046   2.380   6.575   3.180
 6054TIP3    H118047   2.295   6.616   3.206
 6054TIP3    H218048   2.347   6.503   3.122
 6055TIP3   OH218049   2.024   6.206   1.773
 6055TIP3    H118050   2.056   6.137   1.710
 6055TIP3    H218051   2.085   6.280   1.756
 6056TIP3   OH218052   0.422   6.038   2.527
 6056TIP3    H118053   0.328   6.033   2.552
 6056TIP3    H218054   0.419   6.095   2.447
 6057TIP3   OH218055   1.585   7.741   2.033
 6057TIP3    H118056   1.632   7.725   1.949
 6057TIP3    H218057   1.640   7.809   2.074
 6058TIP3   OH218058   0.642   6.117   3.338
 6058TIP3    H118059   0.592   6.111   3.421
 6058TIP3    H218060   0.575   6.157   3.279
 6059TIP3   OH218061   0.687   7.550   3.416
 6059TIP3    H118062   0.596   7.519   3.398
 6059TIP3    H218063   0.698   7.525   3.509
 6060TIP3   OH218064   0.858   7.578   2.962
 6060TIP3    H118065   0.813   7.656   2.923
 6060TIP3    H218066   0.945   7.590   2.919
 6061TIP3   OH218067   1.303   7.823   3.101
 6061TIP3    H118068   1.345   7.822   3.189
 6061TIP3    H218069   1.369   7.874   3.049
 6062TIP3   OH218070   1.482   7.976   2.960
 6062TIP3    H118071   1.552   7.923   2.918
 6062TIP3    H218072   1.535   8.031   3.021
 6063TIP3   OH218073   2.277   6.338   3.059
 6063TIP3    H118074   2.187   6.333   3.023
 6063TIP3    H218075   2.307   6.244   3.048
 6064TIP3   OH218076   0.531   7.833   2.986
 6064TIP3    H118077   0.447   7.876   2.961
 6064TIP3    H218078   0.547   7.875   3.072
 6065TIP3   OH218079   0.772   7.814   2.846
 6065TIP3    H118080   0.685   7.826   2.889
 6065TIP3    H218081   0.754   7.847   2.755
 6066TIP3   OH218082   1.197   7.842   2.644
 6066TIP3    H118083   1.133   7.862   2.574
 6066TIP3    H218084   1.210   7.930   2.685
 6067TIP3   OH218085   1.467   7.783   2.696
 6067TIP3    H118086   1.372   7.797   2.675
 6067TIP3    H218087   1.508   7.857   2.649
 6068TIP3   OH218088   1.678   7.975   2.609
 6068TIP3    H118089   1.661   8.058   2.559
 6068TIP3    H218090   1.701   7.913   2.536
 6069TIP3   OH218091   0.450   7.622   2.732
 6069TIP3    H118092   0.478   7.597   2.823
 6069TIP3    H218093   0.522   7.578   2.682
 6070TIP3   OH218094   0.652   7.500   2.595
 6070TIP3    H118095   0.666   7.414   2.642
 6070TIP3    H218096   0.743   7.534   2.590
 6071TIP3   OH218097   0.914   7.596   2.593
 6071TIP3    H118098   0.946   7.504   2.578
 6071TIP3    H218099   0.960   7.615   2.677
 6072TIP3   OH218100   1.488   6.254   2.687
 6072TIP3    H118101   1.441   6.182   2.734
 6072TIP3    H218102   1.552   6.205   2.633
 6073TIP3   OH218103   2.007   6.132   2.589
 6073TIP3    H118104   2.044   6.183   2.513
 6073TIP3    H218105   1.911   6.149   2.579
 6074TIP3   OH218106   2.102   6.229   2.351
 6074TIP3    H118107   2.175   6.180   2.307
 6074TIP3    H218108   2.132   6.321   2.335
 6075TIP3   OH218109   0.731   5.959   2.695
 6075TIP3    H118110   0.639   5.927   2.697
 6075TIP3    H218111   0.780   5.874   2.691
 6076TIP3   OH218112   0.518   5.829   2.343
 6076TIP3    H118113   0.550   5.886   2.270
 6076TIP3    H218114   0.490   5.895   2.409
 6077TIP3   OH218115   1.178   5.989   2.575
 6077TIP3    H118116   1.234   6.039   2.514
 6077TIP3    H218117   1.194   6.034   2.659
 6078TIP3   OH218118   1.727   6.142   2.555
 6078TIP3    H118119   1.717   6.109   2.465
 6078TIP3    H218120   1.710   6.061   2.609
 6079TIP3   OH218121   1.754   6.063   2.124
 6079TIP3    H118122   1.666   6.105   2.125
 6079TIP3    H218123   1.735   5.978   2.168
 6080TIP3   OH218124   0.638   5.985   2.111
 6080TIP3    H118125   0.687   5.925   2.051
 6080TIP3    H218126   0.710   6.041   2.144
 6081TIP3   OH218127   1.146   6.163   2.208
 6081TIP3    H118128   1.209   6.117   2.266
 6081TIP3    H218129   1.169   6.256   2.229
 6082TIP3   OH218130   1.066   7.596   1.714
 6082TIP3    H118131   1.155   7.618   1.677
 6082TIP3    H218132   1.048   7.514   1.663
 6083TIP3   OH218133   1.728   7.707   1.800
 6083TIP3    H118134   1.721   7.609   1.787
 6083TIP3    H218135   1.682   7.739   1.720
 6084TIP3   OH218136   0.940   6.241   3.586
 6084TIP3    H118137   0.904   6.171   3.643
 6084TIP3    H218138   1.034   6.241   3.614
 6085TIP3   OH218139   1.188   6.236   3.706
 6085TIP3    H118140   1.275   6.210   3.672
 6085TIP3    H218141   1.173   6.167   3.774
 6086TIP3   OH218142   2.015   6.295   3.493
 6086TIP3    H118143   2.032   6.268   3.586
 6086TIP3    H218144   2.106   6.295   3.457
 6087TIP3   OH218145   1.954   7.852   2.984
 6087TIP3    H118146   1.875   7.818   2.936
 6087TIP3    H218147   1.931   7.947   2.990
 6088TIP3   OH218148   3.219   7.225   1.750
 6088TIP3    H118149   3.190   7.316   1.729
 6088TIP3    H218150   3.143   7.174   1.716
 6089TIP3   OH218151   3.221   7.224   2.132
 6089TIP3    H118152   3.251   7.195   2.221
 6089TIP3    H218153   3.176   7.144   2.100
 6090TIP3   OH218154   2.518   7.118   2.496
 6090TIP3    H118155   2.547   7.050   2.559
 6090TIP3    H218156   2.596   7.174   2.491
 6091TIP3   OH218157   3.464   7.525   1.814
 6091TIP3    H118158   3.445   7.457   1.881
 6091TIP3    H218159   3.491   7.601   1.868
 6092TIP3   OH218160   2.491   7.531   2.224
 6092TIP3    H118161   2.481   7.433   2.225
 6092TIP3    H218162   2.588   7.538   2.214
 6093TIP3   OH218163   2.196   6.734   2.007
 6093TIP3    H118164   2.144   6.815   2.021
 6093TIP3    H218165   2.128   6.677   1.967
 6094TIP3   OH218166   2.257   7.021   2.183
 6094TIP3    H118167   2.304   6.942   2.217
 6094TIP3    H218168   2.308   7.043   2.104
 6095TIP3   OH218169   3.113   7.989   1.831
 6095TIP3    H118170   3.157   7.918   1.780
 6095TIP3    H218171   3.103   7.947   1.917
 6096TIP3   OH218172   3.016   7.451   2.181
 6096TIP3    H118173   3.052   7.375   2.133
 6096TIP3    H218174   3.100   7.495   2.205
 6097TIP3   OH218175   4.030   6.770   2.178
 6097TIP3    H118176   4.058   6.852   2.225
 6097TIP3    H218177   4.046   6.796   2.085
 6098TIP3   OH218178   3.432   6.951   2.212
 6098TIP3    H118179   3.470   6.864   2.232
 6098TIP3    H218180   3.398   6.936   2.122
 6099TIP3   OH218181   2.771   6.611   2.176
 6099TIP3    H118182   2.746   6.683   2.115
 6099TIP3    H218183   2.722   6.536   2.134
 6100TIP3   OH218184   3.464   6.702   1.802
 6100TIP3    H118185   3.538   6.686   1.865
 6100TIP3    H218186   3.513   6.738   1.726
 6101TIP3   OH218187   2.400   6.812   2.285
 6101TIP3    H118188   2.483   6.791   2.333
 6101TIP3    H218189   2.412   6.756   2.206
 6102TIP3   OH218190   2.840   7.010   2.078
 6102TIP3    H118191   2.934   6.984   2.092
 6102TIP3    H218192   2.801   6.927   2.046
 6103TIP3   OH218193   4.101   6.976   2.349
 6103TIP3    H118194   4.019   7.026   2.331
 6103TIP3    H218195   4.120   7.005   2.439
 6104TIP3   OH218196   2.764   6.594   2.613
 6104TIP3    H118197   2.704   6.630   2.545
 6104TIP3    H218198   2.712   6.610   2.694
 6105TIP3   OH218199   3.111   7.445   1.620
 6105TIP3    H118200   3.067   7.426   1.535
 6105TIP3    H218201   3.065   7.528   1.645
 6106TIP3   OH218202   2.871   7.370   2.407
 6106TIP3    H118203   2.808   7.435   2.444
 6106TIP3    H218204   2.911   7.420   2.333
 6107TIP3   OH218205   3.676   6.700   1.975
 6107TIP3    H118206   3.647   6.663   2.060
 6107TIP3    H218207   3.723   6.781   2.004
 6108TIP3   OH218208   2.636   6.708   2.396
 6108TIP3    H118209   2.698   6.781   2.419
 6108TIP3    H218210   2.685   6.668   2.321
 6109TIP3   OH218211   2.699   7.564   2.507
 6109TIP3    H118212   2.671   7.648   2.467
 6109TIP3    H218213   2.621   7.546   2.563
 6110TIP3   OH218214   2.093   7.253   1.741
 6110TIP3    H118215   2.049   7.277   1.656
 6110TIP3    H218216   2.121   7.339   1.775
 6111TIP3   OH218217   3.532   7.769   1.981
 6111TIP3    H118218   3.442   7.761   2.021
 6111TIP3    H218219   3.524   7.855   1.936
 6112TIP3   OH218220   3.820   6.670   2.341
 6112TIP3    H118221   3.732   6.702   2.314
 6112TIP3    H218222   3.878   6.707   2.272
 6113TIP3   OH218223   3.121   6.313   2.329
 6113TIP3    H118224   3.105   6.218   2.345
 6113TIP3    H218225   3.042   6.351   2.375
 6114TIP3   OH218226   3.233   7.816   1.655
 6114TIP3    H118227   3.283   7.733   1.635
 6114TIP3    H218228   3.295   7.881   1.614
 6115TIP3   OH218229   3.376   7.600   1.563
 6115TIP3    H118230   3.336   7.522   1.524
 6115TIP3    H218231   3.413   7.564   1.647
 6116TIP3   OH218232   3.758   7.682   2.324
 6116TIP3    H118233   3.746   7.604   2.265
 6116TIP3    H218234   3.740   7.756   2.264
 6117TIP3   OH218235   3.050   7.076   1.583
 6117TIP3    H118236   2.969   7.127   1.563
 6117TIP3    H218237   3.093   7.073   1.496
 6118TIP3   OH218238   3.009   6.860   1.299
 6118TIP3    H118239   3.077   6.912   1.345
 6118TIP3    H218240   3.065   6.796   1.251
 6119TIP3   OH218241   3.953   7.318   2.169
 6119TIP3    H118242   3.870   7.370   2.175
 6119TIP3    H218243   3.983   7.344   2.080
 6120TIP3   OH218244   3.397   7.159   1.553
 6120TIP3    H118245   3.342   7.183   1.631
 6120TIP3    H218246   3.481   7.134   1.598
 6121TIP3   OH218247   3.632   7.197   2.466
 6121TIP3    H118248   3.629   7.280   2.517
 6121TIP3    H218249   3.545   7.201   2.422
 6122TIP3   OH218250   2.628   7.156   1.970
 6122TIP3    H118251   2.586   7.098   1.903
 6122TIP3    H218252   2.705   7.102   1.999
 6123TIP3   OH218253   2.759   7.568   2.119
 6123TIP3    H118254   2.736   7.529   2.033
 6123TIP3    H218255   2.848   7.531   2.135
 6124TIP3   OH218256   2.770   7.125   2.327
 6124TIP3    H118257   2.798   7.105   2.236
 6124TIP3    H218258   2.810   7.212   2.344
 6125TIP3   OH218259   3.291   7.765   2.102
 6125TIP3    H118260   3.279   7.844   2.157
 6125TIP3    H218261   3.276   7.692   2.165
 6126TIP3   OH218262   2.903   7.694   2.642
 6126TIP3    H118263   2.838   7.747   2.692
 6126TIP3    H218264   2.842   7.634   2.594
 6127TIP3   OH218265   3.239   7.014   1.380
 6127TIP3    H118266   3.296   7.076   1.431
 6127TIP3    H218267   3.264   7.037   1.287
 6128TIP3   OH218268   2.658   7.240   2.749
 6128TIP3    H118269   2.662   7.326   2.795
 6128TIP3    H218270   2.563   7.219   2.762
 6129TIP3   OH218271   2.982   7.694   1.658
 6129TIP3    H118272   3.061   7.750   1.670
 6129TIP3    H218273   2.920   7.754   1.613
 6130TIP3   OH218274   2.703   7.864   2.740
 6130TIP3    H118275   2.668   7.859   2.649
 6130TIP3    H218276   2.624   7.841   2.794
 6131TIP3   OH218277   3.754   6.256   1.431
 6131TIP3    H118278   3.671   6.276   1.478
 6131TIP3    H218279   3.767   6.338   1.379
 6132TIP3   OH218280   2.495   6.999   1.777
 6132TIP3    H118281   2.429   7.044   1.720
 6132TIP3    H218282   2.454   6.912   1.787
 6133TIP3   OH218283   3.552   7.624   0.977
 6133TIP3    H118284   3.559   7.721   0.962
 6133TIP3    H218285   3.645   7.595   0.965
 6134TIP3   OH218286   2.278   7.384   2.681
 6134TIP3    H118287   2.210   7.362   2.614
 6134TIP3    H218288   2.314   7.295   2.704
 6135TIP3   OH218289   2.130   7.575   2.315
 6135TIP3    H118290   2.226   7.571   2.306
 6135TIP3    H218291   2.118   7.655   2.368
 6136TIP3   OH218292   3.996   8.028   2.371
 6136TIP3    H118293   3.994   7.931   2.386
 6136TIP3    H218294   3.912   8.053   2.417
 6137TIP3   OH218295   3.106   7.808   2.499
 6137TIP3    H118296   3.118   7.893   2.543
 6137TIP3    H218297   3.030   7.769   2.549
 6138TIP3   OH218298   2.864   7.941   1.458
 6138TIP3    H118299   2.816   7.922   1.375
 6138TIP3    H218300   2.830   8.029   1.482
 6139TIP3   OH218301   2.300   7.791   1.841
 6139TIP3    H118302   2.345   7.780   1.928
 6139TIP3    H218303   2.246   7.709   1.839
 6140TIP3   OH218304   3.063   7.844   1.097
 6140TIP3    H118305   3.122   7.773   1.061
 6140TIP3    H218306   3.098   7.852   1.189
 6141TIP3   OH218307   3.115   7.891   1.367
 6141TIP3    H118308   3.026   7.901   1.408
 6141TIP3    H218309   3.163   7.849   1.440
 6142TIP3   OH218310   3.887   7.158   2.645
 6142TIP3    H118311   3.802   7.170   2.599
 6142TIP3    H218312   3.900   7.062   2.639
 6143TIP3   OH218313   2.481   7.568   2.674
 6143TIP3    H118314   2.532   7.545   2.755
 6143TIP3    H218315   2.408   7.504   2.678
 6144TIP3   OH218316   2.881   6.390   2.455
 6144TIP3    H118317   2.792   6.358   2.428
 6144TIP3    H218318   2.855   6.471   2.503
 6145TIP3   OH218319   3.415   6.503   2.650
 6145TIP3    H118320   3.481   6.477   2.717
 6145TIP3    H218321   3.330   6.484   2.696
 6146TIP3   OH218322   3.654   6.935   2.569
 6146TIP3    H118323   3.605   6.930   2.654
 6146TIP3    H218324   3.628   7.022   2.534
 6147TIP3   OH218325   3.316   7.061   1.126
 6147TIP3    H118326   3.279   7.037   1.039
 6147TIP3    H218327   3.396   7.111   1.099
 6148TIP3   OH218328   3.029   6.435   1.427
 6148TIP3    H118329   2.992   6.433   1.517
 6148TIP3    H218330   2.986   6.354   1.391
 6149TIP3   OH218331   2.815   6.903   2.475
 6149TIP3    H118332   2.762   6.923   2.556
 6149TIP3    H218333   2.799   6.984   2.422
 6150TIP3   OH218334   2.696   6.791   1.988
 6150TIP3    H118335   2.603   6.765   2.006
 6150TIP3    H218336   2.708   6.751   1.899
 6151TIP3   OH218337   3.188   6.877   1.717
 6151TIP3    H118338   3.135   6.948   1.675
 6151TIP3    H218339   3.241   6.845   1.641
 6152TIP3   OH218340   3.363   7.153   2.800
 6152TIP3    H118341   3.340   7.081   2.863
 6152TIP3    H218342   3.456   7.168   2.824
 6153TIP3   OH218343   3.345   6.905   1.954
 6153TIP3    H118344   3.283   6.935   1.885
 6153TIP3    H218345   3.377   6.824   1.910
 6154TIP3   OH218346   2.633   6.933   2.682
 6154TIP3    H118347   2.656   6.995   2.752
 6154TIP3    H218348   2.619   6.850   2.733
 6155TIP3   OH218349   2.685   6.413   1.393
 6155TIP3    H118350   2.671   6.409   1.490
 6155TIP3    H218351   2.605   6.463   1.366
 6156TIP3   OH218352   2.222   6.455   2.266
 6156TIP3    H118353   2.302   6.485   2.315
 6156TIP3    H218354   2.257   6.422   2.182
 6157TIP3   OH218355   2.200   6.439   1.784
 6157TIP3    H118356   2.242   6.477   1.704
 6157TIP3    H218357   2.136   6.510   1.804
 6158TIP3   OH218358   3.356   7.150   2.377
 6158TIP3    H118359   3.389   7.078   2.318
 6158TIP3    H218360   3.326   7.097   2.454
 6159TIP3   OH218361   3.027   6.610   2.050
 6159TIP3    H118362   2.941   6.609   2.097
 6159TIP3    H218363   3.089   6.615   2.124
 6160TIP3   OH218364   2.458   6.669   2.056
 6160TIP3    H118365   2.363   6.678   2.030
 6160TIP3    H218366   2.477   6.577   2.034
 6161TIP3   OH218367   2.728   6.666   1.746
 6161TIP3    H118368   2.820   6.681   1.719
 6161TIP3    H218369   2.677   6.687   1.664
 6162TIP3   OH218370   3.515   6.685   2.246
 6162TIP3    H118371   3.486   6.699   2.340
 6162TIP3    H218372   3.444   6.625   2.217
 6163TIP3   OH218373   2.571   6.698   1.526
 6163TIP3    H118374   2.498   6.653   1.480
 6163TIP3    H218375   2.621   6.733   1.450
 6164TIP3   OH218376   3.684   8.378   2.471
 6164TIP3    H118377   3.683   8.400   2.376
 6164TIP3    H218378   3.765   8.424   2.500
 6165TIP3   OH218379   2.644   7.490   2.891
 6165TIP3    H118380   2.724   7.516   2.941
 6165TIP3    H218381   2.579   7.482   2.964
 6166TIP3   OH218382   3.106   6.941   2.148
 6166TIP3    H118383   3.179   6.900   2.100
 6166TIP3    H218384   3.112   6.899   2.236
 6167TIP3   OH218385   2.633   6.426   2.028
 6167TIP3    H118386   2.594   6.349   2.074
 6167TIP3    H218387   2.671   6.385   1.949
 6168TIP3   OH218388   3.084   6.840   2.433
 6168TIP3    H118389   2.993   6.873   2.449
 6168TIP3    H218390   3.139   6.900   2.486
 6169TIP3   OH218391   2.821   7.228   1.533
 6169TIP3    H118392   2.749   7.162   1.521
 6169TIP3    H218393   2.801   7.262   1.624
 6170TIP3   OH218394   3.720   7.463   2.160
 6170TIP3    H118395   3.744   7.514   2.079
 6170TIP3    H218396   3.635   7.422   2.135
 6171TIP3   OH218397   3.279   6.538   1.398
 6171TIP3    H118398   3.182   6.520   1.403
 6171TIP3    H218399   3.284   6.634   1.418
 6172TIP3   OH218400   3.223   7.544   2.529
 6172TIP3    H118401   3.247   7.520   2.620
 6172TIP3    H218402   3.182   7.631   2.539
 6173TIP3   OH218403   3.347   6.789   1.500
 6173TIP3    H118404   3.443   6.797   1.512
 6173TIP3    H218405   3.325   6.867   1.446
 6174TIP3   OH218406   2.517   7.256   2.208
 6174TIP3    H118407   2.551   7.224   2.122
 6174TIP3    H218408   2.547   7.187   2.269
 6175TIP3   OH218409   2.966   7.378   1.356
 6175TIP3    H118410   2.918   7.464   1.360
 6175TIP3    H218411   2.911   7.323   1.415
 6176TIP3   OH218412   2.394   7.170   2.819
 6176TIP3    H118413   2.410   7.155   2.915
 6176TIP3    H218414   2.323   7.105   2.801
 6177TIP3   OH218415   3.119   7.280   2.840
 6177TIP3    H118416   3.059   7.220   2.794
 6177TIP3    H218417   3.207   7.246   2.810
 6178TIP3   OH218418   3.384   7.805   2.418
 6178TIP3    H118419   3.288   7.799   2.431
 6178TIP3    H218420   3.411   7.855   2.499
 6179TIP3   OH218421   3.791   6.879   1.332
 6179TIP3    H118422   3.729   6.834   1.269
 6179TIP3    H218423   3.786   6.969   1.292
 6180TIP3   OH218424   4.008   7.736   2.414
 6180TIP3    H118425   3.910   7.731   2.405
 6180TIP3    H218426   4.034   7.706   2.323
 6181TIP3   OH218427   3.494   7.697   1.243
 6181TIP3    H118428   3.462   7.627   1.302
 6181TIP3    H218429   3.503   7.651   1.157
 6182TIP3   OH218430   3.486   7.327   2.079
 6182TIP3    H118431   3.392   7.301   2.092
 6182TIP3    H218432   3.519   7.247   2.033
 6183TIP3   OH218433   2.613   7.556   1.835
 6183TIP3    H118434   2.612   7.636   1.780
 6183TIP3    H218435   2.519   7.535   1.841
 6184TIP3   OH218436   2.179   6.858   1.539
 6184TIP3    H118437   2.222   6.943   1.559
 6184TIP3    H218438   2.100   6.863   1.597
 6185TIP3   OH218439   2.751   7.321   1.778
 6185TIP3    H118440   2.716   7.410   1.796
 6185TIP3    H218441   2.713   7.270   1.851
 6186TIP3   OH218442   2.883   7.898   2.301
 6186TIP3    H118443   2.922   7.971   2.249
 6186TIP3    H218444   2.962   7.856   2.338
 6187TIP3   OH218445   2.533   7.793   1.685
 6187TIP3    H118446   2.447   7.801   1.731
 6187TIP3    H218447   2.564   7.886   1.687
 6188TIP3   OH218448   3.271   7.532   2.260
 6188TIP3    H118449   3.262   7.529   2.358
 6188TIP3    H218450   3.350   7.478   2.246
 6189TIP3   OH218451   3.246   7.426   1.142
 6189TIP3    H118452   3.297   7.400   1.222
 6189TIP3    H218453   3.156   7.398   1.168
 6190TIP3   OH218454   3.522   8.064   2.309
 6190TIP3    H118455   3.442   8.008   2.304
 6190TIP3    H218456   3.503   8.130   2.239
 6191TIP3   OH218457   3.585   7.899   0.962
 6191TIP3    H118458   3.622   7.970   0.907
 6191TIP3    H218459   3.505   7.945   0.996
 6192TIP3   OH218460   2.604   6.676   2.827
 6192TIP3    H118461   2.507   6.681   2.841
 6192TIP3    H218462   2.631   6.619   2.901
 6193TIP3   OH218463   3.406   7.360   1.359
 6193TIP3    H118464   3.395   7.293   1.430
 6193TIP3    H218465   3.503   7.356   1.346
 6194TIP3   OH218466   2.322   7.761   2.459
 6194TIP3    H118467   2.372   7.683   2.489
 6194TIP3    H218468   2.350   7.827   2.524
 6195TIP3   OH218469   2.612   7.406   1.142
 6195TIP3    H118470   2.623   7.313   1.112
 6195TIP3    H218471   2.591   7.393   1.237
 6196TIP3   OH218472   2.556   7.411   1.415
 6196TIP3    H118473   2.628   7.384   1.474
 6196TIP3    H218474   2.561   7.509   1.422
 6197TIP3   OH218475   2.293   7.105   1.619
 6197TIP3    H118476   2.225   7.148   1.675
 6197TIP3    H218477   2.305   7.174   1.550
 6198TIP3   OH218478   3.448   6.736   2.506
 6198TIP3    H118479   3.520   6.779   2.555
 6198TIP3    H218480   3.428   6.657   2.562
 6199TIP3   OH218481   3.325   6.490   1.676
 6199TIP3    H118482   3.306   6.511   1.582
 6199TIP3    H218483   3.360   6.575   1.709
 6200TIP3   OH218484   2.824   7.609   1.365
 6200TIP3    H118485   2.736   7.635   1.400
 6200TIP3    H218486   2.837   7.678   1.298
 6201TIP3   OH218487   3.016   6.669   1.778
 6201TIP3    H118488   3.077   6.744   1.761
 6201TIP3    H218489   3.016   6.666   1.876
 6202TIP3   OH218490   3.281   6.990   2.585
 6202TIP3    H118491   3.300   7.046   2.663
 6202TIP3    H218492   3.334   6.911   2.604
 6203TIP3   OH218493   3.157   6.400   1.884
 6203TIP3    H118494   3.136   6.482   1.933
 6203TIP3    H218495   3.216   6.435   1.813
 6204TIP3   OH218496   2.568   7.684   1.432
 6204TIP3    H118497   2.537   7.752   1.369
 6204TIP3    H218498   2.551   7.727   1.518
 6205TIP3   OH218499   2.666   6.397   1.670
 6205TIP3    H118500   2.663   6.487   1.705
 6205TIP3    H218501   2.762   6.380   1.677
 6206TIP3   OH218502   3.920   6.888   2.567
 6206TIP3    H118503   3.822   6.888   2.575
 6206TIP3    H218504   3.929   6.855   2.477
 6207TIP3   OH218505   3.572   7.083   1.953
 6207TIP3    H118506   3.494   7.026   1.966
 6207TIP3    H218507   3.641   7.035   2.003
 6208TIP3   OH218508   2.284   7.312   1.424
 6208TIP3    H118509   2.352   7.382   1.431
 6208TIP3    H218510   2.328   7.256   1.356
 6209TIP3   OH218511   2.227   6.588   1.555
 6209TIP3    H118512   2.225   6.685   1.553
 6209TIP3    H218513   2.143   6.565   1.515
 6210TIP3   OH218514   3.539   8.041   1.903
 6210TIP3    H118515   3.497   8.088   1.829
 6210TIP3    H218516   3.634   8.059   1.882
 6211TIP3   OH218517   2.618   6.308   2.429
 6211TIP3    H118518   2.585   6.275   2.343
 6211TIP3    H218519   2.605   6.230   2.487
 6212TIP3   OH218520   2.157   7.533   1.810
 6212TIP3    H118521   2.085   7.558   1.870
 6212TIP3    H218522   2.124   7.571   1.725
 6213TIP3   OH218523   2.310   8.065   2.881
 6213TIP3    H118524   2.396   8.044   2.920
 6213TIP3    H218525   2.272   7.975   2.875
 6214TIP3   OH218526   2.776   7.609   1.056
 6214TIP3    H118527   2.719   7.537   1.093
 6214TIP3    H218528   2.850   7.557   1.020
 6215TIP3   OH218529   3.431   7.937   2.654
 6215TIP3    H118530   3.410   7.878   2.729
 6215TIP3    H218531   3.505   7.989   2.689
 6216TIP3   OH218532   3.211   7.650   0.967
 6216TIP3    H118533   3.254   7.584   1.025
 6216TIP3    H218534   3.266   7.648   0.887
 6217TIP3   OH218535   2.443   7.477   3.081
 6217TIP3    H118536   2.458   7.381   3.090
 6217TIP3    H218537   2.354   7.478   3.038
 6218TIP3   OH218538   2.419   7.127   1.276
 6218TIP3    H118539   2.474   7.092   1.348
 6218TIP3    H218540   2.486   7.131   1.204
 6219TIP3   OH218541   3.041   7.546   2.856
 6219TIP3    H118542   3.011   7.566   2.767
 6219TIP3    H218543   3.077   7.455   2.849
 6220TIP3   OH218544   2.934   7.326   1.085
 6220TIP3    H118545   2.933   7.337   1.182
 6220TIP3    H218546   2.932   7.228   1.078
 6221TIP3   OH218547   3.543   7.568   2.462
 6221TIP3    H118548   3.618   7.614   2.419
 6221TIP3    H218549   3.472   7.633   2.448
 6222TIP3   OH218550   2.564   7.213   3.064
 6222TIP3    H118551   2.634   7.150   3.046
 6222TIP3    H218552   2.588   7.244   3.154
 6223TIP3   OH218553   2.631   7.029   1.500
 6223TIP3    H118554   2.599   6.987   1.581
 6223TIP3    H218555   2.664   6.953   1.448
 6224TIP3   OH218556   2.898   7.096   2.727
 6224TIP3    H118557   2.818   7.153   2.728
 6224TIP3    H218558   2.946   7.129   2.648
 6225TIP3   OH218559   2.728   6.824   1.338
 6225TIP3    H118560   2.700   6.828   1.244
 6225TIP3    H218561   2.825   6.829   1.330
 6226TIP3   OH218562   3.413   7.497   2.859
 6226TIP3    H118563   3.495   7.471   2.814
 6226TIP3    H218564   3.408   7.432   2.931
 6227TIP3   OH218565   3.552   7.154   1.002
 6227TIP3    H118566   3.529   7.108   0.919
 6227TIP3    H218567   3.519   7.244   0.980
 6228TIP3   OH218568   3.021   6.883   2.851
 6228TIP3    H118569   3.019   6.803   2.795
 6228TIP3    H218570   2.976   6.949   2.794
 6229TIP3   OH218571   3.023   6.669   2.658
 6229TIP3    H118572   3.049   6.710   2.574
 6229TIP3    H218573   2.929   6.646   2.642
 6230TIP3   OH218574   3.049   7.204   2.532
 6230TIP3    H118575   3.132   7.214   2.484
 6230TIP3    H218576   2.992   7.270   2.488
 6231TIP3   OH218577   3.629   7.170   2.912
 6231TIP3    H118578   3.678   7.089   2.933
 6231TIP3    H218579   3.699   7.229   2.880
 6232TIP3   OH218580   3.673   7.423   2.649
 6232TIP3    H118581   3.615   7.477   2.591
 6232TIP3    H218582   3.760   7.444   2.609
 6233TIP3   OH218583   2.898   6.993   3.083
 6233TIP3    H118584   2.829   6.926   3.099
 6233TIP3    H218585   2.932   6.966   2.995
 6234TIP3   OH218586   3.154   6.432   2.725
 6234TIP3    H118587   3.105   6.514   2.704
 6234TIP3    H218588   3.084   6.364   2.715
 6235TIP3   OH218589   3.281   6.937   2.943
 6235TIP3    H118590   3.269   6.923   3.038
 6235TIP3    H218591   3.191   6.912   2.912
 6236TIP3   OH218592   3.517   6.881   2.795
 6236TIP3    H118593   3.443   6.886   2.859
 6236TIP3    H218594   3.592   6.853   2.853
 6237TIP3   OH218595   3.749   6.825   2.946
 6237TIP3    H118596   3.761   6.730   2.967
 6237TIP3    H218597   3.743   6.866   3.035
 6238TIP3   OH218598   2.738   6.773   3.136
 6238TIP3    H118599   2.743   6.681   3.103
 6238TIP3    H218600   2.774   6.762   3.226
 6239TIP3   OH218601   3.250   6.444   2.983
 6239TIP3    H118602   3.316   6.371   2.979
 6239TIP3    H218603   3.209   6.436   2.894
 6240TIP3   OH218604   3.316   6.658   3.142
 6240TIP3    H118605   3.293   6.587   3.079
 6240TIP3    H218606   3.237   6.716   3.137
 6241TIP3   OH218607   2.536   7.887   1.246
 6241TIP3    H118608   2.631   7.881   1.225
 6241TIP3    H218609   2.505   7.936   1.167
 6242TIP3   OH218610   2.016   7.267   1.461
 6242TIP3    H118611   2.110   7.287   1.446
 6242TIP3    H218612   2.008   7.179   1.418
 6243TIP3   OH218613   1.929   7.882   1.873
 6243TIP3    H118614   1.863   7.819   1.836
 6243TIP3    H218615   1.974   7.824   1.938
 6244TIP3   OH218616   2.064   7.732   2.060
 6244TIP3    H118617   2.051   7.658   2.121
 6244TIP3    H218618   2.116   7.792   2.117
 6245TIP3   OH218619   3.794   8.129   1.861
 6245TIP3    H118620   3.821   8.164   1.947
 6245TIP3    H218621   3.854   8.174   1.800
 6246TIP3   OH218622   3.822   8.152   2.144
 6246TIP3    H118623   3.777   8.065   2.138
 6246TIP3    H218624   3.897   8.128   2.201
 6247TIP3   OH218625   3.868   7.829   2.715
 6247TIP3    H118626   3.796   7.837   2.780
 6247TIP3    H218627   3.910   7.917   2.720
 6248TIP3   OH218628   3.686   7.339   1.335
 6248TIP3    H118629   3.752   7.406   1.306
 6248TIP3    H218630   3.730   7.301   1.414
 6249TIP3   OH218631   3.814   7.206   1.538
 6249TIP3    H118632   3.746   7.165   1.596
 6249TIP3    H218633   3.876   7.247   1.603
 6250TIP3   OH218634   3.868   7.602   1.972
 6250TIP3    H118635   3.920   7.537   1.921
 6250TIP3    H218636   3.861   7.676   1.910
 6251TIP3   OH218637   3.698   7.901   2.165
 6251TIP3    H118638   3.627   7.944   2.217
 6251TIP3    H218639   3.648   7.854   2.095
 6252TIP3   OH218640   3.752   7.116   1.184
 6252TIP3    H118641   3.680   7.118   1.117
 6252TIP3    H218642   3.723   7.192   1.239
 6253TIP3   OH218643   3.625   6.788   1.138
 6253TIP3    H118644   3.577   6.828   1.065
 6253TIP3    H218645   3.598   6.694   1.128
 6254TIP3   OH218646   3.627   7.065   1.685
 6254TIP3    H118647   3.632   6.969   1.678
 6254TIP3    H218648   3.613   7.079   1.781
 6255TIP3   OH218649   2.252   7.138   2.433
 6255TIP3    H118650   2.249   7.106   2.340
 6255TIP3    H218651   2.349   7.139   2.449
 6256TIP3   OH218652   3.916   7.490   2.542
 6256TIP3    H118653   3.989   7.424   2.532
 6256TIP3    H218654   3.943   7.560   2.480
 6257TIP3   OH218655   4.102   7.294   2.553
 6257TIP3    H118656   4.027   7.245   2.594
 6257TIP3    H218657   4.174   7.231   2.569
 6258TIP3   OH218658   3.565   6.522   1.126
 6258TIP3    H118659   3.634   6.488   1.185
 6258TIP3    H218660   3.487   6.466   1.145
 6259TIP3   OH218661   3.624   6.782   1.581
 6259TIP3    H118662   3.665   6.693   1.594
 6259TIP3    H218663   3.680   6.815   1.508
 6260TIP3   OH218664   3.784   6.950   2.076
 6260TIP3    H118665   3.869   6.978   2.035
 6260TIP3    H218666   3.796   6.991   2.164
 6261TIP3   OH218667   3.852   7.098   2.305
 6261TIP3    H118668   3.775   7.132   2.356
 6261TIP3    H218669   3.884   7.180   2.262
 6262TIP3   OH218670   2.471   6.826   3.106
 6262TIP3    H118671   2.569   6.819   3.110
 6262TIP3    H218672   2.446   6.741   3.147
 6263TIP3   OH218673   4.304   6.690   2.862
 6263TIP3    H118674   4.364   6.624   2.820
 6263TIP3    H218675   4.276   6.745   2.786
 6264TIP3   OH218676   3.734   6.531   1.618
 6264TIP3    H118677   3.776   6.515   1.704
 6264TIP3    H218678   3.670   6.456   1.614
 6265TIP3   OH218679   2.433   6.517   2.437
 6265TIP3    H118680   2.495   6.442   2.447
 6265TIP3    H218681   2.495   6.592   2.431
 6266TIP3   OH218682   2.234   6.790   2.511
 6266TIP3    H118683   2.282   6.784   2.426
 6266TIP3    H218684   2.262   6.878   2.541
 6267TIP3   OH218685   4.177   6.831   2.668
 6267TIP3    H118686   4.092   6.871   2.696
 6267TIP3    H218687   4.143   6.759   2.611
 6268TIP3   OH218688   3.815   6.463   1.255
 6268TIP3    H118689   3.850   6.393   1.195
 6268TIP3    H218690   3.878   6.536   1.241
 6269TIP3   OH218691   2.218   6.302   2.017
 6269TIP3    H118692   2.123   6.291   2.037
 6269TIP3    H218693   2.215   6.356   1.935
 6270TIP3   OH218694   3.379   7.998   1.518
 6270TIP3    H118695   3.427   7.983   1.435
 6270TIP3    H218696   3.432   8.067   1.560
 6271TIP3   OH218697   2.437   6.371   2.825
 6271TIP3    H118698   2.388   6.371   2.908
 6271TIP3    H218699   2.372   6.412   2.764
 6272TIP3   OH218700   2.479   7.815   2.914
 6272TIP3    H118701   2.392   7.782   2.884
 6272TIP3    H218702   2.487   7.771   3.000
 6273TIP3   OH218703   2.658   7.838   2.456
 6273TIP3    H118704   2.607   7.910   2.414
 6273TIP3    H218705   2.743   7.851   2.408
 6274TIP3   OH218706   3.266   8.239   2.446
 6274TIP3    H118707   3.327   8.174   2.409
 6274TIP3    H218708   3.323   8.287   2.509
 6275TIP3   OH218709   4.079   6.593   2.545
 6275TIP3    H118710   3.987   6.589   2.517
 6275TIP3    H218711   4.107   6.499   2.534
 6276TIP3   OH218712   2.333   8.094   2.473
 6276TIP3    H118713   2.244   8.127   2.446
 6276TIP3    H218714   2.334   8.125   2.564
 6277TIP3   OH218715   2.570   8.071   2.334
 6277TIP3    H118716   2.483   8.084   2.376
 6277TIP3    H218717   2.552   8.103   2.243
 6278TIP3   OH218718   2.993   8.098   2.131
 6278TIP3    H118719   2.925   8.116   2.063
 6278TIP3    H218720   3.004   8.187   2.170
 6279TIP3   OH218721   3.262   8.039   2.184
 6279TIP3    H118722   3.169   8.056   2.162
 6279TIP3    H218723   3.307   8.111   2.137
 6280TIP3   OH218724   3.471   8.230   2.095
 6280TIP3    H118725   3.456   8.315   2.047
 6280TIP3    H218726   3.496   8.170   2.022
 6281TIP3   OH218727   2.244   7.886   2.219
 6281TIP3    H118728   2.271   7.858   2.309
 6281TIP3    H218729   2.315   7.842   2.167
 6282TIP3   OH218730   2.437   7.757   2.077
 6282TIP3    H118731   2.453   7.673   2.126
 6282TIP3    H218732   2.528   7.793   2.070
 6283TIP3   OH218733   2.704   7.851   2.078
 6283TIP3    H118734   2.735   7.760   2.064
 6283TIP3    H218735   2.748   7.872   2.162
 6284TIP3   OH218736   3.287   6.508   2.176
 6284TIP3    H118737   3.234   6.444   2.228
 6284TIP3    H218738   3.339   6.450   2.120
 6285TIP3   OH218739   3.856   6.379   2.082
 6285TIP3    H118740   3.861   6.440   2.004
 6285TIP3    H218741   3.758   6.381   2.092
 6286TIP3   OH218742   3.904   6.484   1.837
 6286TIP3    H118743   3.973   6.440   1.783
 6286TIP3    H218744   3.928   6.578   1.822
 6287TIP3   OH218745   2.528   6.216   2.182
 6287TIP3    H118746   2.435   6.185   2.182
 6287TIP3    H218747   2.575   6.130   2.178
 6288TIP3   OH218748   2.325   6.085   1.833
 6288TIP3    H118749   2.346   6.142   1.757
 6288TIP3    H218750   2.286   6.149   1.896
 6289TIP3   OH218751   2.975   6.246   2.061
 6289TIP3    H118752   3.033   6.299   2.004
 6289TIP3    H218753   2.988   6.287   2.147
 6290TIP3   OH218754   3.560   6.387   2.047
 6290TIP3    H118755   3.520   6.366   1.961
 6290TIP3    H218756   3.524   6.314   2.103
 6291TIP3   OH218757   3.549   6.320   1.612
 6291TIP3    H118758   3.463   6.363   1.621
 6291TIP3    H218759   3.531   6.233   1.654
 6292TIP3   OH218760   2.032   7.657   1.608
 6292TIP3    H118761   1.946   7.623   1.575
 6292TIP3    H218762   2.022   7.750   1.581
 6293TIP3   OH218763   2.431   6.244   1.593
 6293TIP3    H118764   2.479   6.182   1.535
 6293TIP3    H218765   2.504   6.298   1.630
 6294TIP3   OH218766   2.943   6.421   1.691
 6294TIP3    H118767   3.000   6.371   1.752
 6294TIP3    H218768   2.967   6.513   1.717
 6295TIP3   OH218769   2.803   7.846   1.191
 6295TIP3    H118770   2.892   7.868   1.155
 6295TIP3    H218771   2.781   7.770   1.132
 6296TIP3   OH218772   3.523   7.964   1.285
 6296TIP3    H118773   3.516   7.866   1.273
 6296TIP3    H218774   3.477   7.996   1.204
 6297TIP3   OH218775   2.736   6.497   3.072
 6297TIP3    H118776   2.701   6.427   3.130
 6297TIP3    H218777   2.830   6.497   3.101
 6298TIP3   OH218778   2.985   6.493   3.192
 6298TIP3    H118779   3.070   6.466   3.155
 6298TIP3    H218780   2.971   6.424   3.260
 6299TIP3   OH218781   2.112   7.687   1.250
 6299TIP3    H118782   2.109   7.704   1.345
 6299TIP3    H218783   2.199   7.641   1.239
 6300TIP3   OH218784   3.809   6.555   2.980
 6300TIP3    H118785   3.827   6.525   3.072
 6300TIP3    H218786   3.899   6.550   2.941
 6301TIP3   OH218787   3.749   8.109   2.472
 6301TIP3    H118788   3.671   8.076   2.422
 6301TIP3    H218789   3.727   8.204   2.477
 6302TIP3   OH218790   5.011   7.476   1.231
 6302TIP3    H118791   4.990   7.571   1.215
 6302TIP3    H218792   4.923   7.438   1.221
 6303TIP3   OH218793   5.014   7.479   1.620
 6303TIP3    H118794   5.048   7.455   1.708
 6303TIP3    H218795   4.973   7.396   1.591
 6304TIP3   OH218796   4.315   7.374   1.982
 6304TIP3    H118797   4.345   7.306   2.046
 6304TIP3    H218798   4.389   7.436   1.986
 6305TIP3   OH218799   5.256   7.781   1.302
 6305TIP3    H118800   5.246   7.715   1.371
 6305TIP3    H218801   5.287   7.859   1.351
 6306TIP3   OH218802   4.286   7.786   1.710
 6306TIP3    H118803   4.277   7.688   1.712
 6306TIP3    H218804   4.383   7.794   1.701
 6307TIP3   OH218805   3.993   6.989   1.492
 6307TIP3    H118806   3.943   7.071   1.511
 6307TIP3    H218807   3.922   6.936   1.452
 6308TIP3   OH218808   4.050   7.277   1.668
 6308TIP3    H118809   4.100   7.201   1.704
 6308TIP3    H218810   4.110   7.312   1.601
 6309TIP3   OH218811   4.907   8.243   1.317
 6309TIP3    H118812   4.952   8.172   1.266
 6309TIP3    H218813   4.899   8.203   1.404
 6310TIP3   OH218814   4.813   7.705   1.668
 6310TIP3    H118815   4.853   7.630   1.622
 6310TIP3    H218816   4.895   7.752   1.693
 6311TIP3   OH218817   5.828   7.026   1.665
 6311TIP3    H118818   5.856   7.111   1.706
 6311TIP3    H218819   5.849   7.043   1.571
 6312TIP3   OH218820   5.224   7.207   1.700
 6312TIP3    H118821   5.268   7.122   1.720
 6312TIP3    H218822   5.194   7.191   1.609
 6313TIP3   OH218823   4.557   6.865   1.669
 6313TIP3    H118824   4.542   6.938   1.606
 6313TIP3    H218825   4.514   6.791   1.621
 6314TIP3   OH218826   5.258   6.960   1.285
 6314TIP3    H118827   5.329   6.944   1.351
 6314TIP3    H218828   5.312   6.993   1.210
 6315TIP3   OH218829   4.196   7.069   1.772
 6315TIP3    H118830   4.278   7.050   1.820
 6315TIP3    H218831   4.208   7.011   1.694
 6316TIP3   OH218832   4.640   7.267   1.560
 6316TIP3    H118833   4.733   7.243   1.577
 6316TIP3    H218834   4.601   7.181   1.535
 6317TIP3   OH218835   5.903   7.237   1.834
 6317TIP3    H118836   5.818   7.282   1.815
 6317TIP3    H218837   5.916   7.263   1.927
 6318TIP3   OH218838   4.559   6.849   2.099
 6318TIP3    H118839   4.499   6.889   2.033
 6318TIP3    H218840   4.508   6.866   2.181
 6319TIP3   OH218841   4.899   7.698   1.107
 6319TIP3    H118842   4.866   7.692   1.016
 6319TIP3    H218843   4.860   7.783   1.135
 6320TIP3   OH218844   4.666   7.626   1.893
 6320TIP3    H118845   4.604   7.693   1.931
 6320TIP3    H218846   4.707   7.676   1.820
 6321TIP3   OH218847   5.466   6.962   1.461
 6321TIP3    H118848   5.457   6.915   1.544
 6321TIP3    H218849   5.520   7.038   1.485
 6322TIP3   OH218850   4.428   6.968   1.886
 6322TIP3    H118851   4.491   7.040   1.909
 6322TIP3    H218852   4.478   6.925   1.813
 6323TIP3   OH218853   4.496   7.820   1.993
 6323TIP3    H118854   4.470   7.906   1.953
 6323TIP3    H218855   4.417   7.804   2.049
 6324TIP3   OH218856   3.891   7.508   1.227
 6324TIP3    H118857   3.847   7.534   1.144
 6324TIP3    H218858   3.918   7.596   1.263
 6325TIP3   OH218859   5.328   8.025   1.467
 6325TIP3    H118860   5.238   8.018   1.506
 6325TIP3    H218861   5.321   8.111   1.421
 6326TIP3   OH218862   5.620   6.927   1.831
 6326TIP3    H118863   5.532   6.955   1.800
 6326TIP3    H218864   5.679   6.958   1.759
 6327TIP3   OH218865   4.914   6.568   1.812
 6327TIP3    H118866   4.902   6.473   1.832
 6327TIP3    H218867   4.838   6.607   1.860
 6328TIP3   OH218868   5.029   8.072   1.139
 6328TIP3    H118869   5.079   7.990   1.119
 6328TIP3    H218870   5.092   8.138   1.101
 6329TIP3   OH218871   5.171   7.856   1.049
 6329TIP3    H118872   5.140   7.775   1.005
 6329TIP3    H218873   5.208   7.821   1.133
 6330TIP3   OH218874   5.555   7.938   1.813
 6330TIP3    H118875   5.544   7.861   1.753
 6330TIP3    H218876   5.537   8.013   1.753
 6331TIP3   OH218877   4.812   7.304   1.046
 6331TIP3    H118878   4.761   7.388   1.042
 6331TIP3    H218879   4.887   7.325   0.986
 6332TIP3   OH218880   4.812   7.102   0.825
 6332TIP3    H118881   4.883   7.166   0.845
 6332TIP3    H218882   4.861   7.044   0.762
 6333TIP3   OH218883   5.749   7.575   1.657
 6333TIP3    H118884   5.666   7.628   1.661
 6333TIP3    H218885   5.780   7.599   1.567
 6334TIP3   OH218886   5.193   7.411   1.040
 6334TIP3    H118887   5.139   7.437   1.119
 6334TIP3    H218888   5.278   7.387   1.083
 6335TIP3   OH218889   5.428   7.454   1.953
 6335TIP3    H118890   5.425   7.538   2.003
 6335TIP3    H218891   5.342   7.457   1.907
 6336TIP3   OH218892   4.424   7.408   1.458
 6336TIP3    H118893   4.387   7.350   1.389
 6336TIP3    H218894   4.503   7.359   1.487
 6337TIP3   OH218895   4.553   7.820   1.607
 6337TIP3    H118896   4.534   7.787   1.518
 6337TIP3    H218897   4.644   7.786   1.623
 6338TIP3   OH218898   4.566   7.383   1.810
 6338TIP3    H118899   4.599   7.366   1.720
 6338TIP3    H218900   4.606   7.470   1.832
 6339TIP3   OH218901   5.087   8.022   1.589
 6339TIP3    H118902   5.073   8.102   1.643
 6339TIP3    H218903   5.072   7.949   1.652
 6340TIP3   OH218904   4.699   7.941   2.137
 6340TIP3    H118905   4.635   8.002   2.180
 6340TIP3    H218906   4.636   7.886   2.086
 6341TIP3   OH218907   5.026   7.276   0.871
 6341TIP3    H118908   5.091   7.332   0.919
 6341TIP3    H218909   5.052   7.296   0.777
 6342TIP3   OH218910   4.453   7.496   2.235
 6342TIP3    H118911   4.459   7.583   2.280
 6342TIP3    H218912   4.359   7.475   2.250
 6343TIP3   OH218913   4.778   7.950   1.149
 6343TIP3    H118914   4.856   8.007   1.158
 6343TIP3    H218915   4.717   8.005   1.097
 6344TIP3   OH218916   4.495   8.107   2.223
 6344TIP3    H118917   4.459   8.108   2.132
 6344TIP3    H218918   4.415   8.086   2.277
 6345TIP3   OH218919   5.550   6.513   0.916
 6345TIP3    H118920   5.469   6.537   0.964
 6345TIP3    H218921   5.566   6.594   0.863
 6346TIP3   OH218922   4.291   7.247   1.253
 6346TIP3    H118923   4.224   7.302   1.206
 6346TIP3    H218924   4.237   7.173   1.281
 6347TIP3   OH218925   4.073   7.639   2.169
 6347TIP3    H118926   4.005   7.618   2.102
 6347TIP3    H218927   4.109   7.551   2.192
 6348TIP3   OH218928   3.927   7.831   1.804
 6348TIP3    H118929   4.023   7.829   1.794
 6348TIP3    H218930   3.914   7.912   1.856
 6349TIP3   OH218931   5.794   8.286   1.861
 6349TIP3    H118932   5.791   8.189   1.871
 6349TIP3    H218933   5.710   8.311   1.904
 6350TIP3   OH218934   4.899   8.068   1.995
 6350TIP3    H118935   4.896   8.161   2.026
 6350TIP3    H218936   4.825   8.029   2.047
 6351TIP3   OH218937   4.659   8.195   0.943
 6351TIP3    H118938   4.616   8.176   0.857
 6351TIP3    H218939   4.627   8.285   0.964
 6352TIP3   OH218940   4.095   8.047   1.328
 6352TIP3    H118941   4.143   8.038   1.414
 6352TIP3    H218942   4.038   7.969   1.331
 6353TIP3   OH218943   4.852   8.093   0.604
 6353TIP3    H118944   4.918   8.047   0.552
 6353TIP3    H218945   4.894   8.101   0.692
 6354TIP3   OH218946   4.915   8.147   0.867
 6354TIP3    H118947   4.822   8.154   0.899
 6354TIP3    H218948   4.959   8.107   0.944
 6355TIP3   OH218949   5.682   7.414   2.132
 6355TIP3    H118950   5.600   7.426   2.081
 6355TIP3    H218951   5.697   7.318   2.122
 6356TIP3   OH218952   4.278   7.821   2.157
 6356TIP3    H118953   4.327   7.805   2.241
 6356TIP3    H218954   4.204   7.759   2.165
 6357TIP3   OH218955   4.677   6.646   1.943
 6357TIP3    H118956   4.587   6.616   1.917
 6357TIP3    H218957   4.652   6.728   1.991
 6358TIP3   OH218958   5.212   6.760   2.137
 6358TIP3    H118959   5.280   6.732   2.201
 6358TIP3    H218960   5.128   6.740   2.184
 6359TIP3   OH218961   5.450   7.190   2.056
 6359TIP3    H118962   5.400   7.187   2.140
 6359TIP3    H218963   5.425   7.277   2.020
 6360TIP3   OH218964   5.099   7.315   0.617
 6360TIP3    H118965   5.071   7.286   0.528
 6360TIP3    H218966   5.185   7.357   0.595
 6361TIP3   OH218967   4.818   6.701   0.917
 6361TIP3    H118968   4.785   6.695   1.009
 6361TIP3    H218969   4.781   6.619   0.880
 6362TIP3   OH218970   4.608   7.161   1.961
 6362TIP3    H118971   4.559   7.183   2.042
 6362TIP3    H218972   4.593   7.243   1.907
 6363TIP3   OH218973   4.487   7.046   1.478
 6363TIP3    H118974   4.395   7.024   1.505
 6363TIP3    H218975   4.490   7.007   1.390
 6364TIP3   OH218976   4.972   7.126   1.197
 6364TIP3    H118977   4.925   7.196   1.150
 6364TIP3    H218978   5.031   7.089   1.128
 6365TIP3   OH218979   5.158   7.412   2.291
 6365TIP3    H118980   5.135   7.339   2.352
 6365TIP3    H218981   5.253   7.423   2.311
 6366TIP3   OH218982   5.139   7.160   1.441
 6366TIP3    H118983   5.077   7.190   1.372
 6366TIP3    H218984   5.172   7.079   1.397
 6367TIP3   OH218985   4.428   7.190   2.170
 6367TIP3    H118986   4.452   7.254   2.238
 6367TIP3    H218987   4.417   7.108   2.222
 6368TIP3   OH218988   4.483   6.672   0.877
 6368TIP3    H118989   4.466   6.658   0.972
 6368TIP3    H218990   4.401   6.718   0.849
 6369TIP3   OH218991   4.019   6.710   1.752
 6369TIP3    H118992   4.096   6.743   1.802
 6369TIP3    H218993   4.056   6.683   1.667
 6370TIP3   OH218994   3.996   6.696   1.272
 6370TIP3    H118995   4.037   6.735   1.192
 6370TIP3    H218996   3.931   6.766   1.293
 6371TIP3   OH218997   5.149   7.407   1.863
 6371TIP3    H118998   5.182   7.335   1.805
 6371TIP3    H218999   5.120   7.354   1.941
 6372TIP3   OH219000   4.811   6.852   1.540
 6372TIP3    H119001   4.734   6.860   1.600
 6372TIP3    H219002   4.886   6.866   1.600
 6373TIP3   OH219003   4.251   6.925   1.542
 6373TIP3    H119004   4.156   6.937   1.517
 6373TIP3    H219005   4.267   6.831   1.522
 6374TIP3   OH219006   5.314   6.946   1.739
 6374TIP3    H119007   5.279   6.957   1.830
 6374TIP3    H219008   5.248   6.885   1.701
 6375TIP3   OH219009   4.379   6.950   1.023
 6375TIP3    H119010   4.297   6.904   1.000
 6375TIP3    H219011   4.416   6.964   0.934
 6376TIP3   OH219012   5.483   8.633   1.957
 6376TIP3    H119013   5.482   8.657   1.862
 6376TIP3    H219014   5.562   8.681   1.988
 6377TIP3   OH219015   4.442   7.744   2.379
 6377TIP3    H119016   4.519   7.779   2.428
 6377TIP3    H219017   4.375   7.741   2.451
 6378TIP3   OH219018   4.902   7.198   1.633
 6378TIP3    H119019   4.975   7.157   1.583
 6378TIP3    H219020   4.911   7.155   1.720
 6379TIP3   OH219021   4.430   6.680   1.508
 6379TIP3    H119022   4.388   6.609   1.561
 6379TIP3    H219023   4.490   6.628   1.453
 6380TIP3   OH219024   4.879   7.095   1.923
 6380TIP3    H119025   4.790   7.132   1.938
 6380TIP3    H219026   4.937   7.156   1.974
 6381TIP3   OH219027   4.615   7.491   1.021
 6381TIP3    H119028   4.550   7.420   1.020
 6381TIP3    H219029   4.600   7.529   1.111
 6382TIP3   OH219030   5.516   7.721   1.647
 6382TIP3    H119031   5.542   7.771   1.566
 6382TIP3    H219032   5.431   7.680   1.620
 6383TIP3   OH219033   5.076   6.793   0.887
 6383TIP3    H119034   4.978   6.781   0.890
 6383TIP3    H219035   5.088   6.889   0.902
 6384TIP3   OH219036   5.013   7.802   2.015
 6384TIP3    H119037   5.035   7.782   2.107
 6384TIP3    H219038   4.977   7.892   2.020
 6385TIP3   OH219039   5.143   7.045   0.984
 6385TIP3    H119040   5.240   7.048   1.001
 6385TIP3    H219041   5.128   7.125   0.931
 6386TIP3   OH219042   4.308   7.506   1.695
 6386TIP3    H119043   4.347   7.477   1.611
 6386TIP3    H219044   4.348   7.445   1.759
 6387TIP3   OH219045   4.766   7.636   0.844
 6387TIP3    H119046   4.722   7.725   0.847
 6387TIP3    H219047   4.707   7.586   0.904
 6388TIP3   OH219048   4.191   7.425   2.306
 6388TIP3    H119049   4.209   7.413   2.401
 6388TIP3    H219050   4.120   7.361   2.291
 6389TIP3   OH219051   4.915   7.543   2.325
 6389TIP3    H119052   4.854   7.482   2.281
 6389TIP3    H219053   5.002   7.507   2.298
 6390TIP3   OH219054   5.176   8.060   1.915
 6390TIP3    H119055   5.080   8.060   1.925
 6390TIP3    H219056   5.203   8.114   1.992
 6391TIP3   OH219057   5.582   7.132   0.823
 6391TIP3    H119058   5.523   7.091   0.756
 6391TIP3    H219059   5.581   7.223   0.785
 6392TIP3   OH219060   5.806   7.993   1.902
 6392TIP3    H119061   5.709   7.988   1.894
 6392TIP3    H219062   5.832   7.963   1.811
 6393TIP3   OH219063   5.294   7.949   0.720
 6393TIP3    H119064   5.258   7.894   0.791
 6393TIP3    H219065   5.294   7.888   0.645
 6394TIP3   OH219066   5.281   7.584   1.565
 6394TIP3    H119067   5.188   7.558   1.578
 6394TIP3    H219068   5.316   7.504   1.521
 6395TIP3   OH219069   4.411   7.811   1.319
 6395TIP3    H119070   4.413   7.892   1.265
 6395TIP3    H219071   4.316   7.797   1.328
 6396TIP3   OH219072   3.977   7.115   1.027
 6396TIP3    H119073   4.015   7.204   1.044
 6396TIP3    H219074   3.896   7.119   1.083
 6397TIP3   OH219075   4.545   7.575   1.265
 6397TIP3    H119076   4.513   7.667   1.280
 6397TIP3    H219077   4.507   7.529   1.342
 6398TIP3   OH219078   4.679   8.155   1.787
 6398TIP3    H119079   4.718   8.228   1.735
 6398TIP3    H219080   4.757   8.121   1.833
 6399TIP3   OH219081   4.331   8.048   1.173
 6399TIP3    H119082   4.244   8.059   1.217
 6399TIP3    H219083   4.364   8.140   1.175
 6400TIP3   OH219084   5.066   7.789   1.747
 6400TIP3    H119085   5.057   7.786   1.845
 6400TIP3    H219086   5.147   7.738   1.733
 6401TIP3   OH219087   5.016   7.683   0.654
 6401TIP3    H119088   5.071   7.655   0.730
 6401TIP3    H219089   4.927   7.658   0.683
 6402TIP3   OH219090   5.314   8.323   1.796
 6402TIP3    H119091   5.234   8.269   1.785
 6402TIP3    H219092   5.302   8.389   1.724
 6403TIP3   OH219093   4.401   6.931   2.315
 6403TIP3    H119094   4.305   6.938   2.332
 6403TIP3    H219095   4.431   6.877   2.390
 6404TIP3   OH219096   5.200   7.616   0.853
 6404TIP3    H119097   5.194   7.546   0.920
 6404TIP3    H219098   5.296   7.614   0.834
 6405TIP3   OH219099   4.118   8.017   1.946
 6405TIP3    H119100   4.170   7.942   1.980
 6405TIP3    H219101   4.145   8.088   2.007
 6406TIP3   OH219102   4.403   7.663   0.629
 6406TIP3    H119103   4.419   7.574   0.596
 6406TIP3    H219104   4.386   7.648   0.724
 6407TIP3   OH219105   4.357   7.665   0.906
 6407TIP3    H119106   4.433   7.653   0.965
 6407TIP3    H219107   4.353   7.763   0.903
 6408TIP3   OH219108   4.094   7.366   1.105
 6408TIP3    H119109   4.025   7.406   1.162
 6408TIP3    H219110   4.099   7.436   1.036
 6409TIP3   OH219111   5.238   6.997   1.997
 6409TIP3    H119112   5.318   7.035   2.037
 6409TIP3    H219113   5.224   6.916   2.051
 6410TIP3   OH219114   5.111   6.753   1.164
 6410TIP3    H119115   5.104   6.773   1.069
 6410TIP3    H219116   5.154   6.835   1.198
 6411TIP3   OH219117   4.623   7.863   0.860
 6411TIP3    H119118   4.537   7.901   0.887
 6411TIP3    H219119   4.626   7.888   0.765
 6412TIP3   OH219120   5.077   7.246   2.072
 6412TIP3    H119121   5.097   7.299   2.152
 6412TIP3    H219122   5.131   7.166   2.085
 6413TIP3   OH219123   4.952   6.657   1.368
 6413TIP3    H119124   4.948   6.731   1.432
 6413TIP3    H219125   5.014   6.694   1.301
 6414TIP3   OH219126   4.361   7.938   0.915
 6414TIP3    H119127   4.333   8.008   0.852
 6414TIP3    H219128   4.346   7.984   1.001
 6415TIP3   OH219129   4.458   6.641   1.150
 6415TIP3    H119130   4.439   6.730   1.183
 6415TIP3    H219131   4.554   6.636   1.164
 6416TIP3   OH219132   5.717   7.147   2.051
 6416TIP3    H119133   5.619   7.145   2.060
 6416TIP3    H219134   5.725   7.105   1.964
 6417TIP3   OH219135   5.367   7.341   1.442
 6417TIP3    H119136   5.293   7.279   1.453
 6417TIP3    H219137   5.440   7.294   1.489
 6418TIP3   OH219138   4.080   7.567   0.913
 6418TIP3    H119139   4.140   7.643   0.918
 6418TIP3    H219140   4.121   7.518   0.839
 6419TIP3   OH219141   4.029   6.846   1.045
 6419TIP3    H119142   4.020   6.944   1.043
 6419TIP3    H219143   3.950   6.818   0.997
 6420TIP3   OH219144   5.335   8.298   1.391
 6420TIP3    H119145   5.293   8.345   1.316
 6420TIP3    H219146   5.429   8.316   1.370
 6421TIP3   OH219147   4.413   6.564   1.918
 6421TIP3    H119148   4.383   6.530   1.831
 6421TIP3    H219149   4.405   6.486   1.976
 6422TIP3   OH219150   3.949   7.781   1.296
 6422TIP3    H119151   3.881   7.813   1.356
 6422TIP3    H219152   3.922   7.824   1.212
 6423TIP3   OH219153   4.108   8.328   2.369
 6423TIP3    H119154   4.194   8.328   2.418
 6423TIP3    H219155   4.087   8.233   2.369
 6424TIP3   OH219156   4.583   8.286   2.421
 6424TIP3    H119157   4.679   8.298   2.421
 6424TIP3    H219158   4.567   8.228   2.344
 6425TIP3   OH219159   4.592   7.860   0.580
 6425TIP3    H119160   4.522   7.790   0.586
 6425TIP3    H219161   4.614   7.853   0.486
 6426TIP3   OH219162   5.225   8.197   2.153
 6426TIP3    H119163   5.228   8.129   2.223
 6426TIP3    H219164   5.303   8.252   2.175
 6427TIP3   OH219165   4.239   7.732   2.568
 6427TIP3    H119166   4.254   7.636   2.577
 6427TIP3    H219167   4.151   7.735   2.525
 6428TIP3   OH219168   4.208   7.387   0.753
 6428TIP3    H119169   4.268   7.360   0.823
 6428TIP3    H219170   4.272   7.396   0.679
 6429TIP3   OH219171   4.849   7.817   2.338
 6429TIP3    H119172   4.802   7.831   2.254
 6429TIP3    H219173   4.877   7.723   2.332
 6430TIP3   OH219174   4.726   7.571   0.575
 6430TIP3    H119175   4.723   7.591   0.670
 6430TIP3    H219176   4.725   7.473   0.574
 6431TIP3   OH219177   5.339   7.827   1.950
 6431TIP3    H119178   5.414   7.870   1.905
 6431TIP3    H219179   5.269   7.894   1.935
 6432TIP3   OH219180   4.359   7.467   2.551
 6432TIP3    H119181   4.432   7.406   2.534
 6432TIP3    H219182   4.383   7.500   2.640
 6433TIP3   OH219183   4.476   7.243   1.022
 6433TIP3    H119184   4.397   7.245   1.079
 6433TIP3    H219185   4.438   7.210   0.939
 6434TIP3   OH219186   4.694   7.352   2.213
 6434TIP3    H119187   4.615   7.410   2.214
 6434TIP3    H219188   4.743   7.386   2.134
 6435TIP3   OH219189   4.549   7.071   0.827
 6435TIP3    H119190   4.495   7.067   0.745
 6435TIP3    H219191   4.638   7.076   0.785
 6436TIP3   OH219192   5.214   7.754   2.347
 6436TIP3    H119193   5.287   7.720   2.294
 6436TIP3    H219194   5.207   7.685   2.416
 6437TIP3   OH219195   5.340   7.421   0.530
 6437TIP3    H119196   5.375   7.401   0.440
 6437TIP3    H219197   5.312   7.514   0.518
 6438TIP3   OH219198   4.816   7.140   2.338
 6438TIP3    H119199   4.816   7.060   2.282
 6438TIP3    H219200   4.772   7.206   2.281
 6439TIP3   OH219201   4.818   6.925   2.146
 6439TIP3    H119202   4.846   6.967   2.062
 6439TIP3    H219203   4.724   6.903   2.128
 6440TIP3   OH219204   4.845   7.461   2.018
 6440TIP3    H119205   4.929   7.472   1.972
 6440TIP3    H219206   4.789   7.527   1.974
 6441TIP3   OH219207   5.426   7.428   2.400
 6441TIP3    H119208   5.473   7.344   2.416
 6441TIP3    H219209   5.497   7.483   2.364
 6442TIP3   OH219210   5.467   7.683   2.139
 6442TIP3    H119211   5.410   7.736   2.079
 6442TIP3    H219212   5.555   7.702   2.099
 6443TIP3   OH219213   4.693   7.250   2.568
 6443TIP3    H119214   4.625   7.183   2.585
 6443TIP3    H219215   4.728   7.221   2.481
 6444TIP3   OH219216   4.951   6.688   2.213
 6444TIP3    H119217   4.901   6.771   2.191
 6444TIP3    H219218   4.881   6.620   2.203
 6445TIP3   OH219219   5.076   7.194   2.430
 6445TIP3    H119220   5.064   7.180   2.526
 6445TIP3    H219221   4.986   7.169   2.399
 6446TIP3   OH219222   5.315   7.143   2.285
 6446TIP3    H119223   5.240   7.143   2.347
 6446TIP3    H219224   5.389   7.112   2.341
 6447TIP3   OH219225   5.545   7.083   2.435
 6447TIP3    H119226   5.557   6.988   2.453
 6447TIP3    H219227   5.539   7.122   2.525
 6448TIP3   OH219228   4.533   7.030   2.622
 6448TIP3    H119229   4.540   6.938   2.591
 6448TIP3    H219230   4.570   7.020   2.713
 6449TIP3   OH219231   5.046   6.700   2.471
 6449TIP3    H119232   5.112   6.628   2.466
 6449TIP3    H219233   5.006   6.693   2.382
 6450TIP3   OH219234   5.112   6.915   2.629
 6450TIP3    H119235   5.089   6.843   2.566
 6450TIP3    H219236   5.033   6.973   2.624
 6451TIP3   OH219237   4.327   8.142   0.727
 6451TIP3    H119238   4.423   8.142   0.708
 6451TIP3    H219239   4.294   8.179   0.643
 6452TIP3   OH219240   3.811   7.523   0.949
 6452TIP3    H119241   3.905   7.545   0.933
 6452TIP3    H219242   3.804   7.435   0.905
 6453TIP3   OH219243   3.726   8.136   1.361
 6453TIP3    H119244   3.659   8.075   1.323
 6453TIP3    H219245   3.770   8.078   1.425
 6454TIP3   OH219246   3.863   7.986   1.546
 6454TIP3    H119247   3.848   7.914   1.610
 6454TIP3    H219248   3.914   8.048   1.601
 6455TIP3   OH219249   5.587   8.390   1.348
 6455TIP3    H119250   5.621   8.429   1.430
 6455TIP3    H219251   5.651   8.422   1.282
 6456TIP3   OH219252   5.615   8.411   1.634
 6456TIP3    H119253   5.574   8.323   1.625
 6456TIP3    H219254   5.697   8.387   1.680
 6457TIP3   OH219255   5.668   8.086   2.198
 6457TIP3    H119256   5.596   8.095   2.263
 6457TIP3    H219257   5.708   8.175   2.201
 6458TIP3   OH219258   5.479   7.599   0.830
 6458TIP3    H119259   5.552   7.658   0.801
 6458TIP3    H219260   5.519   7.558   0.909
 6459TIP3   OH219261   5.608   7.465   1.027
 6459TIP3    H119262   5.544   7.422   1.088
 6459TIP3    H219263   5.676   7.501   1.088
 6460TIP3   OH219264   5.664   7.857   1.458
 6460TIP3    H119265   5.716   7.792   1.406
 6460TIP3    H219266   5.662   7.934   1.398
 6461TIP3   OH219267   5.494   8.156   1.654
 6461TIP3    H119268   5.422   8.200   1.703
 6461TIP3    H219269   5.446   8.110   1.582
 6462TIP3   OH219270   5.549   7.369   0.693
 6462TIP3    H119271   5.470   7.368   0.633
 6462TIP3    H219272   5.526   7.449   0.745
 6463TIP3   OH219273   5.414   7.054   0.620
 6463TIP3    H119274   5.363   7.073   0.540
 6463TIP3    H219275   5.391   6.960   0.633
 6464TIP3   OH219276   5.421   7.322   1.172
 6464TIP3    H119277   5.432   7.226   1.165
 6464TIP3    H219278   5.409   7.335   1.269
 6465TIP3   OH219279   4.049   7.393   1.920
 6465TIP3    H119280   4.046   7.364   1.827
 6465TIP3    H219281   4.147   7.395   1.935
 6466TIP3   OH219282   5.711   7.746   2.029
 6466TIP3    H119283   5.784   7.681   2.019
 6466TIP3    H219284   5.735   7.815   1.965
 6467TIP3   OH219285   5.898   7.552   2.044
 6467TIP3    H119286   5.822   7.502   2.082
 6467TIP3    H219287   5.970   7.487   2.059
 6468TIP3   OH219288   5.345   6.795   0.647
 6468TIP3    H119289   5.431   6.750   0.663
 6468TIP3    H219290   5.282   6.722   0.643
 6469TIP3   OH219291   5.419   7.039   1.065
 6469TIP3    H119292   5.460   6.950   1.080
 6469TIP3    H219293   5.477   7.071   0.993
 6470TIP3   OH219294   5.581   7.211   1.562
 6470TIP3    H119295   5.667   7.236   1.521
 6470TIP3    H219296   5.595   7.249   1.651
 6471TIP3   OH219297   5.651   7.356   1.794
 6471TIP3    H119298   5.572   7.390   1.841
 6471TIP3    H219299   5.682   7.436   1.748
 6472TIP3   OH219300   4.267   7.080   2.588
 6472TIP3    H119301   4.364   7.076   2.595
 6472TIP3    H219302   4.242   6.996   2.632
 6473TIP3   OH219303   6.112   6.947   2.344
 6473TIP3    H119304   6.161   6.880   2.293
 6473TIP3    H219305   6.073   7.002   2.272
 6474TIP3   OH219306   5.526   6.789   1.107
 6474TIP3    H119307   5.576   6.772   1.189
 6474TIP3    H219308   5.467   6.711   1.104
 6475TIP3   OH219309   4.230   6.772   1.919
 6475TIP3    H119310   4.294   6.700   1.932
 6475TIP3    H219311   4.289   6.849   1.918
 6476TIP3   OH219312   4.030   7.045   1.998
 6476TIP3    H119313   4.079   7.045   1.913
 6476TIP3    H219314   4.053   7.132   2.033
 6477TIP3   OH219315   5.970   7.084   2.158
 6477TIP3    H119316   5.887   7.128   2.184
 6477TIP3    H219317   5.935   7.015   2.098
 6478TIP3   OH219318   5.615   6.719   0.740
 6478TIP3    H119319   5.659   6.651   0.685
 6478TIP3    H219320   5.676   6.794   0.729
 6479TIP3   OH219321   4.013   6.555   1.503
 6479TIP3    H119322   3.918   6.548   1.524
 6479TIP3    H219323   4.011   6.611   1.422
 6480TIP3   OH219324   5.180   8.253   1.009
 6480TIP3    H119325   5.226   8.239   0.923
 6480TIP3    H219326   5.232   8.326   1.046
 6481TIP3   OH219327   4.231   6.625   2.305
 6481TIP3    H119328   4.187   6.621   2.392
 6481TIP3    H219329   4.165   6.674   2.252
 6482TIP3   OH219330   4.274   8.057   2.392
 6482TIP3    H119331   4.182   8.032   2.372
 6482TIP3    H219332   4.279   8.039   2.486
 6483TIP3   OH219333   4.453   8.092   1.937
 6483TIP3    H119334   4.404   8.167   1.898
 6483TIP3    H219335   4.539   8.107   1.891
 6484TIP3   OH219336   4.896   8.336   2.075
 6484TIP3    H119337   4.937   8.340   2.164
 6484TIP3    H219338   4.961   8.387   2.022
 6485TIP3   OH219339   5.074   8.489   1.932
 6485TIP3    H119340   5.145   8.438   1.890
 6485TIP3    H219341   5.126   8.544   1.995
 6486TIP3   OH219342   5.869   6.848   2.033
 6486TIP3    H119343   5.778   6.841   2.000
 6486TIP3    H219344   5.900   6.755   2.022
 6487TIP3   OH219345   4.129   8.348   1.961
 6487TIP3    H119346   4.039   8.381   1.936
 6487TIP3    H219347   4.136   8.385   2.049
 6488TIP3   OH219348   4.366   8.327   1.819
 6488TIP3    H119349   4.278   8.340   1.863
 6488TIP3    H219350   4.346   8.359   1.729
 6489TIP3   OH219351   4.790   8.353   1.617
 6489TIP3    H119352   4.723   8.370   1.548
 6489TIP3    H219353   4.801   8.443   1.655
 6490TIP3   OH219354   5.059   8.294   1.670
 6490TIP3    H119355   4.965   8.310   1.649
 6490TIP3    H219356   5.103   8.366   1.621
 6491TIP3   OH219357   5.266   8.488   1.581
 6491TIP3    H119358   5.252   8.571   1.531
 6491TIP3    H219359   5.293   8.426   1.509
 6492TIP3   OH219360   4.039   8.141   1.705
 6492TIP3    H119361   4.066   8.115   1.795
 6492TIP3    H219362   4.111   8.099   1.654
 6493TIP3   OH219363   4.233   8.013   1.563
 6493TIP3    H119364   4.249   7.930   1.613
 6493TIP3    H219365   4.323   8.051   1.558
 6494TIP3   OH219366   4.498   8.108   1.567
 6494TIP3    H119367   4.531   8.018   1.552
 6494TIP3    H219368   4.544   8.129   1.650
 6495TIP3   OH219369   5.074   6.763   1.647
 6495TIP3    H119370   5.031   6.693   1.699
 6495TIP3    H219371   5.149   6.716   1.606
 6496TIP3   OH219372   5.597   6.646   1.559
 6496TIP3    H119373   5.634   6.696   1.482
 6496TIP3    H219374   5.502   6.665   1.551
 6497TIP3   OH219375   5.693   6.743   1.322
 6497TIP3    H119376   5.766   6.692   1.281
 6497TIP3    H219377   5.727   6.835   1.307
 6498TIP3   OH219378   4.324   6.476   1.667
 6498TIP3    H119379   4.232   6.443   1.664
 6498TIP3    H219380   4.373   6.391   1.663
 6499TIP3   OH219381   4.120   6.342   1.322
 6499TIP3    H119382   4.142   6.396   1.244
 6499TIP3    H219383   4.083   6.408   1.383
 6500TIP3   OH219384   4.765   6.509   1.548
 6500TIP3    H119385   4.824   6.560   1.489
 6500TIP3    H219386   4.792   6.543   1.634
 6501TIP3   OH219387   5.313   6.651   1.534
 6501TIP3    H119388   5.317   6.613   1.446
 6501TIP3    H219389   5.300   6.571   1.590
 6502TIP3   OH219390   5.345   6.574   1.096
 6502TIP3    H119391   5.256   6.614   1.104
 6502TIP3    H219392   5.331   6.489   1.143
 6503TIP3   OH219393   3.828   7.915   1.097
 6503TIP3    H119394   3.742   7.882   1.063
 6503TIP3    H219395   3.818   8.009   1.073
 6504TIP3   OH219396   4.224   6.496   1.079
 6504TIP3    H119397   4.269   6.432   1.020
 6504TIP3    H219398   4.301   6.545   1.116
 6505TIP3   OH219399   4.733   6.693   1.191
 6505TIP3    H119400   4.776   6.612   1.222
 6505TIP3    H219401   4.783   6.758   1.244
 6506TIP3   OH219402   4.592   8.117   0.674
 6506TIP3    H119403   4.684   8.133   0.642
 6506TIP3    H219404   4.578   8.033   0.625
 6507TIP3   OH219405   5.319   8.216   0.771
 6507TIP3    H119406   5.310   8.120   0.755
 6507TIP3    H219407   5.274   8.254   0.691
 6508TIP3   OH219408   4.533   6.752   2.557
 6508TIP3    H119409   4.497   6.683   2.616
 6508TIP3    H219410   4.626   6.753   2.586
 6509TIP3   OH219411   4.781   6.750   2.678
 6509TIP3    H119412   4.867   6.723   2.642
 6509TIP3    H219413   4.767   6.681   2.747
 6510TIP3   OH219414   3.903   7.930   0.736
 6510TIP3    H119415   3.908   7.965   0.826
 6510TIP3    H219416   3.993   7.893   0.722
 6511TIP3   OH219417   5.606   6.812   2.467
 6511TIP3    H119418   5.624   6.782   2.558
 6511TIP3    H219419   5.694   6.806   2.426
 6512TIP3   OH219420   5.544   8.364   1.959
 6512TIP3    H119421   5.467   8.334   1.908
 6512TIP3    H219422   5.526   8.460   1.962
 6513TIP3   OH219423   6.811   7.734   1.103
 6513TIP3    H119424   6.843   7.711   1.192
 6513TIP3    H219425   6.768   7.651   1.076
 6514TIP3   OH219426   6.109   7.633   1.474
 6514TIP3    H119427   6.143   7.565   1.535
 6514TIP3    H219428   6.188   7.686   1.457
 6515TIP3   OH219429   6.083   8.039   1.205
 6515TIP3    H119430   6.074   7.942   1.203
 6515TIP3    H219431   6.178   8.049   1.184
 6516TIP3   OH219432   5.787   7.244   0.980
 6516TIP3    H119433   5.739   7.327   0.995
 6516TIP3    H219434   5.717   7.190   0.939
 6517TIP3   OH219435   5.846   7.532   1.152
 6517TIP3    H119436   5.896   7.455   1.187
 6517TIP3    H219437   5.909   7.570   1.090
 6518TIP3   OH219438   6.609   7.960   1.156
 6518TIP3    H119439   6.647   7.885   1.108
 6518TIP3    H219440   6.692   8.005   1.181
 6519TIP3   OH219441   7.624   7.278   1.156
 6519TIP3    H119442   7.649   7.359   1.205
 6519TIP3    H219443   7.663   7.294   1.069
 6520TIP3   OH219444   7.027   7.469   1.188
 6520TIP3    H119445   7.067   7.381   1.202
 6520TIP3    H219446   6.995   7.462   1.096
 6521TIP3   OH219447   6.361   7.123   1.153
 6521TIP3    H119448   6.342   7.195   1.089
 6521TIP3    H219449   6.313   7.050   1.109
 6522TIP3   OH219450   7.002   7.193   0.846
 6522TIP3    H119451   7.064   7.179   0.919
 6522TIP3    H219452   7.068   7.192   0.773
 6523TIP3   OH219453   5.992   7.325   1.259
 6523TIP3    H119454   6.076   7.306   1.306
 6523TIP3    H219455   6.005   7.270   1.179
 6524TIP3   OH219456   6.432   7.521   1.055
 6524TIP3    H119457   6.526   7.497   1.068
 6524TIP3    H219458   6.394   7.438   1.019
 6525TIP3   OH219459   7.690   7.487   1.321
 6525TIP3    H119460   7.604   7.534   1.311
 6525TIP3    H219461   7.720   7.523   1.406
 6526TIP3   OH219462   6.354   7.109   1.587
 6526TIP3    H119463   6.298   7.144   1.516
 6526TIP3    H219464   6.299   7.132   1.665
 6527TIP3   OH219465   6.463   7.883   1.381
 6527TIP3    H119466   6.400   7.950   1.416
 6527TIP3    H219467   6.503   7.931   1.305
 6528TIP3   OH219468   7.276   7.225   0.963
 6528TIP3    H119469   7.268   7.181   1.049
 6528TIP3    H219470   7.309   7.314   0.988
 6529TIP3   OH219471   6.228   7.222   1.370
 6529TIP3    H119472   6.289   7.295   1.392
 6529TIP3    H219473   6.275   7.182   1.294
 6530TIP3   OH219474   6.293   8.078   1.483
 6530TIP3    H119475   6.268   8.159   1.435
 6530TIP3    H219476   6.210   8.063   1.534
 6531TIP3   OH219477   5.679   7.763   0.726
 6531TIP3    H119478   5.614   7.802   0.666
 6531TIP3    H219479   5.702   7.841   0.782
 6532TIP3   OH219480   7.138   8.295   0.962
 6532TIP3    H119481   7.048   8.275   0.997
 6532TIP3    H219482   7.115   8.331   0.875
 6533TIP3   OH219483   7.413   7.182   1.319
 6533TIP3    H119484   7.326   7.211   1.288
 6533TIP3    H219485   7.472   7.214   1.248
 6534TIP3   OH219486   6.712   6.824   1.299
 6534TIP3    H119487   6.699   6.729   1.316
 6534TIP3    H219488   6.635   6.862   1.346
 6535TIP3   OH219489   7.348   8.194   1.302
 6535TIP3    H119490   7.346   8.122   1.236
 6535TIP3    H219491   7.332   8.273   1.246
 6536TIP3   OH219492   7.535   7.824   1.149
 6536TIP3    H119493   7.460   7.888   1.150
 6536TIP3    H219494   7.569   7.838   1.060
 6537TIP3   OH219495   7.223   7.710   1.441
 6537TIP3    H119496   7.221   7.793   1.492
 6537TIP3    H219497   7.136   7.715   1.396
 6538TIP3   OH219498   6.219   7.669   0.951
 6538TIP3    H119499   6.176   7.611   0.884
 6538TIP3    H219500   6.298   7.617   0.974
 6539TIP3   OH219501   6.342   8.069   1.099
 6539TIP3    H119502   6.317   8.051   1.006
 6539TIP3    H219503   6.433   8.034   1.105
 6540TIP3   OH219504   6.356   7.641   1.300
 6540TIP3    H119505   6.387   7.618   1.210
 6540TIP3    H219506   6.399   7.727   1.316
 6541TIP3   OH219507   6.891   8.270   1.070
 6541TIP3    H119508   6.868   8.354   1.115
 6541TIP3    H219509   6.869   8.202   1.137
 6542TIP3   OH219510   6.497   8.194   1.632
 6542TIP3    H119511   6.433   8.259   1.668
 6542TIP3    H219512   6.437   8.142   1.575
 6543TIP3   OH219513   6.251   7.743   1.725
 6543TIP3    H119514   6.252   7.832   1.765
 6543TIP3    H219515   6.154   7.726   1.730
 6544TIP3   OH219516   6.291   8.361   1.709
 6544TIP3    H119517   6.258   8.366   1.617
 6544TIP3    H219518   6.209   8.340   1.759
 6545TIP3   OH219519   6.081   7.508   0.773
 6545TIP3    H119520   6.030   7.553   0.703
 6545TIP3    H219521   6.030   7.428   0.786
 6546TIP3   OH219522   5.867   7.896   1.657
 6546TIP3    H119523   5.802   7.875   1.586
 6546TIP3    H219524   5.905   7.808   1.677
 6547TIP3   OH219525   5.725   8.084   1.297
 6547TIP3    H119526   5.819   8.081   1.276
 6547TIP3    H219527   5.717   8.168   1.344
 6548TIP3   OH219528   7.580   8.540   1.342
 6548TIP3    H119529   7.584   8.444   1.357
 6548TIP3    H219530   7.497   8.563   1.389
 6549TIP3   OH219531   6.697   8.322   1.485
 6549TIP3    H119532   6.693   8.417   1.510
 6549TIP3    H219533   6.622   8.285   1.535
 6550TIP3   OH219534   5.881   8.290   0.813
 6550TIP3    H119535   5.952   8.296   0.881
 6550TIP3    H219536   5.830   8.216   0.850
 6551TIP3   OH219537   7.474   7.668   1.623
 6551TIP3    H119538   7.395   7.680   1.568
 6551TIP3    H219539   7.492   7.572   1.611
 6552TIP3   OH219540   6.069   8.080   1.641
 6552TIP3    H119541   6.118   8.057   1.722
 6552TIP3    H219542   5.994   8.017   1.645
 6553TIP3   OH219543   6.474   6.900   1.431
 6553TIP3    H119544   6.385   6.870   1.402
 6553TIP3    H219545   6.449   6.984   1.473
 6554TIP3   OH219546   7.009   7.017   1.623
 6554TIP3    H119547   7.079   6.988   1.686
 6554TIP3    H219548   6.926   6.996   1.670
 6555TIP3   OH219549   7.243   7.445   1.540
 6555TIP3    H119550   7.195   7.443   1.626
 6555TIP3    H219551   7.220   7.533   1.505
 6556TIP3   OH219552   6.405   7.418   1.447
 6556TIP3    H119553   6.354   7.439   1.528
 6556TIP3    H219554   6.390   7.499   1.393
 6557TIP3   OH219555   6.291   7.299   0.959
 6557TIP3    H119556   6.197   7.278   0.978
 6557TIP3    H219557   6.298   7.263   0.869
 6558TIP3   OH219558   6.955   7.669   1.777
 6558TIP3    H119559   6.933   7.594   1.837
 6558TIP3    H219560   7.050   7.680   1.796
 6559TIP3   OH219561   6.909   7.439   0.940
 6559TIP3    H119562   6.902   7.492   0.858
 6559TIP3    H219563   6.939   7.353   0.903
 6560TIP3   OH219564   6.226   7.448   1.655
 6560TIP3    H119565   6.249   7.515   1.722
 6560TIP3    H219566   6.213   7.368   1.709
 6561TIP3   OH219567   5.815   6.969   1.241
 6561TIP3    H119568   5.894   7.000   1.290
 6561TIP3    H219569   5.851   6.938   1.156
 6562TIP3   OH219570   5.789   6.953   0.759
 6562TIP3    H119571   5.834   6.988   0.679
 6562TIP3    H219572   5.727   7.026   0.777
 6563TIP3   OH219573   6.945   7.665   1.353
 6563TIP3    H119574   6.980   7.594   1.294
 6563TIP3    H219575   6.915   7.611   1.429
 6564TIP3   OH219576   6.621   7.115   1.030
 6564TIP3    H119577   6.538   7.119   1.083
 6564TIP3    H219578   6.689   7.122   1.099
 6565TIP3   OH219579   6.049   7.182   1.032
 6565TIP3    H119580   5.955   7.189   1.003
 6565TIP3    H219581   6.073   7.090   1.007
 6566TIP3   OH219582   6.316   7.183   0.707
 6566TIP3    H119583   6.414   7.191   0.719
 6566TIP3    H219584   6.301   7.237   0.628
 6567TIP3   OH219585   7.108   7.203   1.227
 6567TIP3    H119586   7.073   7.216   1.318
 6567TIP3    H219587   7.042   7.141   1.191
 6568TIP3   OH219588   7.273   8.887   1.448
 6568TIP3    H119589   7.277   8.908   1.352
 6568TIP3    H219590   7.347   8.941   1.481
 6569TIP3   OH219591   6.227   7.992   1.853
 6569TIP3    H119592   6.303   8.043   1.882
 6569TIP3    H219593   6.168   7.995   1.931
 6570TIP3   OH219594   6.696   7.456   1.122
 6570TIP3    H119595   6.772   7.434   1.064
 6570TIP3    H219596   6.716   7.406   1.203
 6571TIP3   OH219597   6.225   6.942   1.001
 6571TIP3    H119598   6.187   6.863   1.044
 6571TIP3    H219599   6.274   6.903   0.927
 6572TIP3   OH219600   6.676   7.346   1.418
 6572TIP3    H119601   6.587   7.386   1.424
 6572TIP3    H219602   6.733   7.412   1.462
 6573TIP3   OH219603   7.313   7.987   1.113
 6573TIP3    H119604   7.283   8.047   1.043
 6573TIP3    H219605   7.232   7.932   1.123
 6574TIP3   OH219606   6.810   8.058   1.503
 6574TIP3    H119607   6.834   8.042   1.594
 6574TIP3    H219608   6.775   8.149   1.505
 6575TIP3   OH219609   6.100   7.758   1.183
 6575TIP3    H119610   6.137   7.737   1.094
 6575TIP3    H219611   6.151   7.698   1.239
 6576TIP3   OH219612   5.985   7.681   1.792
 6576TIP3    H119613   6.002   7.668   1.888
 6576TIP3    H219614   5.914   7.617   1.776
 6577TIP3   OH219615   6.711   7.798   1.817
 6577TIP3    H119616   6.651   7.743   1.764
 6577TIP3    H219617   6.798   7.764   1.786
 6578TIP3   OH219618   6.974   8.311   1.405
 6578TIP3    H119619   6.877   8.316   1.412
 6578TIP3    H219620   7.000   8.370   1.479
 6579TIP3   OH219621   7.598   8.248   1.393
 6579TIP3    H119622   7.500   8.246   1.388
 6579TIP3    H219623   7.619   8.220   1.301
 6580TIP3   OH219624   7.083   7.830   1.085
 6580TIP3    H119625   6.986   7.826   1.078
 6580TIP3    H219626   7.107   7.746   1.046
 6581TIP3   OH219627   6.222   8.080   0.826
 6581TIP3    H119628   6.233   8.171   0.791
 6581TIP3    H219629   6.148   8.048   0.770
 6582TIP3   OH219630   5.758   7.366   0.515
 6582TIP3    H119631   5.796   7.452   0.541
 6582TIP3    H219632   5.678   7.364   0.571
 6583TIP3   OH219633   6.367   7.841   0.784
 6583TIP3    H119634   6.324   7.929   0.784
 6583TIP3    H219635   6.307   7.790   0.841
 6584TIP3   OH219636   6.475   8.411   1.274
 6584TIP3    H119637   6.510   8.486   1.221
 6584TIP3    H219638   6.556   8.379   1.317
 6585TIP3   OH219639   6.862   8.042   1.235
 6585TIP3    H119640   6.851   8.042   1.333
 6585TIP3    H219641   6.946   7.995   1.225
 6586TIP3   OH219642   7.109   8.581   1.280
 6586TIP3    H119643   7.028   8.528   1.265
 6586TIP3    H219644   7.100   8.648   1.209
 6587TIP3   OH219645   6.185   7.195   1.797
 6587TIP3    H119646   6.088   7.212   1.804
 6587TIP3    H219647   6.193   7.117   1.853
 6588TIP3   OH219648   5.909   8.276   1.436
 6588TIP3    H119649   5.966   8.202   1.464
 6588TIP3    H219650   5.948   8.350   1.485
 6589TIP3   OH219651   5.876   7.595   0.603
 6589TIP3    H119652   5.816   7.652   0.655
 6589TIP3    H219653   5.918   7.661   0.542
 6590TIP3   OH219654   7.030   7.257   1.487
 6590TIP3    H119655   7.114   7.294   1.520
 6590TIP3    H219656   7.020   7.175   1.540
 6591TIP3   OH219657   6.582   7.195   0.766
 6591TIP3    H119658   6.659   7.240   0.729
 6591TIP3    H219659   6.604   7.187   0.861
 6592TIP3   OH219660   6.872   7.502   1.559
 6592TIP3    H119661   6.896   7.554   1.638
 6592TIP3    H219662   6.927   7.422   1.567
 6593TIP3   OH219663   6.765   6.929   0.857
 6593TIP3    H119664   6.730   6.992   0.923
 6593TIP3    H219665   6.848   6.974   0.833
 6594TIP3   OH219666   6.249   6.910   0.661
 6594TIP3    H119667   6.246   7.003   0.687
 6594TIP3    H219668   6.339   6.886   0.691
 6595TIP3   OH219669   7.511   7.403   1.542
 6595TIP3    H119670   7.412   7.401   1.546
 6595TIP3    H219671   7.525   7.361   1.456
 6596TIP3   OH219672   5.820   7.100   0.523
 6596TIP3    H119673   5.799   7.196   0.518
 6596TIP3    H219674   5.755   7.063   0.462
 6597TIP3   OH219675   6.208   6.822   1.404
 6597TIP3    H119676   6.178   6.790   1.316
 6597TIP3    H219677   6.197   6.742   1.460
 6598TIP3   OH219678   5.722   8.041   0.829
 6598TIP3    H119679   5.653   8.108   0.844
 6598TIP3    H219680   5.741   8.049   0.733
 6599TIP3   OH219681   5.904   8.583   1.857
 6599TIP3    H119682   5.990   8.584   1.906
 6599TIP3    H219683   5.883   8.489   1.856
 6600TIP3   OH219684   6.379   8.544   1.906
 6600TIP3    H119685   6.475   8.536   1.914
 6600TIP3    H219686   6.361   8.486   1.829
 6601TIP3   OH219687   7.021   8.454   1.639
 6601TIP3    H119688   7.017   8.383   1.706
 6601TIP3    H219689   7.101   8.505   1.665
 6602TIP3   OH219690   6.037   7.988   2.056
 6602TIP3    H119691   6.053   7.892   2.060
 6602TIP3    H219692   5.950   7.991   2.011
 6603TIP3   OH219693   6.635   8.073   1.850
 6603TIP3    H119694   6.594   8.095   1.764
 6603TIP3    H219695   6.666   7.982   1.834
 6604TIP3   OH219696   7.134   8.082   1.435
 6604TIP3    H119697   7.210   8.127   1.393
 6604TIP3    H219698   7.064   8.150   1.422
 6605TIP3   OH219699   6.152   7.726   2.038
 6605TIP3    H119700   6.218   7.659   2.021
 6605TIP3    H219701   6.175   7.753   2.129
 6606TIP3   OH219702   6.492   7.607   1.702
 6606TIP3    H119703   6.411   7.663   1.701
 6606TIP3    H219704   6.540   7.641   1.623
 6607TIP3   OH219705   7.008   8.013   1.838
 6607TIP3    H119706   7.084   7.987   1.783
 6607TIP3    H219707   7.006   7.941   1.904
 6608TIP3   OH219708   6.608   7.392   1.825
 6608TIP3    H119709   6.613   7.316   1.764
 6608TIP3    H219710   6.569   7.461   1.768
 6609TIP3   OH219711   6.614   7.181   1.635
 6609TIP3    H119712   6.643   7.224   1.552
 6609TIP3    H219713   6.520   7.159   1.614
 6610TIP3   OH219714   6.641   7.720   1.509
 6610TIP3    H119715   6.724   7.728   1.460
 6610TIP3    H219716   6.584   7.785   1.463
 6611TIP3   OH219717   7.224   7.685   1.889
 6611TIP3    H119718   7.272   7.601   1.895
 6611TIP3    H219719   7.292   7.743   1.851
 6612TIP3   OH219720   7.263   7.938   1.623
 6612TIP3    H119721   7.206   7.992   1.562
 6612TIP3    H219722   7.351   7.958   1.584
 6613TIP3   OH219723   6.498   7.507   2.059
 6613TIP3    H119724   6.418   7.454   2.076
 6613TIP3    H219725   6.523   7.478   1.969
 6614TIP3   OH219726   6.748   6.947   1.703
 6614TIP3    H119727   6.699   7.029   1.677
 6614TIP3    H219728   6.680   6.878   1.686
 6615TIP3   OH219729   6.871   7.450   1.917
 6615TIP3    H119730   6.863   7.436   2.013
 6615TIP3    H219731   6.781   7.425   1.888
 6616TIP3   OH219732   7.112   7.403   1.772
 6616TIP3    H119733   7.037   7.400   1.834
 6616TIP3    H219734   7.186   7.371   1.828
 6617TIP3   OH219735   7.336   7.339   1.924
 6617TIP3    H119736   7.352   7.244   1.940
 6617TIP3    H219737   7.336   7.377   2.014
 6618TIP3   OH219738   6.328   7.288   2.108
 6618TIP3    H119739   6.379   7.222   2.059
 6618TIP3    H219740   6.360   7.275   2.199
 6619TIP3   OH219741   6.831   6.944   1.963
 6619TIP3    H119742   6.905   6.881   1.954
 6619TIP3    H219743   6.797   6.944   1.871
 6620TIP3   OH219744   6.903   7.166   2.116
 6620TIP3    H119745   6.877   7.094   2.054
 6620TIP3    H219746   6.827   7.228   2.109
 6621TIP3   OH219747   5.510   8.398   0.850
 6621TIP3    H119748   5.450   8.331   0.811
 6621TIP3    H219749   5.559   8.345   0.916
 6622TIP3   OH219750   5.648   8.252   1.035
 6622TIP3    H119751   5.649   8.173   1.090
 6622TIP3    H219752   5.707   8.311   1.087
 6623TIP3   OH219753   7.423   8.665   1.120
 6623TIP3    H119754   7.381   8.577   1.111
 6623TIP3    H219755   7.502   8.640   1.170
 6624TIP3   OH219756   7.460   8.340   1.689
 6624TIP3    H119757   7.387   8.350   1.754
 6624TIP3    H219758   7.502   8.428   1.693
 6625TIP3   OH219759   7.293   8.416   1.149
 6625TIP3    H119760   7.224   8.463   1.199
 6625TIP3    H219761   7.241   8.375   1.076
 6626TIP3   OH219762   5.844   7.647   1.407
 6626TIP3    H119763   5.842   7.620   1.313
 6626TIP3    H219764   5.942   7.652   1.422
 6627TIP3   OH219765   7.507   8.003   1.515
 6627TIP3    H119766   7.579   7.936   1.507
 6627TIP3    H219767   7.537   8.073   1.455
 6628TIP3   OH219768   7.689   7.806   1.535
 6628TIP3    H119769   7.616   7.753   1.575
 6628TIP3    H219770   7.764   7.744   1.546
 6629TIP3   OH219771   7.387   7.470   1.041
 6629TIP3    H119772   7.464   7.510   0.997
 6629TIP3    H219773   7.392   7.512   1.129
 6630TIP3   OH219774   7.441   7.607   1.283
 6630TIP3    H119775   7.363   7.641   1.331
 6630TIP3    H219776   7.474   7.690   1.241
 6631TIP3   OH219777   6.059   7.335   2.078
 6631TIP3    H119778   6.157   7.331   2.082
 6631TIP3    H219779   6.035   7.250   2.120
 6632TIP3   OH219780   7.895   7.202   1.837
 6632TIP3    H119781   7.956   7.137   1.795
 6632TIP3    H219782   7.868   7.257   1.760
 6633TIP3   OH219783   6.024   7.031   1.415
 6633TIP3    H119784   6.087   6.956   1.420
 6633TIP3    H219785   6.086   7.105   1.404
 6634TIP3   OH219786   5.827   7.304   1.485
 6634TIP3    H119787   5.875   7.297   1.400
 6634TIP3    H219788   5.852   7.393   1.513
 6635TIP3   OH219789   7.767   7.342   1.641
 6635TIP3    H119790   7.679   7.382   1.659
 6635TIP3    H219791   7.739   7.268   1.583
 6636TIP3   OH219792   5.810   6.814   0.991
 6636TIP3    H119793   5.715   6.805   1.008
 6636TIP3    H219794   5.810   6.868   0.908
 6637TIP3   OH219795   6.033   6.895   1.803
 6637TIP3    H119796   5.977   6.884   1.882
 6637TIP3    H219797   5.967   6.929   1.739
 6638TIP3   OH219798   6.073   8.302   1.886
 6638TIP3    H119799   5.984   8.281   1.852
 6638TIP3    H219800   6.056   8.307   1.981
 6639TIP3   OH219801   6.250   8.351   1.426
 6639TIP3    H119802   6.202   8.426   1.385
 6639TIP3    H219803   6.335   8.363   1.378
 6640TIP3   OH219804   6.692   8.590   1.558
 6640TIP3    H119805   6.734   8.597   1.646
 6640TIP3    H219806   6.756   8.642   1.504
 6641TIP3   OH219807   6.874   8.742   1.421
 6641TIP3    H119808   6.947   8.692   1.382
 6641TIP3    H219809   6.923   8.801   1.482
 6642TIP3   OH219810   7.666   7.104   1.521
 6642TIP3    H119811   7.576   7.094   1.487
 6642TIP3    H219812   7.700   7.012   1.510
 6643TIP3   OH219813   5.924   8.599   1.453
 6643TIP3    H119814   5.836   8.633   1.423
 6643TIP3    H219815   5.934   8.649   1.534
 6644TIP3   OH219816   6.161   8.580   1.306
 6644TIP3    H119817   6.074   8.596   1.347
 6644TIP3    H219818   6.146   8.614   1.215
 6645TIP3   OH219819   6.593   8.608   1.110
 6645TIP3    H119820   6.518   8.617   1.047
 6645TIP3    H219821   6.600   8.700   1.143
 6646TIP3   OH219822   6.858   8.545   1.154
 6646TIP3    H119823   6.762   8.558   1.137
 6646TIP3    H219824   6.894   8.626   1.114
 6647TIP3   OH219825   7.060   8.746   1.060
 6647TIP3    H119826   7.025   8.828   1.023
 6647TIP3    H219827   7.094   8.701   0.981
 6648TIP3   OH219828   5.831   8.395   1.193
 6648TIP3    H119829   5.862   8.371   1.283
 6648TIP3    H219830   5.904   8.356   1.140
 6649TIP3   OH219831   6.027   8.273   1.050
 6649TIP3    H119832   6.047   8.187   1.091
 6649TIP3    H219833   6.117   8.312   1.043
 6650TIP3   OH219834   6.288   8.365   1.054
 6650TIP3    H119835   6.325   8.279   1.028
 6650TIP3    H219836   6.339   8.383   1.135
 6651TIP3   OH219837   6.876   7.017   1.142
 6651TIP3    H119838   6.831   6.945   1.189
 6651TIP3    H219839   6.948   6.971   1.096
 6652TIP3   OH219840   7.388   6.904   1.051
 6652TIP3    H119841   7.427   6.946   0.972
 6652TIP3    H219842   7.293   6.923   1.041
 6653TIP3   OH219843   7.513   6.969   0.813
 6653TIP3    H119844   7.603   6.936   0.822
 6653TIP3    H219845   7.532   7.064   0.803
 6654TIP3   OH219846   6.120   6.730   1.158
 6654TIP3    H119847   6.027   6.699   1.155
 6654TIP3    H219848   6.168   6.645   1.152
 6655TIP3   OH219849   5.926   6.598   0.803
 6655TIP3    H119850   5.949   6.656   0.727
 6655TIP3    H219851   5.885   6.662   0.864
 6656TIP3   OH219852   6.560   6.757   1.043
 6656TIP3    H119853   6.612   6.808   0.981
 6656TIP3    H219854   6.585   6.796   1.128
 6657TIP3   OH219855   7.106   6.906   1.016
 6657TIP3    H119856   7.124   6.862   0.931
 6657TIP3    H219857   7.095   6.828   1.075
 6658TIP3   OH219858   6.022   6.754   0.593
 6658TIP3    H119859   6.063   6.698   0.523
 6658TIP3    H219860   6.097   6.813   0.614
 6659TIP3   OH219861   6.509   6.921   0.735
 6659TIP3    H119862   6.592   6.886   0.770
 6659TIP3    H219863   6.534   7.015   0.724
 6660TIP3   OH219864   7.403   7.070   1.953
 6660TIP3    H119865   7.423   7.038   2.044
 6660TIP3    H219866   7.491   7.065   1.911
 6661TIP3   OH219867   7.336   8.619   1.450
 6661TIP3    H119868   7.260   8.590   1.396
 6661TIP3    H219869   7.322   8.716   1.449
 6662TIP3   OH219870   8.149   7.368   1.078
 6662TIP3    H119871   8.082   7.389   1.013
 6662TIP3    H219872   8.101   7.387   1.161
 6663TIP3   OH219873   8.054   8.000   1.219
 6663TIP3    H119874   8.052   8.087   1.264
 6663TIP3    H219875   7.958   7.984   1.207
 6664TIP3   OH219876   7.652   8.147   1.147
 6664TIP3    H119877   7.649   8.129   1.052
 6664TIP3    H219878   7.697   8.068   1.184
 6665TIP3   OH219879   7.878   8.312   1.138
 6665TIP3    H119880   7.919   8.279   1.220
 6665TIP3    H219881   7.792   8.267   1.137
 6666TIP3   OH219882   8.805   7.273   1.096
 6666TIP3    H119883   8.872   7.246   1.162
 6666TIP3    H219884   8.721   7.249   1.138
 6667TIP3   OH219885   7.975   7.693   1.165
 6667TIP3    H119886   8.040   7.762   1.184
 6667TIP3    H219887   8.010   7.616   1.213
 6668TIP3   OH219888   8.026   8.237   1.357
 6668TIP3    H119889   8.090   8.310   1.361
 6668TIP3    H219890   7.971   8.253   1.436
 6669TIP3   OH219891   7.777   7.949   1.285
 6669TIP3    H119892   7.817   7.941   1.374
 6669TIP3    H219893   7.725   7.867   1.280
 6670TIP3   OH219894   8.000   7.439   1.298
 6670TIP3    H119895   7.904   7.447   1.307
 6670TIP3    H219896   8.023   7.377   1.370
 6671TIP3   OH219897   7.973   7.084   0.891
 6671TIP3    H119898   7.980   7.040   0.805
 6671TIP3    H219899   7.981   7.008   0.952
 6672TIP3   OH219900   7.674   8.816   1.396
 6672TIP3    H119901   7.769   8.812   1.373
 6672TIP3    H219902   7.645   8.730   1.362
 6673TIP3   OH219903   7.827   8.243   1.550
 6673TIP3    H119904   7.845   8.147   1.550
 6673TIP3    H219905   7.741   8.246   1.503
 6674TIP3   OH219906   7.944   7.975   1.525
 6674TIP3    H119907   8.024   7.933   1.493
 6674TIP3    H219908   7.974   8.009   1.613
 6675TIP3   OH219909   8.273   7.849   1.176
 6675TIP3    H119910   8.203   7.913   1.201
 6675TIP3    H219911   8.277   7.861   1.081
 6676TIP3   OH219912   8.399   7.651   1.315
 6676TIP3    H119913   8.405   7.572   1.257
 6676TIP3    H219914   8.360   7.718   1.255
 6677TIP3   OH219915   8.408   7.438   1.120
 6677TIP3    H119916   8.433   7.467   1.031
 6677TIP3    H219917   8.314   7.409   1.105
 6678TIP3   OH219918   8.284   7.762   1.544
 6678TIP3    H119919   8.215   7.694   1.557
 6678TIP3    H219920   8.319   7.737   1.456
 6679TIP3   OH219921   8.541   7.200   1.188
 6679TIP3    H119922   8.498   7.285   1.167
 6679TIP3    H219923   8.466   7.137   1.175
 6680TIP3   OH219924   8.643   7.739   1.429
 6680TIP3    H119925   8.622   7.699   1.515
 6680TIP3    H219926   8.564   7.715   1.378
 6681TIP3   OH219927   8.122   7.544   1.600
 6681TIP3    H119928   8.133   7.456   1.560
 6681TIP3    H219929   8.161   7.530   1.688
 6682TIP3   OH219930   8.632   7.207   1.447
 6682TIP3    H119931   8.702   7.140   1.440
 6682TIP3    H219932   8.598   7.206   1.355
 6683TIP3   OH219933   8.691   7.419   1.610
 6683TIP3    H119934   8.677   7.351   1.540
 6683TIP3    H219935   8.615   7.478   1.597
 6684TIP3   OH219936   7.855   7.592   1.562
 6684TIP3    H119937   7.953   7.589   1.565
 6684TIP3    H219938   7.834   7.507   1.606
 6685TIP3   OH219939   7.852   7.325   0.943
 6685TIP3    H119940   7.902   7.240   0.954
 6685TIP3    H219941   7.897   7.362   0.866
 6686TIP3   OH219942   7.652   7.571   0.953
 6686TIP3    H119943   7.714   7.497   0.963
 6686TIP3    H219944   7.692   7.637   1.011
 6687TIP3   OH219945   7.828   7.147   1.290
 6687TIP3    H119946   7.778   7.138   1.372
 6687TIP3    H219947   7.759   7.179   1.229
 6688TIP3   OH219948   7.857   8.580   1.423
 6688TIP3    H119949   7.796   8.558   1.351
 6688TIP3    H219950   7.822   8.527   1.496
 6689TIP3   OH219951   8.123   7.264   1.533
 6689TIP3    H119952   8.090   7.194   1.592
 6689TIP3    H219953   8.217   7.267   1.559
 6690TIP3   OH219954   8.372   7.265   1.651
 6690TIP3    H119955   8.458   7.243   1.610
 6690TIP3    H219956   8.363   7.193   1.717
 6691TIP3   OH219957   9.139   7.301   1.464
 6691TIP3    H119958   9.190   7.302   1.547
 6691TIP3    H219959   9.203   7.334   1.399
 6692TIP3   OH219960   0.353   7.994   3.535
 6692TIP3    H119961   0.409   7.927   3.490
 6692TIP3    H219962   0.317   8.044   3.460
 6693TIP3   OH219963   0.220   8.128   3.329
 6693TIP3    H119964   0.131   8.157   3.349
 6693TIP3    H219965   0.203   8.049   3.274
 6694TIP3   OH219966   0.127   7.893   3.198
 6694TIP3    H119967   0.031   7.885   3.187
 6694TIP3    H219968   0.154   7.799   3.192
 6695TIP3   OH219969   1.872   8.325   2.328
 6695TIP3    H119970   1.903   8.409   2.368
 6695TIP3    H219971   1.892   8.341   2.234
 6696TIP3   OH219972   1.280   8.512   2.359
 6696TIP3    H119973   1.317   8.423   2.377
 6696TIP3    H219974   1.234   8.494   2.275
 6697TIP3   OH219975   1.300   8.249   1.951
 6697TIP3    H119976   1.369   8.235   2.021
 6697TIP3    H219977   1.358   8.285   1.881
 6698TIP3   OH219978   1.958   8.530   2.499
 6698TIP3    H119979   1.877   8.575   2.467
 6698TIP3    H219980   1.957   8.556   2.592
 6699TIP3   OH219981   0.608   8.146   2.768
 6699TIP3    H119982   0.554   8.181   2.695
 6699TIP3    H219983   0.553   8.170   2.846
 6700TIP3   OH219984   1.508   8.262   2.123
 6700TIP3    H119985   1.506   8.210   2.204
 6700TIP3    H219986   1.558   8.342   2.151
 6701TIP3   OH219987   0.488   8.249   2.548
 6701TIP3    H119988   0.532   8.335   2.565
 6701TIP3    H219989   0.494   8.248   2.451
 6702TIP3   OH219990   1.664   8.231   2.496
 6702TIP3    H119991   1.576   8.254   2.463
 6702TIP3    H219992   1.723   8.260   2.424
 6703TIP3   OH219993   0.957   7.870   2.473
 6703TIP3    H119994   0.948   7.775   2.494
 6703TIP3    H219995   0.882   7.907   2.524
 6704TIP3   OH219996   1.499   8.756   2.602
 6704TIP3    H119997   1.510   8.838   2.551
 6704TIP3    H219998   1.408   8.729   2.574
 6705TIP3   OH219999   1.601   7.815   1.582
 6705TIP3    H120000   1.513   7.831   1.621
 6705TIP3    H220001   1.613   7.894   1.525
 6706TIP3   OH220002   1.721   8.718   2.790
 6706TIP3    H120003   1.639   8.712   2.737
 6706TIP3    H220004   1.748   8.624   2.792
 6707TIP3   OH220005   0.721   7.948   2.607
 6707TIP3    H120006   0.632   7.917   2.579
 6707TIP3    H220007   0.696   8.027   2.658
 6708TIP3   OH220008   1.256   8.064   2.800
 6708TIP3    H120009   1.325   8.034   2.863
 6708TIP3    H220010   1.173   8.041   2.846
 6709TIP3   OH220011   1.499   8.481   2.726
 6709TIP3    H120012   1.448   8.476   2.810
 6709TIP3    H220013   1.464   8.562   2.685
 6710TIP3   OH220014   0.640   8.474   2.597
 6710TIP3    H120015   0.596   8.489   2.684
 6710TIP3    H220016   0.619   8.555   2.548
 6711TIP3   OH220017   1.204   8.706   2.955
 6711TIP3    H120018   1.188   8.627   3.012
 6711TIP3    H220019   1.299   8.721   2.970
 6712TIP3   OH220020   1.189   8.450   2.103
 6712TIP3    H120021   1.093   8.453   2.082
 6712TIP3    H220022   1.214   8.361   2.069
 6713TIP3   OH220023   0.475   8.488   2.849
 6713TIP3    H120024   0.459   8.534   2.932
 6713TIP3    H220025   0.460   8.396   2.879
 6714TIP3   OH220026   1.245   8.697   2.548
 6714TIP3    H120027   1.250   8.628   2.478
 6714TIP3    H220028   1.172   8.659   2.602
 6715TIP3   OH220029   0.907   8.184   2.201
 6715TIP3    H120030   0.812   8.159   2.200
 6715TIP3    H220031   0.935   8.164   2.291
 6716TIP3   OH220032   1.353   8.246   2.407
 6716TIP3    H120033   1.316   8.259   2.497
 6716TIP3    H220034   1.291   8.180   2.372
 6717TIP3   OH220035   0.960   8.503   2.281
 6717TIP3    H120036   0.990   8.412   2.269
 6717TIP3    H220037   0.944   8.505   2.377
 6718TIP3   OH220038   0.917   8.386   2.592
 6718TIP3    H120039   0.830   8.429   2.589
 6718TIP3    H220040   0.974   8.453   2.635
 6719TIP3   OH220041   0.938   8.728   3.047
 6719TIP3    H120042   0.905   8.814   3.019
 6719TIP3    H220043   1.008   8.709   2.983
 6720TIP3   OH220044   0.453   8.234   2.984
 6720TIP3    H120045   0.359   8.222   3.002
 6720TIP3    H220046   0.490   8.170   3.048
 6721TIP3   OH220047   1.276   8.306   2.669
 6721TIP3    H120048   1.365   8.332   2.699
 6721TIP3    H220049   1.262   8.221   2.716
 6722TIP3   OH220050   1.139   8.073   1.811
 6722TIP3    H120051   1.147   8.099   1.718
 6722TIP3    H220052   1.198   8.136   1.857
 6723TIP3   OH220053   1.110   8.542   2.730
 6723TIP3    H120054   1.141   8.587   2.810
 6723TIP3    H220055   1.163   8.459   2.730
 6724TIP3   OH220056   1.005   7.968   2.043
 6724TIP3    H120057   0.980   8.050   2.089
 6724TIP3    H220058   1.048   8.003   1.963
 6725TIP3   OH220059   1.767   8.451   2.715
 6725TIP3    H120060   1.669   8.445   2.727
 6725TIP3    H220061   1.774   8.404   2.630
 6726TIP3   OH220062   1.407   8.626   2.078
 6726TIP3    H120063   1.338   8.567   2.114
 6726TIP3    H220064   1.484   8.602   2.133
 6727TIP3   OH220065   0.458   7.856   2.583
 6727TIP3    H120066   0.432   7.808   2.504
 6727TIP3    H220067   0.453   7.784   2.651
 6728TIP3   OH220068   0.429   8.757   3.187
 6728TIP3    H120069   0.462   8.671   3.218
 6728TIP3    H220070   0.420   8.809   3.270
 6729TIP3   OH220071   0.758   8.582   2.831
 6729TIP3    H120072   0.675   8.622   2.861
 6729TIP3    H220073   0.759   8.603   2.736
 6730TIP3   OH220074   0.867   8.417   3.016
 6730TIP3    H120075   0.872   8.334   2.964
 6730TIP3    H220076   0.831   8.478   2.948
 6731TIP3   OH220077   0.867   8.220   2.813
 6731TIP3    H120078   0.891   8.268   2.731
 6731TIP3    H220079   0.772   8.200   2.796
 6732TIP3   OH220080   1.481   8.737   3.059
 6732TIP3    H120081   1.497   8.645   3.085
 6732TIP3    H220082   1.570   8.764   3.034
 6733TIP3   OH220083   0.725   8.556   3.229
 6733TIP3    H120084   0.668   8.477   3.240
 6733TIP3    H220085   0.772   8.536   3.146
 6734TIP3   OH220086   0.998   7.988   2.877
 6734TIP3    H120087   0.949   8.070   2.854
 6734TIP3    H220088   0.928   7.920   2.866
 6735TIP3   OH220089   1.124   8.487   3.095
 6735TIP3    H120090   1.112   8.478   3.192
 6735TIP3    H220091   1.033   8.464   3.067
 6736TIP3   OH220092   1.365   8.448   2.957
 6736TIP3    H120093   1.286   8.437   3.014
 6736TIP3    H220094   1.437   8.410   3.012
 6737TIP3   OH220095   1.597   8.386   3.102
 6737TIP3    H120096   1.606   8.290   3.119
 6737TIP3    H220097   1.588   8.424   3.192
 6738TIP3   OH220098   0.583   8.328   3.287
 6738TIP3    H120099   0.586   8.237   3.252
 6738TIP3    H220100   0.619   8.315   3.377
 6739TIP3   OH220101   1.090   8.001   3.136
 6739TIP3    H120102   1.156   7.929   3.131
 6739TIP3    H220103   1.050   7.994   3.046
 6740TIP3   OH220104   1.157   8.216   3.293
 6740TIP3    H120105   1.134   8.144   3.229
 6740TIP3    H220106   1.078   8.274   3.287
 6741TIP3   OH220107   1.474   8.617   1.816
 6741TIP3    H120108   1.492   8.522   1.815
 6741TIP3    H220109   1.459   8.634   1.911
 6742TIP3   OH220110   1.931   8.875   2.718
 6742TIP3    H120111   1.856   8.819   2.744
 6742TIP3    H220112   2.005   8.811   2.723
 6743TIP3   OH220113   1.462   8.338   1.749
 6743TIP3    H120114   1.509   8.254   1.773
 6743TIP3    H220115   1.465   8.324   1.652
 6744TIP3   OH220116   1.625   8.509   2.214
 6744TIP3    H120117   1.710   8.537   2.174
 6744TIP3    H220118   1.640   8.544   2.304
 6745TIP3   OH220119   1.704   8.638   2.447
 6745TIP3    H120120   1.629   8.668   2.500
 6745TIP3    H220121   1.753   8.722   2.433
 6746TIP3   OH220122   0.320   8.395   3.273
 6746TIP3    H120123   0.416   8.377   3.268
 6746TIP3    H220124   0.285   8.307   3.295
 6747TIP3   OH220125   2.150   8.251   3.011
 6747TIP3    H120126   2.204   8.183   2.968
 6747TIP3    H220127   2.118   8.304   2.935
 6748TIP3   OH220128   1.570   8.088   1.778
 6748TIP3    H120129   1.620   8.069   1.860
 6748TIP3    H220130   1.511   8.010   1.773
 6749TIP3   OH220131   0.278   8.074   2.561
 6749TIP3    H120132   0.332   7.999   2.594
 6749TIP3    H220133   0.340   8.148   2.573
 6750TIP3   OH220134   2.018   8.388   2.816
 6750TIP3    H120135   1.930   8.427   2.834
 6750TIP3    H220136   1.991   8.315   2.758
 6751TIP3   OH220137   1.674   8.016   1.401
 6751TIP3    H120138   1.695   7.944   1.337
 6751TIP3    H220139   1.738   8.085   1.377
 6752TIP3   OH220140   0.288   7.984   2.992
 6752TIP3    H120141   0.232   7.957   3.067
 6752TIP3    H220142   0.239   7.946   2.918
 6753TIP3   OH220143   1.915   8.149   2.697
 6753TIP3    H120144   1.824   8.140   2.663
 6753TIP3    H220145   1.948   8.057   2.686
 6754TIP3   OH220146   1.142   8.064   2.342
 6754TIP3    H120147   1.085   7.993   2.377
 6754TIP3    H220148   1.189   8.018   2.270
 6755TIP3   OH220149   1.645   7.952   2.225
 6755TIP3    H120150   1.681   8.001   2.148
 6755TIP3    H220151   1.549   7.961   2.213
 6756TIP3   OH220152   1.742   8.049   1.989
 6756TIP3    H120153   1.814   7.997   1.947
 6756TIP3    H220154   1.773   8.141   1.971
 6757TIP3   OH220155   0.813   7.803   2.213
 6757TIP3    H120156   0.865   7.853   2.148
 6757TIP3    H220157   0.848   7.839   2.296
 6758TIP3   OH220158   1.368   7.950   2.190
 6758TIP3    H120159   1.357   7.907   2.104
 6758TIP3    H220160   1.350   7.875   2.251
 6759TIP3   OH220161   1.389   7.878   1.765
 6759TIP3    H120162   1.296   7.902   1.759
 6759TIP3    H220163   1.382   7.790   1.809
 6760TIP3   OH220164   0.579   8.053   3.221
 6760TIP3    H120165   0.542   7.986   3.281
 6760TIP3    H220166   0.672   8.054   3.251
 6761TIP3   OH220167   0.826   8.052   3.343
 6761TIP3    H120168   0.911   8.027   3.304
 6761TIP3    H220169   0.814   7.982   3.410
 6762TIP3   OH220170   1.651   8.114   3.131
 6762TIP3    H120171   1.669   8.083   3.222
 6762TIP3    H220172   1.740   8.107   3.090
 6763TIP3   OH220173   1.820   8.546   1.645
 6763TIP3    H120174   1.794   8.632   1.682
 6763TIP3    H220175   1.762   8.486   1.693
 6764TIP3   OH220176   3.667   8.582   1.815
 6764TIP3    H120177   3.699   8.665   1.854
 6764TIP3    H220178   3.689   8.597   1.721
 6765TIP3   OH220179   3.065   8.767   1.843
 6765TIP3    H120180   3.107   8.681   1.864
 6765TIP3    H220181   3.028   8.746   1.755
 6766TIP3   OH220182   2.406   8.424   1.815
 6766TIP3    H120183   2.387   8.498   1.754
 6766TIP3    H220184   2.358   8.351   1.769
 6767TIP3   OH220185   3.099   8.513   1.438
 6767TIP3    H120186   3.173   8.499   1.502
 6767TIP3    H220187   3.149   8.549   1.363
 6768TIP3   OH220188   2.028   8.609   1.930
 6768TIP3    H120189   2.115   8.600   1.972
 6768TIP3    H220190   2.046   8.572   1.841
 6769TIP3   OH220191   2.487   8.828   1.713
 6769TIP3    H120192   2.575   8.790   1.734
 6769TIP3    H220193   2.438   8.752   1.677
 6770TIP3   OH220194   3.753   8.785   1.988
 6770TIP3    H120195   3.674   8.832   1.954
 6770TIP3    H220196   3.758   8.820   2.078
 6771TIP3   OH220197   2.402   8.410   2.252
 6771TIP3    H120198   2.341   8.440   2.182
 6771TIP3    H220199   2.347   8.426   2.331
 6772TIP3   OH220200   3.308   8.520   1.609
 6772TIP3    H120201   3.303   8.470   1.692
 6772TIP3    H220202   3.359   8.600   1.636
 6773TIP3   OH220203   2.273   8.517   2.034
 6773TIP3    H120204   2.333   8.593   2.049
 6773TIP3    H220205   2.319   8.475   1.958
 6774TIP3   OH220206   3.460   8.485   1.982
 6774TIP3    H120207   3.373   8.511   1.949
 6774TIP3    H220208   3.520   8.517   1.911
 6775TIP3   OH220209   2.758   8.126   1.965
 6775TIP3    H120210   2.741   8.031   1.980
 6775TIP3    H220211   2.680   8.165   2.011
 6776TIP3   OH220212   2.639   8.678   0.995
 6776TIP3    H120213   2.729   8.712   0.999
 6776TIP3    H220214   2.636   8.637   0.906
 6777TIP3   OH220215   3.297   9.013   2.088
 6777TIP3    H120216   3.306   9.095   2.037
 6777TIP3    H220217   3.205   8.986   2.061
 6778TIP3   OH220218   3.391   8.071   1.066
 6778TIP3    H120219   3.309   8.092   1.116
 6778TIP3    H220220   3.404   8.154   1.015
 6779TIP3   OH220221   3.513   8.972   2.279
 6779TIP3    H120222   3.434   8.968   2.222
 6779TIP3    H220223   3.540   8.878   2.279
 6780TIP3   OH220224   2.519   8.202   2.093
 6780TIP3    H120225   2.430   8.171   2.066
 6780TIP3    H220226   2.494   8.286   2.138
 6781TIP3   OH220227   3.051   8.321   2.287
 6781TIP3    H120228   3.121   8.289   2.349
 6781TIP3    H220229   2.969   8.295   2.334
 6782TIP3   OH220230   3.294   8.737   2.209
 6782TIP3    H120231   3.244   8.732   2.294
 6782TIP3    H220232   3.261   8.819   2.171
 6783TIP3   OH220233   2.663   8.251   1.062
 6783TIP3    H120234   2.631   8.249   1.154
 6783TIP3    H220235   2.625   8.166   1.030
 6784TIP3   OH220236   2.439   8.730   2.099
 6784TIP3    H120237   2.378   8.739   2.175
 6784TIP3    H220238   2.416   8.807   2.044
 6785TIP3   OH220239   2.333   8.608   1.632
 6785TIP3    H120240   2.240   8.581   1.643
 6785TIP3    H220241   2.353   8.568   1.544
 6786TIP3   OH220242   2.834   8.693   1.355
 6786TIP3    H120243   2.753   8.742   1.329
 6786TIP3    H220244   2.876   8.675   1.268
 6787TIP3   OH220245   3.003   8.959   2.436
 6787TIP3    H120246   2.985   8.884   2.497
 6787TIP3    H220247   3.096   8.978   2.456
 6788TIP3   OH220248   2.971   8.706   1.593
 6788TIP3    H120249   2.912   8.723   1.516
 6788TIP3    H220250   3.016   8.628   1.555
 6789TIP3   OH220251   2.289   8.748   2.342
 6789TIP3    H120252   2.241   8.794   2.411
 6789TIP3    H220253   2.263   8.656   2.361
 6790TIP3   OH220254   2.311   8.216   1.019
 6790TIP3    H120255   2.314   8.229   1.116
 6790TIP3    H220256   2.214   8.220   1.005
 6791TIP3   OH220257   1.858   8.279   1.895
 6791TIP3    H120258   1.936   8.302   1.950
 6791TIP3    H220259   1.895   8.234   1.818
 6792TIP3   OH220260   1.826   8.265   1.412
 6792TIP3    H120261   1.883   8.292   1.339
 6792TIP3    H220262   1.782   8.348   1.435
 6793TIP3   OH220263   3.043   8.951   2.039
 6793TIP3    H120264   3.044   8.886   1.965
 6793TIP3    H220265   2.969   8.915   2.091
 6794TIP3   OH220266   2.663   8.419   1.686
 6794TIP3    H120267   2.579   8.423   1.736
 6794TIP3    H220268   2.728   8.436   1.756
 6795TIP3   OH220269   2.092   8.486   1.687
 6795TIP3    H120270   1.998   8.483   1.657
 6795TIP3    H220271   2.122   8.394   1.672
 6796TIP3   OH220272   2.380   8.474   1.401
 6796TIP3    H120273   2.473   8.494   1.376
 6796TIP3    H220274   2.330   8.502   1.320
 6797TIP3   OH220275   3.150   8.505   1.892
 6797TIP3    H120276   3.112   8.515   1.982
 6797TIP3    H220277   3.087   8.441   1.854
 6798TIP3   OH220278   2.234   8.511   1.178
 6798TIP3    H120279   2.155   8.487   1.129
 6798TIP3    H220280   2.283   8.559   1.107
 6799TIP3   OH220281   2.738   8.732   1.776
 6799TIP3    H120282   2.821   8.716   1.729
 6799TIP3    H220283   2.761   8.718   1.869
 6800TIP3   OH220284   2.263   8.245   1.665
 6800TIP3    H120285   2.229   8.165   1.710
 6800TIP3    H220286   2.313   8.207   1.592
 6801TIP3   OH220287   2.715   8.641   2.084
 6801TIP3    H120288   2.629   8.685   2.073
 6801TIP3    H220289   2.771   8.711   2.124
 6802TIP3   OH220290   2.913   8.362   1.037
 6802TIP3    H120291   2.816   8.342   1.042
 6802TIP3    H220292   2.916   8.459   1.051
 6803TIP3   OH220293   2.984   8.625   1.120
 6803TIP3    H120294   3.076   8.610   1.150
 6803TIP3    H220295   2.993   8.706   1.068
 6804TIP3   OH220296   2.742   8.990   2.544
 6804TIP3    H120297   2.665   9.037   2.507
 6804TIP3    H220298   2.793   8.970   2.464
 6805TIP3   OH220299   3.424   8.686   0.976
 6805TIP3    H120300   3.362   8.646   0.911
 6805TIP3    H220301   3.427   8.777   0.942
 6806TIP3   OH220302   2.235   8.487   2.463
 6806TIP3    H120303   2.138   8.491   2.476
 6806TIP3    H220304   2.262   8.427   2.535
 6807TIP3   OH220305   3.072   8.562   2.155
 6807TIP3    H120306   3.161   8.589   2.184
 6807TIP3    H220307   3.059   8.478   2.203
 6808TIP3   OH220308   2.960   8.303   1.312
 6808TIP3    H120309   2.943   8.328   1.219
 6808TIP3    H220310   2.998   8.386   1.349
 6809TIP3   OH220311   2.661   8.482   1.416
 6809TIP3    H120312   2.725   8.554   1.399
 6809TIP3    H220313   2.660   8.478   1.513
 6810TIP3   OH220314   2.905   8.796   2.219
 6810TIP3    H120315   2.940   8.845   2.296
 6810TIP3    H220316   2.960   8.716   2.216
 6811TIP3   OH220317   2.791   8.211   1.518
 6811TIP3    H120318   2.775   8.291   1.572
 6811TIP3    H220319   2.852   8.247   1.450
 6812TIP3   OH220320   2.306   8.214   1.303
 6812TIP3    H120321   2.308   8.305   1.340
 6812TIP3    H220322   2.401   8.192   1.310
 6813TIP3   OH220323   3.562   8.706   2.205
 6813TIP3    H120324   3.464   8.700   2.213
 6813TIP3    H220325   3.574   8.666   2.118
 6814TIP3   OH220326   3.198   8.882   1.572
 6814TIP3    H120327   3.129   8.821   1.601
 6814TIP3    H220328   3.274   8.855   1.628
 6815TIP3   OH220329   2.255   8.123   2.067
 6815TIP3    H120330   2.223   8.089   1.980
 6815TIP3    H220331   2.243   8.044   2.124
 6816TIP3   OH220332   2.236   9.008   2.673
 6816TIP3    H120333   2.279   8.930   2.711
 6816TIP3    H220334   2.217   9.064   2.751
 6817TIP3   OH220335   2.558   8.854   2.319
 6817TIP3    H120336   2.463   8.840   2.338
 6817TIP3    H220337   2.560   8.842   2.223
 6818TIP3   OH220338   2.368   8.618   0.970
 6818TIP3    H120339   2.368   8.632   0.873
 6818TIP3    H220340   2.461   8.640   0.993
 6819TIP3   OH220341   2.666   8.675   2.499
 6819TIP3    H120342   2.666   8.593   2.444
 6819TIP3    H220343   2.634   8.740   2.433
 6820TIP3   OH220344   2.661   8.478   2.303
 6820TIP3    H120345   2.688   8.523   2.221
 6820TIP3    H220346   2.567   8.456   2.283
 6821TIP3   OH220347   3.279   8.994   2.545
 6821TIP3    H120348   3.298   8.902   2.568
 6821TIP3    H220349   3.366   9.023   2.514
 6822TIP3   OH220350   2.529   8.807   2.718
 6822TIP3    H120351   2.464   8.734   2.728
 6822TIP3    H220352   2.569   8.786   2.631
 6823TIP3   OH220353   2.798   8.247   2.372
 6823TIP3    H120354   2.748   8.327   2.349
 6823TIP3    H220355   2.730   8.178   2.362
 6824TIP3   OH220356   2.923   8.737   2.582
 6824TIP3    H120357   2.905   8.745   2.677
 6824TIP3    H220358   2.832   8.719   2.550
 6825TIP3   OH220359   3.162   8.704   2.441
 6825TIP3    H120360   3.084   8.696   2.500
 6825TIP3    H220361   3.234   8.669   2.497
 6826TIP3   OH220362   3.387   8.642   2.589
 6826TIP3    H120363   3.402   8.547   2.607
 6826TIP3    H220364   3.386   8.681   2.679
 6827TIP3   OH220365   2.369   8.589   2.772
 6827TIP3    H120366   2.370   8.497   2.739
 6827TIP3    H220367   2.404   8.577   2.862
 6828TIP3   OH220368   2.918   8.453   2.764
 6828TIP3    H120369   2.919   8.450   2.667
 6828TIP3    H220370   2.858   8.530   2.779
 6829TIP3   OH220371   3.262   8.608   0.773
 6829TIP3    H120372   3.219   8.625   0.688
 6829TIP3    H220373   3.238   8.513   0.783
 6830TIP3   OH220374   3.295   8.860   1.319
 6830TIP3    H120375   3.293   8.763   1.326
 6830TIP3    H220376   3.270   8.885   1.411
 6831TIP3   OH220377   3.717   9.134   2.208
 6831TIP3    H120378   3.648   9.071   2.236
 6831TIP3    H220379   3.797   9.079   2.212
 6832TIP3   OH220380   3.198   8.346   0.777
 6832TIP3    H120381   3.275   8.305   0.822
 6832TIP3    H220382   3.128   8.279   0.787
 6833TIP3   OH220383   3.252   8.586   1.215
 6833TIP3    H120384   3.295   8.498   1.229
 6833TIP3    H220385   3.311   8.623   1.148
 6834TIP3   OH220386   3.419   8.765   1.702
 6834TIP3    H120387   3.503   8.793   1.659
 6834TIP3    H220388   3.437   8.801   1.791
 6835TIP3   OH220389   3.500   8.894   1.934
 6835TIP3    H120390   3.425   8.925   1.987
 6835TIP3    H220391   3.550   8.978   1.919
 6836TIP3   OH220392   2.101   8.653   2.751
 6836TIP3    H120393   2.199   8.642   2.747
 6836TIP3    H220394   2.077   8.565   2.787
 6837TIP3   OH220395   3.938   8.503   2.498
 6837TIP3    H120396   4.000   8.439   2.457
 6837TIP3    H220397   3.913   8.559   2.421
 6838TIP3   OH220398   3.370   8.343   1.254
 6838TIP3    H120399   3.417   8.327   1.339
 6838TIP3    H220400   3.309   8.267   1.253
 6839TIP3   OH220401   2.066   8.326   2.077
 6839TIP3    H120402   2.131   8.254   2.084
 6839TIP3    H220403   2.124   8.403   2.066
 6840TIP3   OH220404   1.872   8.613   2.155
 6840TIP3    H120405   1.919   8.603   2.069
 6840TIP3    H220406   1.889   8.706   2.173
 6841TIP3   OH220407   3.813   8.646   2.302
 6841TIP3    H120408   3.723   8.684   2.313
 6841TIP3    H220409   3.791   8.570   2.244
 6842TIP3   OH220410   3.450   8.278   0.888
 6842TIP3    H120411   3.488   8.207   0.832
 6842TIP3    H220412   3.518   8.348   0.880
 6843TIP3   OH220413   1.850   8.125   1.650
 6843TIP3    H120414   1.757   8.107   1.672
 6843TIP3    H220415   1.841   8.172   1.564
 6844TIP3   OH220416   2.076   8.191   2.464
 6844TIP3    H120417   2.022   8.183   2.544
 6844TIP3    H220418   2.011   8.227   2.401
 6845TIP3   OH220419   3.711   8.406   2.184
 6845TIP3    H120420   3.621   8.398   2.149
 6845TIP3    H220421   3.744   8.314   2.173
 6846TIP3   OH220422   2.926   8.325   1.812
 6846TIP3    H120423   2.875   8.255   1.857
 6846TIP3    H220424   2.989   8.274   1.759
 6847TIP3   OH220425   3.440   8.205   1.711
 6847TIP3    H120426   3.476   8.255   1.634
 6847TIP3    H220427   3.344   8.220   1.701
 6848TIP3   OH220428   3.534   8.301   1.473
 6848TIP3    H120429   3.608   8.250   1.432
 6848TIP3    H220430   3.567   8.393   1.458
 6849TIP3   OH220431   2.165   8.030   1.819
 6849TIP3    H120432   2.073   7.997   1.820
 6849TIP3    H220433   2.214   7.945   1.815
 6850TIP3   OH220434   1.964   7.895   1.470
 6850TIP3    H120435   1.990   7.952   1.396
 6850TIP3    H220436   1.919   7.957   1.529
 6851TIP3   OH220437   2.609   8.062   1.699
 6851TIP3    H120438   2.667   8.112   1.639
 6851TIP3    H220439   2.630   8.103   1.784
 6852TIP3   OH220440   3.159   8.209   1.682
 6852TIP3    H120441   3.152   8.172   1.593
 6852TIP3    H220442   3.144   8.130   1.738
 6853TIP3   OH220443   3.185   8.133   1.246
 6853TIP3    H120444   3.099   8.176   1.259
 6853TIP3    H220445   3.170   8.047   1.291
 6854TIP3   OH220446   2.070   8.063   1.241
 6854TIP3    H120447   2.113   7.997   1.183
 6854TIP3    H220448   2.148   8.111   1.275
 6855TIP3   OH220449   2.583   8.235   1.327
 6855TIP3    H120450   2.641   8.188   1.389
 6855TIP3    H220451   2.604   8.327   1.353
 6856TIP3   OH220452   2.364   8.314   2.712
 6856TIP3    H120453   2.330   8.241   2.766
 6856TIP3    H220454   2.458   8.316   2.742
 6857TIP3   OH220455   2.609   8.315   2.837
 6857TIP3    H120456   2.688   8.291   2.788
 6857TIP3    H220457   2.605   8.247   2.908
 6858TIP3   OH220458   3.447   8.370   2.620
 6858TIP3    H120459   3.471   8.337   2.709
 6858TIP3    H220460   3.533   8.365   2.573
 6859TIP3   OH220461   3.630   8.815   1.131
 6859TIP3    H120462   3.587   8.888   1.177
 6859TIP3    H220463   3.555   8.757   1.109
 6860TIP3   OH220464   5.454   8.840   1.296
 6860TIP3    H120465   5.503   8.911   1.341
 6860TIP3    H220466   5.488   8.848   1.205
 6861TIP3   OH220467   4.864   9.002   1.319
 6861TIP3    H120468   4.911   8.919   1.340
 6861TIP3    H220469   4.846   8.991   1.224
 6862TIP3   OH220470   4.201   8.683   1.302
 6862TIP3    H120471   4.182   8.755   1.238
 6862TIP3    H220472   4.153   8.609   1.258
 6863TIP3   OH220473   4.889   8.771   0.914
 6863TIP3    H120474   4.956   8.744   0.982
 6863TIP3    H220475   4.948   8.808   0.845
 6864TIP3   OH220476   3.822   8.861   1.421
 6864TIP3    H120477   3.911   8.859   1.458
 6864TIP3    H220478   3.838   8.828   1.331
 6865TIP3   OH220479   4.313   9.080   1.171
 6865TIP3    H120480   4.352   9.021   1.237
 6865TIP3    H220481   4.239   9.026   1.140
 6866TIP3   OH220482   5.575   9.020   1.480
 6866TIP3    H120483   5.529   9.092   1.436
 6866TIP3    H220484   5.553   9.030   1.570
 6867TIP3   OH220485   4.197   8.664   1.739
 6867TIP3    H120486   4.138   8.700   1.669
 6867TIP3    H220487   4.142   8.680   1.818
 6868TIP3   OH220488   5.074   8.738   1.103
 6868TIP3    H120489   5.109   8.698   1.183
 6868TIP3    H220490   5.141   8.807   1.080
 6869TIP3   OH220491   4.071   8.778   1.523
 6869TIP3    H120492   4.129   8.855   1.539
 6869TIP3    H220493   4.118   8.737   1.446
 6870TIP3   OH220494   5.254   8.749   1.474
 6870TIP3    H120495   5.168   8.755   1.430
 6870TIP3    H220496   5.317   8.773   1.402
 6871TIP3   OH220497   4.553   8.380   1.454
 6871TIP3    H120498   4.535   8.285   1.468
 6871TIP3    H220499   4.475   8.420   1.497
 6872TIP3   OH220500   4.941   9.259   1.803
 6872TIP3    H120501   4.997   9.157   1.797
 6872TIP3    H220502   4.947   9.242   1.675
 6873TIP3   OH220503   5.184   8.340   0.563
 6873TIP3    H120504   5.099   8.342   0.611
 6873TIP3    H220505   5.194   8.434   0.540
 6874TIP3   OH220506   4.314   8.459   1.581
 6874TIP3    H120507   4.226   8.428   1.552
 6874TIP3    H220508   4.288   8.542   1.625
 6875TIP3   OH220509   4.847   8.576   1.773
 6875TIP3    H120510   4.915   8.546   1.836
 6875TIP3    H220511   4.763   8.553   1.819
 6876TIP3   OH220512   5.066   9.020   1.701
 6876TIP3    H120513   5.055   8.989   1.794
 6876TIP3    H220514   5.045   8.942   1.652
 6877TIP3   OH220515   4.484   8.491   0.549
 6877TIP3    H120516   4.441   8.502   0.635
 6877TIP3    H220517   4.435   8.417   0.512
 6878TIP3   OH220518   4.244   8.990   1.590
 6878TIP3    H120519   4.185   8.991   1.669
 6878TIP3    H220520   4.236   9.082   1.560
 6879TIP3   OH220521   4.130   8.867   1.113
 6879TIP3    H120522   4.037   8.838   1.130
 6879TIP3    H220523   4.144   8.829   1.024
 6880TIP3   OH220524   4.623   8.952   0.826
 6880TIP3    H120525   4.539   8.999   0.810
 6880TIP3    H220526   4.660   8.947   0.736
 6881TIP3   OH220527   4.757   9.232   1.941
 6881TIP3    H120528   4.775   9.147   1.992
 6881TIP3    H220529   4.840   9.246   1.898
 6882TIP3   OH220530   4.782   8.975   1.053
 6882TIP3    H120531   4.718   8.992   0.980
 6882TIP3    H220532   4.823   8.895   1.013
 6883TIP3   OH220533   4.080   8.974   1.810
 6883TIP3    H120534   4.048   9.031   1.880
 6883TIP3    H220535   4.052   8.887   1.843
 6884TIP3   OH220536   4.105   8.478   0.520
 6884TIP3    H120537   4.119   8.479   0.617
 6884TIP3    H220538   4.018   8.520   0.515
 6885TIP3   OH220539   3.657   8.526   1.388
 6885TIP3    H120540   3.731   8.560   1.441
 6885TIP3    H220541   3.699   8.493   1.307
 6886TIP3   OH220542   3.630   8.504   0.904
 6886TIP3    H120543   3.680   8.543   0.829
 6886TIP3    H220544   3.571   8.578   0.927
 6887TIP3   OH220545   4.764   9.186   1.492
 6887TIP3    H120546   4.799   9.113   1.434
 6887TIP3    H220547   4.670   9.163   1.499
 6888TIP3   OH220548   4.456   8.656   1.169
 6888TIP3    H120549   4.378   8.662   1.226
 6888TIP3    H220550   4.512   8.728   1.206
 6889TIP3   OH220551   3.892   8.745   1.176
 6889TIP3    H120552   3.797   8.750   1.150
 6889TIP3    H220553   3.916   8.653   1.157
 6890TIP3   OH220554   4.160   8.738   0.871
 6890TIP3    H120555   4.253   8.754   0.850
 6890TIP3    H220556   4.113   8.761   0.788
 6891TIP3   OH220557   4.952   8.750   1.388
 6891TIP3    H120558   4.901   8.760   1.470
 6891TIP3    H220559   4.894   8.686   1.340
 6892TIP3   OH220560   4.006   8.753   0.638
 6892TIP3    H120561   3.917   8.726   0.610
 6892TIP3    H220562   4.037   8.801   0.560
 6893TIP3   OH220563   4.587   8.884   1.241
 6893TIP3    H120564   4.660   8.921   1.188
 6893TIP3    H220565   4.616   8.900   1.332
 6894TIP3   OH220566   4.063   8.501   1.150
 6894TIP3    H120567   4.029   8.420   1.195
 6894TIP3    H220568   4.109   8.464   1.074
 6895TIP3   OH220569   4.511   8.900   1.561
 6895TIP3    H120570   4.425   8.944   1.562
 6895TIP3    H220571   4.562   8.950   1.628
 6896TIP3   OH220572   4.508   9.270   2.021
 6896TIP3    H120573   4.509   9.323   1.940
 6896TIP3    H220574   4.582   9.209   1.996
 6897TIP3   OH220575   4.031   8.738   1.953
 6897TIP3    H120576   3.934   8.742   1.966
 6897TIP3    H220577   4.058   8.678   2.025
 6898TIP3   OH220578   4.879   8.813   1.651
 6898TIP3    H120579   4.964   8.797   1.691
 6898TIP3    H220580   4.834   8.733   1.686
 6899TIP3   OH220581   4.750   8.572   0.791
 6899TIP3    H120582   4.721   8.608   0.706
 6899TIP3    H220583   4.797   8.649   0.830
 6900TIP3   OH220584   4.446   8.741   0.901
 6900TIP3    H120585   4.515   8.808   0.885
 6900TIP3    H220586   4.449   8.730   0.998
 6901TIP3   OH220587   4.672   8.998   1.756
 6901TIP3    H120588   4.723   9.063   1.805
 6901TIP3    H220589   4.739   8.932   1.733
 6902TIP3   OH220590   4.592   8.466   1.000
 6902TIP3    H120591   4.570   8.542   1.058
 6902TIP3    H220592   4.650   8.509   0.933
 6903TIP3   OH220593   4.101   8.468   0.799
 6903TIP3    H120594   4.099   8.560   0.831
 6903TIP3    H220595   4.197   8.450   0.808
 6904TIP3   OH220596   5.366   8.959   1.675
 6904TIP3    H120597   5.275   8.983   1.698
 6904TIP3    H220598   5.353   8.897   1.600
 6905TIP3   OH220599   4.976   9.171   1.076
 6905TIP3    H120600   4.917   9.095   1.075
 6905TIP3    H220601   5.058   9.137   1.116
 6906TIP3   OH220602   3.664   8.673   0.680
 6906TIP3    H120603   3.653   8.769   0.684
 6906TIP3    H220604   3.580   8.640   0.646
 6907TIP3   OH220605   4.051   8.380   1.553
 6907TIP3    H120606   4.019   8.347   1.466
 6907TIP3    H220607   4.038   8.301   1.610
 6908TIP3   OH220608   3.991   9.273   2.171
 6908TIP3    H120609   4.063   9.215   2.144
 6908TIP3    H220610   4.024   9.322   2.249
 6909TIP3   OH220611   4.174   9.187   1.970
 6909TIP3    H120612   4.227   9.111   1.941
 6909TIP3    H220613   4.150   9.228   1.885
 6910TIP3   OH220614   4.440   8.953   1.969
 6910TIP3    H120615   4.446   8.858   1.947
 6910TIP3    H220616   4.463   8.991   1.882
 6911TIP3   OH220617   4.456   8.733   1.781
 6911TIP3    H120618   4.480   8.774   1.695
 6911TIP3    H220619   4.361   8.713   1.767
 6912TIP3   OH220620   5.049   9.228   2.053
 6912TIP3    H120621   5.101   9.146   2.063
 6912TIP3    H220622   5.104   9.282   1.995
 6913TIP3   OH220623   4.334   9.057   2.213
 6913TIP3    H120624   4.264   8.990   2.223
 6913TIP3    H220625   4.367   9.037   2.123
 6914TIP3   OH220626   4.589   8.503   1.852
 6914TIP3    H120627   4.539   8.584   1.827
 6914TIP3    H220628   4.520   8.434   1.839
 6915TIP3   OH220629   4.708   9.009   2.077
 6915TIP3    H120630   4.705   9.003   2.174
 6915TIP3    H220631   4.618   8.980   2.054
 6916TIP3   OH220632   4.952   8.940   1.938
 6916TIP3    H120633   4.877   8.949   1.999
 6916TIP3    H220634   5.026   8.922   1.999
 6917TIP3   OH220635   5.186   8.900   2.076
 6917TIP3    H120636   5.199   8.804   2.095
 6917TIP3    H220637   5.183   8.938   2.167
 6918TIP3   OH220638   4.165   8.846   2.264
 6918TIP3    H120639   4.168   8.756   2.225
 6918TIP3    H220640   4.206   8.828   2.352
 6919TIP3   OH220641   4.680   8.512   2.110
 6919TIP3    H120642   4.749   8.442   2.103
 6919TIP3    H220643   4.641   8.507   2.020
 6920TIP3   OH220644   4.748   8.727   2.267
 6920TIP3    H120645   4.725   8.656   2.204
 6920TIP3    H220646   4.669   8.785   2.263
 6921TIP3   OH220647   5.109   9.121   0.830
 6921TIP3    H120648   5.115   9.024   0.833
 6921TIP3    H220649   5.083   9.142   0.921
 6922TIP3   OH220650   5.527   9.364   1.666
 6922TIP3    H120651   5.473   9.288   1.687
 6922TIP3    H220652   5.616   9.327   1.676
 6923TIP3   OH220653   5.073   8.857   0.732
 6923TIP3    H120654   5.106   8.764   0.738
 6923TIP3    H220655   5.104   8.882   0.645
 6924TIP3   OH220656   5.214   8.957   1.050
 6924TIP3    H120657   5.299   9.015   1.050
 6924TIP3    H220658   5.203   8.961   1.153
 6925TIP3   OH220659   5.474   9.260   1.378
 6925TIP3    H120660   5.371   9.292   1.403
 6925TIP3    H220661   5.441   9.235   1.293
 6926TIP3   OH220662   3.896   8.908   2.237
 6926TIP3    H120663   3.993   8.898   2.233
 6926TIP3    H220664   3.872   8.822   2.274
 6927TIP3   OH220665   5.736   8.759   1.987
 6927TIP3    H120666   5.797   8.696   1.944
 6927TIP3    H220667   5.708   8.816   1.912
 6928TIP3   OH220668   5.146   8.599   0.750
 6928TIP3    H120669   5.208   8.584   0.824
 6928TIP3    H220670   5.090   8.518   0.755
 6929TIP3   OH220671   3.863   8.585   1.567
 6929TIP3    H120672   3.930   8.514   1.572
 6929TIP3    H220673   3.919   8.663   1.554
 6930TIP3   OH220674   3.665   8.870   1.643
 6930TIP3    H120675   3.714   8.857   1.559
 6930TIP3    H220676   3.683   8.964   1.659
 6931TIP3   OH220677   5.607   8.900   1.793
 6931TIP3    H120678   5.519   8.941   1.796
 6931TIP3    H220679   5.587   8.825   1.734
 6932TIP3   OH220680   3.651   8.367   1.136
 6932TIP3    H120681   3.558   8.361   1.161
 6932TIP3    H220682   3.648   8.423   1.056
 6933TIP3   OH220683   3.872   8.446   1.950
 6933TIP3    H120684   3.818   8.440   2.031
 6933TIP3    H220685   3.807   8.484   1.888
 6934TIP3   OH220686   5.505   8.663   1.671
 6934TIP3    H120687   5.416   8.649   1.635
 6934TIP3    H220688   5.542   8.571   1.661
 6935TIP3   OH220689   4.741   8.570   1.316
 6935TIP3    H120690   4.671   8.508   1.344
 6935TIP3    H220691   4.789   8.519   1.249
 6936TIP3   OH220692   5.235   8.469   1.202
 6936TIP3    H120693   5.271   8.513   1.122
 6936TIP3    H220694   5.139   8.474   1.186
 6937TIP3   OH220695   5.326   8.563   0.962
 6937TIP3    H120696   5.396   8.508   0.922
 6937TIP3    H220697   5.363   8.652   0.942
 6938TIP3   OH220698   3.961   8.287   1.307
 6938TIP3    H120699   3.868   8.255   1.307
 6938TIP3    H220700   4.009   8.202   1.302
 6939TIP3   OH220701   3.752   8.156   0.955
 6939TIP3    H120702   3.781   8.213   0.881
 6939TIP3    H220703   3.722   8.222   1.020
 6940TIP3   OH220704   4.407   8.317   1.188
 6940TIP3    H120705   4.458   8.368   1.124
 6940TIP3    H220706   4.427   8.363   1.270
 6941TIP3   OH220707   4.961   8.460   1.167
 6941TIP3    H120708   4.948   8.427   1.077
 6941TIP3    H220709   4.940   8.381   1.221
 6942TIP3   OH220710   4.974   8.384   0.739
 6942TIP3    H120711   4.886   8.425   0.741
 6942TIP3    H220712   4.957   8.299   0.784
 6943TIP3   OH220713   3.865   8.315   0.725
 6943TIP3    H120714   3.910   8.251   0.665
 6943TIP3    H220715   3.942   8.367   0.757
 6944TIP3   OH220716   4.375   8.491   0.816
 6944TIP3    H120717   4.439   8.444   0.871
 6944TIP3    H220718   4.398   8.584   0.840
 6945TIP3   OH220719   4.167   8.569   2.199
 6945TIP3    H120720   4.133   8.497   2.254
 6945TIP3    H220721   4.261   8.570   2.225
 6946TIP3   OH220722   4.417   8.566   2.316
 6946TIP3    H120723   4.502   8.541   2.278
 6946TIP3    H220724   4.404   8.497   2.384
 6947TIP3   OH220725   5.243   8.626   2.102
 6947TIP3    H120726   5.261   8.597   2.195
 6947TIP3    H220727   5.333   8.622   2.063
 6948TIP3   OH220728   5.617   9.114   0.888
 6948TIP3    H120729   5.704   9.121   0.932
 6948TIP3    H220730   5.644   9.070   0.806
 6949TIP3   OH220731   5.991   8.925   1.222
 6949TIP3    H120732   5.935   8.954   1.147
 6949TIP3    H220733   5.935   8.949   1.299
 6950TIP3   OH220734   5.866   9.026   0.993
 6950TIP3    H120735   5.924   9.101   1.019
 6950TIP3    H220736   5.898   9.017   0.900
 6951TIP3   OH220737   6.364   8.624   0.968
 6951TIP3    H120738   6.319   8.539   0.980
 6951TIP3    H220739   6.288   8.685   0.966
 6952TIP3   OH220740   6.105   8.709   1.071
 6952TIP3    H120741   6.013   8.686   1.048
 6952TIP3    H220742   6.093   8.800   1.101
 6953TIP3   OH220743   6.645   8.837   1.257
 6953TIP3    H120744   6.710   8.808   1.323
 6953TIP3    H220745   6.560   8.816   1.299
 6954TIP3   OH220746   6.901   9.269   1.187
 6954TIP3    H120747   6.850   9.255   1.270
 6954TIP3    H220748   6.839   9.321   1.135
 6955TIP3   OH220749   6.022   9.235   1.062
 6955TIP3    H120750   5.981   9.254   1.148
 6955TIP3    H220751   6.038   9.323   1.025
 6956TIP3   OH220752   6.597   9.481   1.415
 6956TIP3    H120753   6.573   9.403   1.470
 6956TIP3    H220754   6.693   9.482   1.427
 6957TIP3   OH220755   5.869   9.261   1.314
 6957TIP3    H120756   5.842   9.306   1.394
 6957TIP3    H220757   5.850   9.168   1.338
 6958TIP3   OH220758   5.465   8.778   0.877
 6958TIP3    H120759   5.530   8.816   0.939
 6958TIP3    H220760   5.520   8.750   0.804
 6959TIP3   OH220761   6.304   9.148   1.084
 6959TIP3    H120762   6.233   9.190   1.034
 6959TIP3    H220763   6.366   9.222   1.100
 6960TIP3   OH220764   6.330   9.502   1.521
 6960TIP3    H120765   6.258   9.554   1.480
 6960TIP3    H220766   6.380   9.472   1.443
 6961TIP3   OH220767   5.841   9.001   1.439
 6961TIP3    H120768   5.744   9.002   1.453
 6961TIP3    H220769   5.869   8.940   1.509
 6962TIP3   OH220770   6.659   9.098   1.152
 6962TIP3    H120771   6.755   9.099   1.152
 6962TIP3    H220772   6.639   9.006   1.175
 6963TIP3   OH220773   6.499   9.317   1.196
 6963TIP3    H120774   6.545   9.356   1.271
 6963TIP3    H220775   6.550   9.234   1.182
 6964TIP3   OH220776   7.166   9.192   1.148
 6964TIP3    H120777   7.076   9.220   1.174
 6964TIP3    H220778   7.174   9.229   1.060
 6965TIP3   OH220779   5.837   8.638   1.049
 6965TIP3    H120780   5.810   8.606   0.959
 6965TIP3    H220781   5.832   8.556   1.101
 6966TIP3   OH220782   5.830   9.523   1.650
 6966TIP3    H120783   5.890   9.453   1.678
 6966TIP3    H220784   5.818   9.578   1.731
 6967TIP3   OH220785   6.147   9.360   1.293
 6967TIP3    H120786   6.051   9.377   1.296
 6967TIP3    H220787   6.170   9.374   1.199
 6968TIP3   OH220788   6.253   9.189   1.475
 6968TIP3    H120789   6.258   9.105   1.424
 6968TIP3    H220790   6.219   9.249   1.406
 6969TIP3   OH220791   6.249   8.983   1.288
 6969TIP3    H120792   6.277   9.038   1.211
 6969TIP3    H220793   6.155   8.965   1.263
 6970TIP3   OH220794   6.880   9.508   1.528
 6970TIP3    H120795   6.886   9.412   1.539
 6970TIP3    H220796   6.965   9.526   1.485
 6971TIP3   OH220797   6.110   9.326   1.690
 6971TIP3    H120798   6.058   9.243   1.698
 6971TIP3    H220799   6.159   9.310   1.607
 6972TIP3   OH220800   6.389   8.756   1.340
 6972TIP3    H120801   6.339   8.838   1.318
 6972TIP3    H220802   6.321   8.688   1.322
 6973TIP3   OH220803   6.512   9.258   1.552
 6973TIP3    H120804   6.497   9.252   1.648
 6973TIP3    H220805   6.421   9.234   1.521
 6974TIP3   OH220806   6.762   9.234   1.419
 6974TIP3    H120807   6.679   9.210   1.467
 6974TIP3    H220808   6.830   9.189   1.473
 6975TIP3   OH220809   6.975   9.152   1.568
 6975TIP3    H120810   6.990   9.056   1.585
 6975TIP3    H220811   6.978   9.190   1.658
 6976TIP3   OH220812   5.968   9.099   1.751
 6976TIP3    H120813   5.974   9.011   1.710
 6976TIP3    H220814   6.008   9.082   1.838
 6977TIP3   OH220815   6.475   8.766   1.599
 6977TIP3    H120816   6.543   8.697   1.588
 6977TIP3    H220817   6.436   8.765   1.509
 6978TIP3   OH220818   6.544   8.984   1.755
 6978TIP3    H120819   6.521   8.914   1.690
 6978TIP3    H220820   6.467   9.045   1.747
 6979TIP3   OH220821   5.703   9.159   1.731
 6979TIP3    H120822   5.800   9.145   1.727
 6979TIP3    H220823   5.675   9.074   1.768
 6980TIP3   OH220824   7.516   9.027   1.452
 6980TIP3    H120825   7.570   8.946   1.438
 6980TIP3    H220826   7.478   9.039   1.363
 6981TIP3   OH220827   5.658   8.847   1.064
 6981TIP3    H120828   5.718   8.770   1.064
 6981TIP3    H220829   5.722   8.917   1.036
 6982TIP3   OH220830   5.458   9.129   1.118
 6982TIP3    H120831   5.507   9.107   1.037
 6982TIP3    H220832   5.494   9.217   1.133
 6983TIP3   OH220833   5.667   8.699   1.437
 6983TIP3    H120834   5.615   8.701   1.519
 6983TIP3    H220835   5.605   8.736   1.373
 6984TIP3   OH220836   7.322   8.915   1.180
 6984TIP3    H120837   7.239   8.930   1.133
 6984TIP3    H220838   7.350   8.827   1.147
 6985TIP3   OH220839   5.752   8.540   0.811
 6985TIP3    H120840   5.663   8.505   0.792
 6985TIP3    H220841   5.807   8.464   0.786
 6986TIP3   OH220842   5.963   8.822   1.684
 6986TIP3    H120843   5.931   8.751   1.743
 6986TIP3    H220844   6.058   8.824   1.709
 6987TIP3   OH220845   6.213   8.822   1.803
 6987TIP3    H120846   6.297   8.803   1.758
 6987TIP3    H220847   6.207   8.748   1.866
 6988TIP3   OH220848   7.038   8.882   1.592
 6988TIP3    H120849   7.060   8.852   1.683
 6988TIP3    H220850   7.126   8.879   1.548
 6989TIP3   OH220851   1.776   0.221   6.067
 6989TIP3    H120852   1.850   0.172   6.105
 6989TIP3    H220853   1.789   0.309   6.109
 6990TIP3   OH220854   1.399   0.650   6.081
 6990TIP3    H120855   1.440   0.577   6.029
 6990TIP3    H220856   1.427   0.630   6.171
 6991TIP3   OH220857   1.813   0.446   6.234
 6991TIP3    H120858   1.736   0.451   6.291
 6991TIP3    H220859   1.819   0.537   6.199
 6992TIP3   OH220860   1.533   0.487   5.902
 6992TIP3    H120861   1.576   0.402   5.880
 6992TIP3    H220862   1.599   0.551   5.868
 6993TIP3   OH220863   1.645   0.246   5.817
 6993TIP3    H120864   1.682   0.186   5.749
 6993TIP3    H220865   1.709   0.238   5.891
 6994TIP3   OH220866   2.077   0.358   6.585
 6994TIP3    H120867   2.048   0.275   6.544
 6994TIP3    H220868   2.055   0.425   6.518
 6995TIP3   OH220869   2.282   0.004   6.418
 6995TIP3    H120870   2.189   0.017   6.444
 6995TIP3    H220871   2.280   0.024   6.323
 6996TIP3   OH220872   1.858   0.299   5.233
 6996TIP3    H120873   1.866   0.395   5.215
 6996TIP3    H220874   1.951   0.270   5.222
 6997TIP3   OH220875   2.295   0.707   6.619
 6997TIP3    H120876   2.301   0.609   6.633
 6997TIP3    H220877   2.214   0.725   6.672
 6998TIP3   OH220878   1.169   0.624   5.704
 6998TIP3    H120879   1.121   0.610   5.622
 6998TIP3    H220880   1.137   0.712   5.733
 6999TIP3   OH220881   1.371   0.517   5.357
 6999TIP3    H120882   1.433   0.451   5.318
 6999TIP3    H220883   1.407   0.525   5.448
 7000TIP3   OH220884   1.425   0.573   5.627
 7000TIP3    H120885   1.334   0.578   5.667
 7000TIP3    H220886   1.481   0.569   5.706
 7001TIP3   OH220887   1.985   1.055   6.725
 7001TIP3    H120888   1.987   1.074   6.630
 7001TIP3    H220889   2.068   1.097   6.756
 7002TIP3   OH220890   2.021   0.141   6.417
 7002TIP3    H120891   2.065   0.188   6.343
 7002TIP3    H220892   1.930   0.137   6.388
 7003TIP3   OH220893   2.326   0.434   6.663
 7003TIP3    H120894   2.233   0.406   6.681
 7003TIP3    H220895   2.341   0.382   6.582
 7004TIP3   OH220896   1.799   0.366   5.497
 7004TIP3    H120897   1.765   0.287   5.539
 7004TIP3    H220898   1.808   0.336   5.404
 7005TIP3   OH220899   1.576   0.113   5.393
 7005TIP3    H120900   1.604   0.076   5.478
 7005TIP3    H220901   1.478   0.103   5.400
 7006TIP3   OH220902   1.834   0.736   6.559
 7006TIP3    H120903   1.749   0.689   6.562
 7006TIP3    H220904   1.815   0.808   6.495
 7007TIP3   OH220905   1.888   0.573   5.218
 7007TIP3    H120906   1.923   0.644   5.161
 7007TIP3    H220907   1.808   0.619   5.251
 7008TIP3   OH220908   1.720   0.037   5.646
 7008TIP3    H120909   1.711  -0.054   5.678
 7008TIP3    H220910   1.814   0.033   5.616
 7009TIP3   OH220911   1.842   0.709   6.155
 7009TIP3    H120912   1.801   0.759   6.081
 7009TIP3    H220913   1.936   0.729   6.138
 7010TIP3   OH220914   1.802   0.608   6.870
 7010TIP3    H120915   1.738   0.564   6.927
 7010TIP3    H220916   1.845   0.669   6.932
 7011TIP3   OH220917   1.531   0.337   5.230
 7011TIP3    H120918   1.566   0.262   5.283
 7011TIP3    H220919   1.581   0.328   5.146
 7012TIP3   OH220920   1.893  -0.165   5.237
 7012TIP3    H120921   1.859  -0.213   5.160
 7012TIP3    H220922   1.847  -0.079   5.224
 7013TIP3   OH220923   2.094   0.805   6.119
 7013TIP3    H120924   2.120   0.832   6.209
 7013TIP3    H220925   2.149   0.863   6.064
 7014TIP3   OH220926   2.130   0.824   6.398
 7014TIP3    H120927   2.083   0.737   6.394
 7014TIP3    H220928   2.199   0.801   6.463
 7015TIP3   OH220929   2.190   0.503   6.951
 7015TIP3    H120930   2.111   0.492   7.007
 7015TIP3    H220931   2.220   0.592   6.976
 7016TIP3   OH220932   1.988   0.016   5.596
 7016TIP3    H120933   2.057   0.077   5.561
 7016TIP3    H220934   2.035  -0.026   5.671
 7017TIP3   OH220935   2.115  -0.111   5.805
 7017TIP3    H120936   2.049  -0.099   5.875
 7017TIP3    H220937   2.197  -0.077   5.848
 7018TIP3   OH220938   2.156   0.267   6.215
 7018TIP3    H120939   2.223   0.206   6.180
 7018TIP3    H220940   2.165   0.344   6.156
 7019TIP3   OH220941   2.005   0.576   6.414
 7019TIP3    H120942   1.942   0.616   6.477
 7019TIP3    H220943   1.948   0.525   6.355
 7020TIP3   OH220944   2.058  -0.207   5.441
 7020TIP3    H120945   1.995  -0.195   5.367
 7020TIP3    H220946   2.028  -0.137   5.501
 7021TIP3   OH220947   1.682   0.668   5.772
 7021TIP3    H120948   1.733   0.659   5.689
 7021TIP3    H220949   1.730   0.739   5.817
 7022TIP3   OH220950   1.580   0.927   6.679
 7022TIP3    H120951   1.628   0.843   6.678
 7022TIP3    H220952   1.624   0.971   6.755
 7023TIP3   OH220953   1.336   0.786   6.371
 7023TIP3    H120954   1.242   0.785   6.344
 7023TIP3    H220955   1.338   0.869   6.423
 7024TIP3   OH220956   1.584   0.706   6.427
 7024TIP3    H120957   1.494   0.736   6.403
 7024TIP3    H220958   1.637   0.783   6.399
 7025TIP3   OH220959   1.774   0.905   6.348
 7025TIP3    H120960   1.759   0.990   6.302
 7025TIP3    H220961   1.801   0.846   6.274
 7026TIP3   OH220962   1.109   0.495   5.429
 7026TIP3    H120963   1.202   0.521   5.412
 7026TIP3    H220964   1.104   0.417   5.373
 7027TIP3   OH220965   1.826   0.636   5.541
 7027TIP3    H120966   1.819   0.539   5.526
 7027TIP3    H220967   1.782   0.670   5.460
 7028TIP3   OH220968   2.055   0.785   6.733
 7028TIP3    H120969   1.977   0.739   6.696
 7028TIP3    H220970   2.022   0.877   6.734
 7029TIP3   OH220971   3.320   0.156   5.492
 7029TIP3    H120972   3.292   0.247   5.471
 7029TIP3    H220973   3.241   0.107   5.463
 7030TIP3   OH220974   3.338   0.146   5.866
 7030TIP3    H120975   3.351   0.119   5.958
 7030TIP3    H220976   3.283   0.073   5.833
 7031TIP3   OH220977   2.612   0.052   6.233
 7031TIP3    H120978   2.640  -0.015   6.299
 7031TIP3    H220979   2.689   0.110   6.236
 7032TIP3   OH220980   3.565   0.455   5.555
 7032TIP3    H120981   3.542   0.388   5.620
 7032TIP3    H220982   3.587   0.531   5.611
 7033TIP3   OH220983   2.607   0.462   5.978
 7033TIP3    H120984   2.564   0.375   5.967
 7033TIP3    H220985   2.698   0.432   5.968
 7034TIP3   OH220986   2.287  -0.348   5.754
 7034TIP3    H120987   2.252  -0.260   5.773
 7034TIP3    H220988   2.210  -0.389   5.712
 7035TIP3   OH220989   2.360  -0.054   5.912
 7035TIP3    H120990   2.407  -0.129   5.955
 7035TIP3    H220991   2.431  -0.017   5.857
 7036TIP3   OH220992   3.213   0.918   5.576
 7036TIP3    H120993   3.263   0.850   5.525
 7036TIP3    H220994   3.186   0.867   5.654
 7037TIP3   OH220995   3.123   0.364   5.953
 7037TIP3    H120996   3.137   0.314   5.871
 7037TIP3    H220997   3.210   0.409   5.961
 7038TIP3   OH220998   3.533  -0.111   5.958
 7038TIP3    H120999   3.558  -0.200   5.984
 7038TIP3    H221000   3.499  -0.125   5.868
 7039TIP3   OH221001   2.505  -0.255   6.026
 7039TIP3    H121002   2.581  -0.282   6.081
 7039TIP3    H221003   2.522  -0.312   5.948
 7040TIP3   OH221004   2.943  -0.059   5.824
 7040TIP3    H121005   3.034  -0.092   5.840
 7040TIP3    H221006   2.897  -0.141   5.793
 7041TIP3   OH221007   4.194  -0.095   6.105
 7041TIP3    H121008   4.118  -0.034   6.098
 7041TIP3    H221009   4.224  -0.084   6.197
 7042TIP3   OH221010   3.219   0.379   5.357
 7042TIP3    H121011   3.166   0.351   5.281
 7042TIP3    H221012   3.176   0.465   5.376
 7043TIP3   OH221013   2.966   0.293   6.159
 7043TIP3    H121014   2.909   0.366   6.191
 7043TIP3    H221015   3.015   0.335   6.084
 7044TIP3   OH221016   2.745  -0.355   6.126
 7044TIP3    H121017   2.806  -0.283   6.150
 7044TIP3    H221018   2.783  -0.389   6.044
 7045TIP3   OH221019   2.798   0.495   6.249
 7045TIP3    H121020   2.763   0.579   6.214
 7045TIP3    H221021   2.722   0.468   6.304
 7046TIP3   OH221022   2.188   0.182   5.485
 7046TIP3    H121023   2.151   0.207   5.398
 7046TIP3    H221024   2.224   0.267   5.517
 7047TIP3   OH221025   3.637   0.700   5.723
 7047TIP3    H121026   3.548   0.691   5.764
 7047TIP3    H221027   3.626   0.785   5.676
 7048TIP3   OH221028   3.350   0.749   5.412
 7048TIP3    H121029   3.392   0.665   5.382
 7048TIP3    H221030   3.403   0.813   5.360
 7049TIP3   OH221031   3.479   0.529   5.303
 7049TIP3    H121032   3.420   0.456   5.279
 7049TIP3    H221033   3.517   0.496   5.387
 7050TIP3   OH221034   3.861   0.611   6.066
 7050TIP3    H121035   3.843   0.534   6.008
 7050TIP3    H221036   3.837   0.686   6.008
 7051TIP3   OH221037   3.149   0.005   5.325
 7051TIP3    H121038   3.067   0.055   5.307
 7051TIP3    H221039   3.191   0.002   5.237
 7052TIP3   OH221040   3.101  -0.203   5.042
 7052TIP3    H121041   3.178  -0.161   5.086
 7052TIP3    H221042   3.148  -0.273   4.992
 7053TIP3   OH221043   4.064   0.265   5.924
 7053TIP3    H121044   3.975   0.307   5.927
 7053TIP3    H221045   4.081   0.272   5.827
 7054TIP3   OH221046   3.497   0.088   5.295
 7054TIP3    H121047   3.442   0.113   5.373
 7054TIP3    H221048   3.580   0.062   5.340
 7055TIP3   OH221049   3.731   0.134   6.201
 7055TIP3    H121050   3.725   0.217   6.252
 7055TIP3    H221051   3.644   0.135   6.155
 7056TIP3   OH221052   2.727   0.082   5.717
 7056TIP3    H121053   2.688   0.027   5.647
 7056TIP3    H221054   2.804   0.028   5.744
 7057TIP3   OH221055   2.870   0.050   6.070
 7057TIP3    H121056   2.900   0.030   5.979
 7057TIP3    H221057   2.911   0.137   6.088
 7058TIP3   OH221058   3.399   0.696   5.846
 7058TIP3    H121059   3.377   0.775   5.898
 7058TIP3    H221060   3.380   0.622   5.907
 7059TIP3   OH221061   3.003   0.617   6.388
 7059TIP3    H121062   2.943   0.674   6.441
 7059TIP3    H221063   2.937   0.558   6.345
 7060TIP3   OH221064   3.343  -0.066   5.125
 7060TIP3    H121065   3.400  -0.005   5.178
 7060TIP3    H221066   3.368  -0.040   5.033
 7061TIP3   OH221067   2.748   0.183   6.482
 7061TIP3    H121068   2.753   0.263   6.537
 7061TIP3    H221069   2.658   0.151   6.507
 7062TIP3   OH221070   3.089   0.621   5.376
 7062TIP3    H121071   3.143   0.673   5.438
 7062TIP3    H221072   3.009   0.675   5.367
 7063TIP3   OH221073   2.792   0.781   6.477
 7063TIP3    H121074   2.747   0.771   6.393
 7063TIP3    H221075   2.719   0.762   6.540
 7064TIP3   OH221076   2.597  -0.065   5.514
 7064TIP3    H121077   2.524  -0.031   5.458
 7064TIP3    H221078   2.572  -0.157   5.528
 7065TIP3   OH221079   3.651   0.553   4.717
 7065TIP3    H121080   3.659   0.650   4.705
 7065TIP3    H221081   3.745   0.525   4.706
 7066TIP3   OH221082   2.385   0.306   6.423
 7066TIP3    H121083   2.313   0.275   6.366
 7066TIP3    H221084   2.421   0.222   6.458
 7067TIP3   OH221085   2.229   0.505   6.056
 7067TIP3    H121086   2.325   0.494   6.056
 7067TIP3    H221087   2.218   0.581   6.115
 7068TIP3   OH221088   4.097   0.959   6.117
 7068TIP3    H121089   4.090   0.862   6.129
 7068TIP3    H221090   4.013   0.987   6.160
 7069TIP3   OH221091   3.199   0.743   6.246
 7069TIP3    H121092   3.201   0.835   6.280
 7069TIP3    H221093   3.130   0.703   6.303
 7070TIP3   OH221094   2.959   0.876   5.196
 7070TIP3    H121095   2.912   0.857   5.113
 7070TIP3    H221096   2.926   0.964   5.220
 7071TIP3   OH221097   2.393   0.719   5.587
 7071TIP3    H121098   2.441   0.681   5.661
 7071TIP3    H221099   2.334   0.645   5.563
 7072TIP3   OH221100   3.163   0.774   4.840
 7072TIP3    H121101   3.222   0.703   4.806
 7072TIP3    H221102   3.195   0.783   4.932
 7073TIP3   OH221103   3.211   0.819   5.112
 7073TIP3    H121104   3.122   0.829   5.153
 7073TIP3    H221105   3.258   0.774   5.183
 7074TIP3   OH221106   3.988   0.091   6.393
 7074TIP3    H121107   3.901   0.117   6.358
 7074TIP3    H221108   3.989  -0.004   6.380
 7075TIP3   OH221109   2.579   0.499   6.413
 7075TIP3    H121110   2.629   0.481   6.495
 7075TIP3    H221111   2.507   0.433   6.420
 7076TIP3   OH221112   3.666  -0.049   6.406
 7076TIP3    H121113   3.685  -0.140   6.381
 7076TIP3    H221114   3.667  -0.001   6.321
 7077TIP3   OH221115   3.416  -0.017   4.866
 7077TIP3    H121116   3.380  -0.035   4.777
 7077TIP3    H221117   3.490   0.043   4.844
 7078TIP3   OH221118   2.921  -0.169   6.224
 7078TIP3    H121119   2.862  -0.147   6.299
 7078TIP3    H221120   2.906  -0.090   6.167
 7079TIP3   OH221121   2.782  -0.256   5.724
 7079TIP3    H121122   2.707  -0.309   5.755
 7079TIP3    H221123   2.806  -0.304   5.641
 7080TIP3   OH221124   3.294  -0.189   5.456
 7080TIP3    H121125   3.239  -0.117   5.417
 7080TIP3    H221126   3.338  -0.226   5.378
 7081TIP3   OH221127   3.461   0.135   6.506
 7081TIP3    H121128   3.454   0.086   6.591
 7081TIP3    H221129   3.557   0.128   6.493
 7082TIP3   OH221130   3.450  -0.163   5.696
 7082TIP3    H121131   3.389  -0.131   5.627
 7082TIP3    H221132   3.478  -0.247   5.658
 7083TIP3   OH221133   2.736  -0.126   6.422
 7083TIP3    H121134   2.747  -0.067   6.498
 7083TIP3    H221135   2.684  -0.199   6.459
 7084TIP3   OH221136   3.463   0.084   6.131
 7084TIP3    H121137   3.489   0.013   6.068
 7084TIP3    H221138   3.419   0.031   6.201
 7085TIP3   OH221139   2.553  -0.404   5.798
 7085TIP3    H121140   2.460  -0.386   5.772
 7085TIP3    H221141   2.562  -0.498   5.779
 7086TIP3   OH221142   2.840  -0.386   5.487
 7086TIP3    H121143   2.925  -0.410   5.448
 7086TIP3    H221144   2.779  -0.392   5.411
 7087TIP3   OH221145   2.662  -0.371   5.266
 7087TIP3    H121146   2.604  -0.420   5.205
 7087TIP3    H221147   2.723  -0.331   5.202
 7088TIP3   OH221148   3.787   1.306   6.213
 7088TIP3    H121149   3.783   1.331   6.119
 7088TIP3    H221150   3.864   1.357   6.244
 7089TIP3   OH221151   2.744   0.423   6.631
 7089TIP3    H121152   2.822   0.447   6.685
 7089TIP3    H221153   2.677   0.412   6.702
 7090TIP3   OH221154   3.209  -0.126   5.900
 7090TIP3    H121155   3.264  -0.185   5.846
 7090TIP3    H221156   3.202  -0.177   5.983
 7091TIP3   OH221157   3.190  -0.234   6.187
 7091TIP3    H121158   3.099  -0.202   6.200
 7091TIP3    H221159   3.242  -0.178   6.247
 7092TIP3   OH221160   2.921   0.157   5.274
 7092TIP3    H121161   2.847   0.093   5.262
 7092TIP3    H221162   2.903   0.190   5.365
 7093TIP3   OH221163   3.821   0.391   5.903
 7093TIP3    H121164   3.841   0.442   5.822
 7093TIP3    H221165   3.735   0.348   5.880
 7094TIP3   OH221166   3.331   0.482   6.269
 7094TIP3    H121167   3.339   0.450   6.359
 7094TIP3    H221168   3.282   0.566   6.279
 7095TIP3   OH221169   3.438  -0.311   5.230
 7095TIP3    H121170   3.535  -0.297   5.242
 7095TIP3    H221171   3.413  -0.232   5.179
 7096TIP3   OH221172   2.609   0.182   5.948
 7096TIP3    H121173   2.650   0.153   5.864
 7096TIP3    H221174   2.647   0.119   6.011
 7097TIP3   OH221175   3.064   0.306   5.094
 7097TIP3    H121176   3.016   0.392   5.099
 7097TIP3    H221177   3.010   0.251   5.154
 7098TIP3   OH221178   2.500   0.096   6.564
 7098TIP3    H121179   2.503   0.093   6.662
 7098TIP3    H221180   2.420   0.043   6.545
 7099TIP3   OH221181   3.210   0.223   6.581
 7099TIP3    H121182   3.144   0.162   6.542
 7099TIP3    H221183   3.292   0.195   6.536
 7100TIP3   OH221184   3.483   0.742   6.165
 7100TIP3    H121185   3.387   0.734   6.176
 7100TIP3    H221186   3.507   0.792   6.246
 7101TIP3   OH221187   3.892  -0.194   5.073
 7101TIP3    H121188   3.834  -0.243   5.010
 7101TIP3    H221189   3.886  -0.105   5.032
 7102TIP3   OH221190   4.110   0.657   6.156
 7102TIP3    H121191   4.012   0.658   6.147
 7102TIP3    H221192   4.134   0.627   6.066
 7103TIP3   OH221193   3.592   0.628   4.985
 7103TIP3    H121194   3.562   0.561   5.048
 7103TIP3    H221195   3.601   0.577   4.902
 7104TIP3   OH221196   3.591   0.255   5.823
 7104TIP3    H121197   3.497   0.228   5.835
 7104TIP3    H221198   3.624   0.177   5.775
 7105TIP3   OH221199   2.694   0.459   5.544
 7105TIP3    H121200   2.740   0.543   5.563
 7105TIP3    H221201   2.602   0.487   5.539
 7106TIP3   OH221202   2.274  -0.215   5.273
 7106TIP3    H121203   2.324  -0.133   5.294
 7106TIP3    H221204   2.202  -0.209   5.339
 7107TIP3   OH221205   2.860   0.244   5.522
 7107TIP3    H121206   2.812   0.329   5.531
 7107TIP3    H221207   2.821   0.195   5.597
 7108TIP3   OH221208   2.982   0.820   6.042
 7108TIP3    H121209   3.018   0.892   5.986
 7108TIP3    H221210   3.063   0.794   6.090
 7109TIP3   OH221211   2.617   0.738   5.410
 7109TIP3    H121212   2.541   0.746   5.469
 7109TIP3    H221213   2.663   0.823   5.427
 7110TIP3   OH221214   3.377   0.463   6.001
 7110TIP3    H121215   3.367   0.464   6.099
 7110TIP3    H221216   3.451   0.403   5.989
 7111TIP3   OH221217   3.344   0.354   4.884
 7111TIP3    H121218   3.398   0.329   4.963
 7111TIP3    H221219   3.256   0.330   4.915
 7112TIP3   OH221220   3.621   0.995   6.052
 7112TIP3    H121221   3.542   0.937   6.048
 7112TIP3    H221222   3.602   1.059   5.980
 7113TIP3   OH221223   3.684   0.830   4.705
 7113TIP3    H121224   3.722   0.903   4.654
 7113TIP3    H221225   3.604   0.874   4.739
 7114TIP3   OH221226   3.506   0.282   5.094
 7114TIP3    H121227   3.494   0.222   5.170
 7114TIP3    H221228   3.604   0.284   5.088
 7115TIP3   OH221229   2.425   0.688   6.204
 7115TIP3    H121230   2.473   0.612   6.242
 7115TIP3    H221231   2.438   0.753   6.274
 7116TIP3   OH221232   2.711   0.336   4.885
 7116TIP3    H121233   2.724   0.243   4.859
 7116TIP3    H221234   2.693   0.326   4.981
 7117TIP3   OH221235   2.655   0.341   5.157
 7117TIP3    H121236   2.722   0.313   5.221
 7117TIP3    H221237   2.659   0.439   5.166
 7118TIP3   OH221238   2.387   0.030   5.358
 7118TIP3    H121239   2.323   0.076   5.416
 7118TIP3    H221240   2.406   0.101   5.294
 7119TIP3   OH221241   2.920   0.535   5.100
 7119TIP3    H121242   2.834   0.561   5.141
 7119TIP3    H221243   2.940   0.615   5.050
 7120TIP3   OH221244   3.137  -0.407   5.521
 7120TIP3    H121245   3.176  -0.319   5.504
 7120TIP3    H221246   3.087  -0.391   5.603
 7121TIP3   OH221247   3.377  -0.081   6.342
 7121TIP3    H121248   3.380  -0.007   6.405
 7121TIP3    H221249   3.461  -0.125   6.363
 7122TIP3   OH221250   2.666   0.613   5.173
 7122TIP3    H121251   2.636   0.684   5.112
 7122TIP3    H221252   2.649   0.656   5.261
 7123TIP3   OH221253   3.672   0.019   5.694
 7123TIP3    H121254   3.598  -0.043   5.709
 7123TIP3    H221255   3.745  -0.026   5.743
 7124TIP3   OH221256   2.385   0.244   5.165
 7124TIP3    H121257   2.454   0.312   5.175
 7124TIP3    H221258   2.429   0.187   5.099
 7125TIP3   OH221259   2.302  -0.505   5.288
 7125TIP3    H121260   2.356  -0.424   5.284
 7125TIP3    H221261   2.222  -0.469   5.328
 7126TIP3   OH221262   3.641   0.972   5.646
 7126TIP3    H121263   3.596   1.017   5.571
 7126TIP3    H221264   3.734   0.991   5.623
 7127TIP3   OH221265   2.256   0.464   5.552
 7127TIP3    H121266   2.183   0.491   5.610
 7127TIP3    H221267   2.225   0.500   5.465
 7128TIP3   OH221268   2.409   1.000   6.627
 7128TIP3    H121269   2.496   0.995   6.671
 7128TIP3    H221270   2.385   0.905   6.624
 7129TIP3   OH221271   2.892   0.964   6.667
 7129TIP3    H121272   2.986   0.943   6.678
 7129TIP3    H221273   2.868   0.904   6.594
 7130TIP3   OH221274   2.873   0.539   4.794
 7130TIP3    H121275   2.816   0.470   4.837
 7130TIP3    H221276   2.949   0.485   4.768
 7131TIP3   OH221277   3.532   0.871   6.403
 7131TIP3    H121278   3.522   0.801   6.472
 7131TIP3    H221279   3.608   0.922   6.435
 7132TIP3   OH221280   3.310   0.579   4.710
 7132TIP3    H121281   3.352   0.515   4.769
 7132TIP3    H221282   3.369   0.578   4.632
 7133TIP3   OH221283   2.549   0.412   6.821
 7133TIP3    H121284   2.552   0.317   6.844
 7133TIP3    H221285   2.459   0.417   6.782
 7134TIP3   OH221286   2.519   0.055   5.020
 7134TIP3    H121287   2.575   0.023   5.094
 7134TIP3    H221288   2.587   0.061   4.949
 7135TIP3   OH221289   3.150   0.494   6.598
 7135TIP3    H121290   3.107   0.504   6.512
 7135TIP3    H221291   3.179   0.400   6.596
 7136TIP3   OH221292   3.030   0.258   4.825
 7136TIP3    H121293   3.031   0.270   4.922
 7136TIP3    H221294   3.030   0.159   4.821
 7137TIP3   OH221295   3.645   0.497   6.207
 7137TIP3    H121296   3.712   0.550   6.161
 7137TIP3    H221297   3.566   0.553   6.196
 7138TIP3   OH221298   2.654   0.136   6.810
 7138TIP3    H121299   2.715   0.064   6.797
 7138TIP3    H221300   2.680   0.167   6.899
 7139TIP3   OH221301   2.724  -0.038   5.239
 7139TIP3    H121302   2.702  -0.077   5.326
 7139TIP3    H221303   2.761  -0.116   5.191
 7140TIP3   OH221304   2.998   0.075   6.453
 7140TIP3    H121305   2.911   0.120   6.452
 7140TIP3    H221306   3.039   0.100   6.368
 7141TIP3   OH221307   2.826  -0.246   5.083
 7141TIP3    H121308   2.801  -0.241   4.989
 7141TIP3    H221309   2.924  -0.240   5.076
 7142TIP3   OH221310   3.518   0.433   6.609
 7142TIP3    H121311   3.586   0.391   6.555
 7142TIP3    H221312   3.505   0.366   6.679
 7143TIP3   OH221313   3.652   0.083   4.743
 7143TIP3    H121314   3.628   0.040   4.658
 7143TIP3    H221315   3.620   0.174   4.723
 7144TIP3   OH221316   3.058  -0.140   6.600
 7144TIP3    H121317   3.073  -0.216   6.540
 7144TIP3    H221318   3.028  -0.069   6.538
 7145TIP3   OH221319   3.173   0.144   6.249
 7145TIP3    H121320   3.248   0.162   6.192
 7145TIP3    H221321   3.105   0.207   6.216
 7146TIP3   OH221322   3.734   0.117   6.666
 7146TIP3    H121323   3.763   0.026   6.656
 7146TIP3    H221324   3.806   0.169   6.627
 7147TIP3   OH221325   3.774   0.351   6.392
 7147TIP3    H121326   3.713   0.406   6.336
 7147TIP3    H221327   3.859   0.375   6.351
 7148TIP3   OH221328   2.972  -0.047   6.842
 7148TIP3    H121329   2.904  -0.116   6.849
 7148TIP3    H221330   3.011  -0.072   6.756
 7149TIP3   OH221331   3.449  -0.025   6.716
 7149TIP3    H121332   3.398  -0.046   6.797
 7149TIP3    H221333   3.473  -0.115   6.685
 7150TIP3   OH221334   2.635   0.817   4.986
 7150TIP3    H121335   2.730   0.810   4.967
 7150TIP3    H221336   2.606   0.867   4.907
 7151TIP3   OH221337   2.117   0.199   5.206
 7151TIP3    H121338   2.212   0.222   5.189
 7151TIP3    H221339   2.111   0.111   5.162
 7152TIP3   OH221340   2.030   0.808   5.618
 7152TIP3    H121341   1.964   0.747   5.579
 7152TIP3    H221342   2.074   0.750   5.682
 7153TIP3   OH221343   2.162   0.659   5.808
 7153TIP3    H121344   2.157   0.584   5.869
 7153TIP3    H221345   2.204   0.726   5.866
 7154TIP3   OH221346   3.896   1.057   5.603
 7154TIP3    H121347   3.918   1.094   5.690
 7154TIP3    H221348   3.953   1.108   5.543
 7155TIP3   OH221349   3.920   1.082   5.884
 7155TIP3    H121350   3.876   0.995   5.880
 7155TIP3    H221351   3.996   1.060   5.940
 7156TIP3   OH221352   3.971   0.756   6.460
 7156TIP3    H121353   3.896   0.766   6.522
 7156TIP3    H221354   4.010   0.846   6.462
 7157TIP3   OH221355   3.787   0.268   5.076
 7157TIP3    H121356   3.854   0.335   5.049
 7157TIP3    H221357   3.830   0.231   5.156
 7158TIP3   OH221358   3.914   0.136   5.281
 7158TIP3    H121359   3.846   0.095   5.340
 7158TIP3    H221360   3.977   0.175   5.345
 7159TIP3   OH221361   3.976   0.537   5.720
 7159TIP3    H121362   4.018   0.469   5.664
 7159TIP3    H221363   3.960   0.609   5.656
 7160TIP3   OH221364   3.798   0.830   5.910
 7160TIP3    H121365   3.726   0.875   5.960
 7160TIP3    H221366   3.748   0.786   5.839
 7161TIP3   OH221367   3.848   0.042   4.927
 7161TIP3    H121368   3.778   0.052   4.859
 7161TIP3    H221369   3.825   0.118   4.985
 7162TIP3   OH221370   3.733  -0.287   4.870
 7162TIP3    H121371   3.686  -0.213   4.832
 7162TIP3    H221372   3.684  -0.362   4.835
 7163TIP3   OH221373   3.728  -0.003   5.429
 7163TIP3    H121374   3.733  -0.100   5.430
 7163TIP3    H221375   3.712   0.016   5.525
 7164TIP3   OH221376   2.350   0.087   6.157
 7164TIP3    H121377   2.355   0.046   6.068
 7164TIP3    H221378   2.444   0.080   6.185
 7165TIP3   OH221379   4.017   0.414   6.286
 7165TIP3    H121380   4.089   0.350   6.272
 7165TIP3    H221381   4.036   0.485   6.222
 7166TIP3   OH221382   4.215   0.217   6.313
 7166TIP3    H121383   4.130   0.173   6.338
 7166TIP3    H221384   4.276   0.161   6.363
 7167TIP3   OH221385   3.708  -0.288   5.273
 7167TIP3    H121386   3.754  -0.323   5.352
 7167TIP3    H221387   3.782  -0.253   5.219
 7168TIP3   OH221388   3.889  -0.082   5.823
 7168TIP3    H121389   3.978  -0.072   5.783
 7168TIP3    H221390   3.909  -0.063   5.916
 7169TIP3   OH221391   3.955   0.037   6.070
 7169TIP3    H121392   3.871   0.077   6.102
 7169TIP3    H221393   3.988   0.108   6.012
 7170TIP3   OH221394   2.346  -0.287   6.253
 7170TIP3    H121395   2.396  -0.271   6.171
 7170TIP3    H221396   2.353  -0.204   6.301
 7171TIP3   OH221397   3.477   0.930   5.257
 7171TIP3    H121398   3.529   0.917   5.175
 7171TIP3    H221399   3.529   0.997   5.304
 7172TIP3   OH221400   2.576   0.737   6.645
 7172TIP3    H121401   2.486   0.704   6.626
 7172TIP3    H221402   2.590   0.703   6.735
 7173TIP3   OH221403   2.755   0.750   6.152
 7173TIP3    H121404   2.704   0.835   6.146
 7173TIP3    H221405   2.845   0.787   6.159
 7174TIP3   OH221406   3.199   1.009   6.331
 7174TIP3    H121407   3.241   1.009   6.419
 7174TIP3    H221408   3.265   1.060   6.279
 7175TIP3   OH221409   3.377   1.162   6.191
 7175TIP3    H121410   3.446   1.111   6.146
 7175TIP3    H221411   3.431   1.218   6.250
 7176TIP3   OH221412   2.432   1.021   6.216
 7176TIP3    H121413   2.344   1.057   6.193
 7176TIP3    H221414   2.443   1.058   6.305
 7177TIP3   OH221415   2.659   0.987   6.065
 7177TIP3    H121416   2.574   1.004   6.111
 7177TIP3    H221417   2.643   1.033   5.979
 7178TIP3   OH221418   3.093   1.030   5.877
 7178TIP3    H121419   3.035   1.054   5.802
 7178TIP3    H221420   3.108   1.117   5.919
 7179TIP3   OH221421   3.362   0.970   5.927
 7179TIP3    H121422   3.268   0.983   5.903
 7179TIP3    H221423   3.404   1.043   5.878
 7180TIP3   OH221424   3.572   1.161   5.838
 7180TIP3    H121425   3.556   1.245   5.790
 7180TIP3    H221426   3.596   1.100   5.765
 7181TIP3   OH221427   2.347   0.814   5.966
 7181TIP3    H121428   2.363   0.797   6.061
 7181TIP3    H221429   2.414   0.757   5.928
 7182TIP3   OH221430   2.129   0.591   5.352
 7182TIP3    H121431   2.045   0.556   5.317
 7182TIP3    H221432   2.120   0.684   5.325
 7183TIP3   OH221433   2.902   0.775   4.933
 7183TIP3    H121434   2.991   0.797   4.897
 7183TIP3    H221435   2.881   0.699   4.874
 7184TIP3   OH221436   3.625   0.895   5.026
 7184TIP3    H121437   3.616   0.797   5.015
 7184TIP3    H221438   3.577   0.927   4.947
 7185TIP3   OH221439   2.207   0.611   4.990
 7185TIP3    H121440   2.211   0.638   5.083
 7185TIP3    H221441   2.295   0.570   4.977
 7186TIP3   OH221442   3.849   1.038   6.213
 7186TIP3    H121443   3.770   1.007   6.164
 7186TIP3    H221444   3.829   1.133   6.218
 7187TIP3   OH221445   5.117   0.411   4.977
 7187TIP3    H121446   5.088   0.503   4.960
 7187TIP3    H221447   5.037   0.363   4.949
 7188TIP3   OH221448   5.110   0.409   5.364
 7188TIP3    H121449   5.145   0.387   5.453
 7188TIP3    H221450   5.071   0.324   5.338
 7189TIP3   OH221451   4.417   0.334   5.736
 7189TIP3    H121452   4.465   0.271   5.789
 7189TIP3    H221453   4.488   0.367   5.678
 7190TIP3   OH221454   5.358   0.711   5.045
 7190TIP3    H121455   5.344   0.645   5.114
 7190TIP3    H221456   5.388   0.788   5.097
 7191TIP3   OH221457   4.387   0.715   5.453
 7191TIP3    H121458   4.379   0.617   5.454
 7191TIP3    H221459   4.484   0.724   5.442
 7192TIP3   OH221460   4.085  -0.092   5.243
 7192TIP3    H121461   4.037  -0.009   5.259
 7192TIP3    H221462   4.022  -0.138   5.184
 7193TIP3   OH221463   4.153   0.206   5.410
 7193TIP3    H121464   4.201   0.127   5.444
 7193TIP3    H221465   4.210   0.233   5.336
 7194TIP3   OH221466   5.007   1.175   5.060
 7194TIP3    H121467   5.052   1.103   5.010
 7194TIP3    H221468   5.002   1.137   5.148
 7195TIP3   OH221469   4.912   0.634   5.413
 7195TIP3    H121470   4.951   0.557   5.368
 7195TIP3    H221471   4.996   0.681   5.436
 7196TIP3   OH221472   5.330   0.156   5.443
 7196TIP3    H121473   5.342   0.079   5.502
 7196TIP3    H221474   5.302   0.116   5.359
 7197TIP3   OH221475   4.295  -0.003   5.513
 7197TIP3    H121476   4.377  -0.026   5.562
 7197TIP3    H221477   4.312  -0.058   5.433
 7198TIP3   OH221478   4.735   0.197   5.321
 7198TIP3    H121479   4.828   0.167   5.328
 7198TIP3    H221480   4.691   0.116   5.286
 7199TIP3   OH221481   5.975   0.140   5.592
 7199TIP3    H121482   5.904   0.207   5.579
 7199TIP3    H221483   6.014   0.167   5.677
 7200TIP3   OH221484   5.008   0.634   4.847
 7200TIP3    H121485   4.962   0.613   4.765
 7200TIP3    H221486   4.962   0.716   4.874
 7201TIP3   OH221487   4.764   0.557   5.635
 7201TIP3    H121488   4.705   0.626   5.671
 7201TIP3    H221489   4.809   0.605   5.562
 7202TIP3   OH221490   4.532  -0.086   5.606
 7202TIP3    H121491   4.609  -0.031   5.630
 7202TIP3    H221492   4.570  -0.153   5.549
 7203TIP3   OH221493   4.594   0.752   5.736
 7203TIP3    H121494   4.571   0.837   5.694
 7203TIP3    H221495   4.513   0.737   5.789
 7204TIP3   OH221496   3.988   0.441   4.971
 7204TIP3    H121497   3.947   0.469   4.887
 7204TIP3    H221498   4.019   0.527   5.007
 7205TIP3   OH221499   5.426   0.956   5.209
 7205TIP3    H121500   5.337   0.948   5.248
 7205TIP3    H221501   5.419   1.043   5.165
 7206TIP3   OH221502   5.128   1.001   4.883
 7206TIP3    H121503   5.180   0.920   4.863
 7206TIP3    H221504   5.189   1.068   4.843
 7207TIP3   OH221505   5.273   0.786   4.793
 7207TIP3    H121506   5.226   0.708   4.760
 7207TIP3    H221507   5.310   0.752   4.878
 7208TIP3   OH221508   5.653   0.869   5.554
 7208TIP3    H121509   5.644   0.791   5.494
 7208TIP3    H221510   5.638   0.943   5.492
 7209TIP3   OH221511   4.945   0.262   4.811
 7209TIP3    H121512   4.862   0.312   4.793
 7209TIP3    H221513   4.985   0.259   4.723
 7210TIP3   OH221514   4.899   0.054   4.529
 7210TIP3    H121515   4.976   0.097   4.572
 7210TIP3    H221516   4.944  -0.019   4.482
 7211TIP3   OH221517   5.849   0.505   5.399
 7211TIP3    H121518   5.766   0.556   5.405
 7211TIP3    H221519   5.878   0.529   5.308
 7212TIP3   OH221520   5.295   0.343   4.783
 7212TIP3    H121521   5.237   0.369   4.858
 7212TIP3    H221522   5.375   0.314   4.831
 7213TIP3   OH221523   5.524   0.398   5.683
 7213TIP3    H121524   5.534   0.469   5.749
 7213TIP3    H221525   5.443   0.426   5.636
 7214TIP3   OH221526   4.527   0.343   5.200
 7214TIP3    H121527   4.483   0.285   5.134
 7214TIP3    H221528   4.600   0.286   5.231
 7215TIP3   OH221529   4.653   0.751   5.350
 7215TIP3    H121530   4.635   0.714   5.262
 7215TIP3    H221531   4.744   0.717   5.367
 7216TIP3   OH221532   4.653   0.314   5.560
 7216TIP3    H121533   4.687   0.285   5.472
 7216TIP3    H221534   4.704   0.398   5.574
 7217TIP3   OH221535   5.186   0.951   5.331
 7217TIP3    H121536   5.173   1.032   5.385
 7217TIP3    H221537   5.171   0.879   5.395
 7218TIP3   OH221538   4.800   0.870   5.881
 7218TIP3    H121539   4.739   0.934   5.925
 7218TIP3    H221540   4.737   0.818   5.829
 7219TIP3   OH221541   5.141   0.187   4.612
 7219TIP3    H121542   5.196   0.251   4.664
 7219TIP3    H221543   5.164   0.213   4.520
 7220TIP3   OH221544   4.546   0.421   5.993
 7220TIP3    H121545   4.556   0.511   6.032
 7220TIP3    H221546   4.457   0.428   5.955
 7221TIP3   OH221547   4.877   0.881   4.886
 7221TIP3    H121548   4.958   0.935   4.898
 7221TIP3    H221549   4.816   0.945   4.845
 7222TIP3   OH221550   4.593   1.037   5.965
 7222TIP3    H121551   4.559   1.040   5.874
 7222TIP3    H221552   4.513   1.015   6.017
 7223TIP3   OH221553   4.390   0.194   5.005
 7223TIP3    H121554   4.319   0.227   4.947
 7223TIP3    H221555   4.368   0.101   5.016
 7224TIP3   OH221556   5.448   0.810   4.206
 7224TIP3    H121557   5.456   0.907   4.191
 7224TIP3    H221558   5.541   0.782   4.194
 7225TIP3   OH221559   4.174   0.551   5.913
 7225TIP3    H121560   4.102   0.565   5.847
 7225TIP3    H221561   4.192   0.458   5.897
 7226TIP3   OH221562   4.026   0.762   5.546
 7226TIP3    H121563   4.122   0.762   5.535
 7226TIP3    H221564   4.013   0.845   5.596
 7227TIP3   OH221565   5.890   1.213   5.600
 7227TIP3    H121566   5.890   1.117   5.616
 7227TIP3    H221567   5.807   1.238   5.647
 7228TIP3   OH221568   4.997   1.000   5.736
 7228TIP3    H121569   4.995   1.093   5.768
 7228TIP3    H221570   4.926   0.960   5.790
 7229TIP3   OH221571   4.758   1.128   4.687
 7229TIP3    H121572   4.712   1.110   4.603
 7229TIP3    H221573   4.726   1.216   4.712
 7230TIP3   OH221574   4.196   0.977   5.071
 7230TIP3    H121575   4.243   0.968   5.157
 7230TIP3    H221576   4.139   0.898   5.074
 7231TIP3   OH221577   4.959   1.030   4.327
 7231TIP3    H121578   5.018   0.960   4.290
 7231TIP3    H221579   4.994   1.039   4.418
 7232TIP3   OH221580   5.010   1.078   4.597
 7232TIP3    H121581   4.922   1.087   4.639
 7232TIP3    H221582   5.061   1.040   4.669
 7233TIP3   OH221583   4.374   0.747   5.899
 7233TIP3    H121584   4.423   0.738   5.983
 7233TIP3    H221585   4.302   0.682   5.910
 7234TIP3   OH221586   5.436   0.196   5.844
 7234TIP3    H121587   5.485   0.218   5.927
 7234TIP3    H221588   5.471   0.265   5.784
 7235TIP3   OH221589   5.213   0.241   4.354
 7235TIP3    H121590   5.176   0.222   4.267
 7235TIP3    H221591   5.287   0.301   4.331
 7236TIP3   OH221592   4.720   0.090   5.702
 7236TIP3    H121593   4.688   0.121   5.787
 7236TIP3    H221594   4.703   0.167   5.644
 7237TIP3   OH221595   4.577   0.003   5.210
 7237TIP3    H121596   4.503  -0.052   5.243
 7237TIP3    H221597   4.601  -0.046   5.128
 7238TIP3   OH221598   5.089   0.068   4.942
 7238TIP3    H121599   5.035   0.140   4.903
 7238TIP3    H221600   5.134   0.032   4.864
 7239TIP3   OH221601   5.269   0.391   5.990
 7239TIP3    H121602   5.262   0.337   6.072
 7239TIP3    H221603   5.366   0.394   5.981
 7240TIP3   OH221604   5.240   0.088   5.185
 7240TIP3    H121605   5.183   0.120   5.112
 7240TIP3    H221606   5.271   0.004   5.147
 7241TIP3   OH221607   5.230   0.341   5.611
 7241TIP3    H121608   5.274   0.277   5.549
 7241TIP3    H221609   5.235   0.291   5.693
 7242TIP3   OH221610   4.348  -0.147   5.284
 7242TIP3    H121611   4.254  -0.129   5.261
 7242TIP3    H221612   4.352  -0.243   5.271
 7243TIP3   OH221613   4.637  -0.129   4.974
 7243TIP3    H121614   4.721  -0.153   4.934
 7243TIP3    H221615   4.575  -0.135   4.899
 7244TIP3   OH221616   4.460  -0.113   4.755
 7244TIP3    H121617   4.401  -0.162   4.695
 7244TIP3    H221618   4.520  -0.074   4.689
 7245TIP3   OH221619   5.582   1.564   5.700
 7245TIP3    H121620   5.581   1.589   5.606
 7245TIP3    H221621   5.662   1.610   5.732
 7246TIP3   OH221622   4.537   0.666   6.121
 7246TIP3    H121623   4.617   0.704   6.163
 7246TIP3    H221624   4.472   0.679   6.193
 7247TIP3   OH221625   5.006   0.132   5.380
 7247TIP3    H121626   5.069   0.083   5.325
 7247TIP3    H221627   5.005   0.079   5.461
 7248TIP3   OH221628   4.983   0.000   5.697
 7248TIP3    H121629   4.899   0.050   5.690
 7248TIP3    H221630   5.043   0.064   5.741
 7249TIP3   OH221631   4.716   0.414   4.761
 7249TIP3    H121632   4.644   0.348   4.749
 7249TIP3    H221633   4.696   0.448   4.852
 7250TIP3   OH221634   5.616   0.652   5.389
 7250TIP3    H121635   5.642   0.701   5.308
 7250TIP3    H221636   5.532   0.610   5.363
 7251TIP3   OH221637   5.106   0.729   5.759
 7251TIP3    H121638   5.151   0.714   5.843
 7251TIP3    H221639   5.078   0.822   5.765
 7252TIP3   OH221640   5.245  -0.049   4.722
 7252TIP3    H121641   5.339  -0.040   4.702
 7252TIP3    H221642   5.206   0.022   4.666
 7253TIP3   OH221643   4.411   0.435   5.434
 7253TIP3    H121644   4.444   0.416   5.343
 7253TIP3    H221645   4.456   0.365   5.483
 7254TIP3   OH221646   4.861   0.564   4.583
 7254TIP3    H121647   4.813   0.650   4.588
 7254TIP3    H221648   4.807   0.509   4.643
 7255TIP3   OH221649   4.303   0.283   6.062
 7255TIP3    H121650   4.255   0.315   6.140
 7255TIP3    H221651   4.226   0.261   6.004
 7256TIP3   OH221652   5.014   0.471   6.069
 7256TIP3    H121653   4.955   0.414   6.017
 7256TIP3    H221654   5.101   0.452   6.027
 7257TIP3   OH221655   5.273   0.991   5.657
 7257TIP3    H121656   5.177   0.994   5.668
 7257TIP3    H221657   5.302   1.045   5.733
 7258TIP3   OH221658   5.703   0.060   4.526
 7258TIP3    H121659   5.635   0.023   4.464
 7258TIP3    H221660   5.702   0.152   4.490
 7259TIP3   OH221661   5.904   0.922   5.644
 7259TIP3    H121662   5.806   0.916   5.636
 7259TIP3    H221663   5.929   0.893   5.553
 7260TIP3   OH221664   5.385   0.885   4.470
 7260TIP3    H121665   5.360   0.815   4.532
 7260TIP3    H221666   5.399   0.837   4.386
 7261TIP3   OH221667   5.380   0.515   5.307
 7261TIP3    H121668   5.287   0.488   5.319
 7261TIP3    H221669   5.416   0.434   5.265
 7262TIP3   OH221670   4.509   0.742   5.063
 7262TIP3    H121671   4.510   0.822   5.008
 7262TIP3    H221672   4.415   0.724   5.070
 7263TIP3   OH221673   4.074   0.041   4.766
 7263TIP3    H121674   4.121   0.125   4.785
 7263TIP3    H221675   3.998   0.049   4.827
 7264TIP3   OH221676   4.647   0.507   5.005
 7264TIP3    H121677   4.611   0.595   5.025
 7264TIP3    H221678   4.611   0.454   5.079
 7265TIP3   OH221679   4.779   1.084   5.530
 7265TIP3    H121680   4.819   1.157   5.479
 7265TIP3    H221681   4.857   1.050   5.577
 7266TIP3   OH221682   4.429   0.980   4.914
 7266TIP3    H121683   4.343   0.989   4.960
 7266TIP3    H221684   4.461   1.073   4.916
 7267TIP3   OH221685   5.165   0.720   5.490
 7267TIP3    H121686   5.155   0.715   5.588
 7267TIP3    H221687   5.248   0.671   5.478
 7268TIP3   OH221688   5.141   0.609   4.372
 7268TIP3    H121689   5.193   0.585   4.452
 7268TIP3    H221690   5.051   0.586   4.402
 7269TIP3   OH221691   5.414   1.252   5.540
 7269TIP3    H121692   5.334   1.197   5.530
 7269TIP3    H221693   5.400   1.317   5.468
 7270TIP3   OH221694   5.480   1.085   4.192
 7270TIP3    H121695   5.519   1.158   4.139
 7270TIP3    H221696   5.400   1.132   4.225
 7271TIP3   OH221697   5.302   0.542   4.586
 7271TIP3    H121698   5.292   0.478   4.659
 7271TIP3    H221699   5.400   0.542   4.575
 7272TIP3   OH221700   4.217   0.948   5.688
 7272TIP3    H121701   4.274   0.876   5.721
 7272TIP3    H221702   4.244   1.021   5.745
 7273TIP3   OH221703   4.507   0.592   4.371
 7273TIP3    H121704   4.521   0.499   4.344
 7273TIP3    H221705   4.488   0.581   4.467
 7274TIP3   OH221706   4.452   0.597   4.644
 7274TIP3    H121707   4.523   0.570   4.703
 7274TIP3    H221708   4.456   0.695   4.651
 7275TIP3   OH221709   4.184   0.288   4.845
 7275TIP3    H121710   4.120   0.335   4.903
 7275TIP3    H221711   4.200   0.358   4.779
 7276TIP3   OH221712   4.718   0.794   4.592
 7276TIP3    H121713   4.632   0.820   4.628
 7276TIP3    H221714   4.735   0.868   4.532
 7277TIP3   OH221715   4.933  -0.150   5.008
 7277TIP3    H121716   4.973  -0.062   4.991
 7277TIP3    H221717   4.884  -0.135   5.090
 7278TIP3   OH221718   5.161   0.165   5.844
 7278TIP3    H121719   5.184   0.243   5.898
 7278TIP3    H221720   5.251   0.128   5.832
 7279TIP3   OH221721   4.462   0.870   4.661
 7279TIP3    H121722   4.432   0.940   4.598
 7279TIP3    H221723   4.446   0.913   4.747
 7280TIP3   OH221724   5.466   0.278   5.180
 7280TIP3    H121725   5.394   0.218   5.206
 7280TIP3    H221726   5.542   0.238   5.229
 7281TIP3   OH221727   4.180   0.500   4.652
 7281TIP3    H121728   4.247   0.569   4.661
 7281TIP3    H221729   4.225   0.444   4.585
 7282TIP3   OH221730   4.094  -0.252   4.773
 7282TIP3    H121731   4.143  -0.167   4.771
 7282TIP3    H221732   4.014  -0.225   4.819
 7283TIP3   OH221733   5.435   1.227   5.132
 7283TIP3    H121734   5.393   1.274   5.056
 7283TIP3    H221735   5.530   1.246   5.112
 7284TIP3   OH221736   4.050   0.714   5.039
 7284TIP3    H121737   3.981   0.744   5.100
 7284TIP3    H221738   4.020   0.755   4.955
 7285TIP3   OH221739   4.208   1.258   6.112
 7285TIP3    H121740   4.294   1.258   6.160
 7285TIP3    H221741   4.186   1.163   6.112
 7286TIP3   OH221742   4.688   1.216   6.160
 7286TIP3    H121743   4.784   1.205   6.162
 7286TIP3    H221744   4.664   1.159   6.084
 7287TIP3   OH221745   4.670   0.796   4.283
 7287TIP3    H121746   4.614   0.724   4.322
 7287TIP3    H221747   4.745   0.744   4.251
 7288TIP3   OH221748   5.326   1.128   5.891
 7288TIP3    H121749   5.320   1.057   5.959
 7288TIP3    H221750   5.405   1.178   5.919
 7289TIP3   OH221751   5.106   0.836   4.195
 7289TIP3    H121752   5.153   0.775   4.254
 7289TIP3    H221753   5.161   0.836   4.115
 7290TIP3   OH221754   4.338   0.671   6.311
 7290TIP3    H121755   4.338   0.583   6.351
 7290TIP3    H221756   4.250   0.674   6.267
 7291TIP3   OH221757   4.315   0.312   4.506
 7291TIP3    H121758   4.370   0.278   4.579
 7291TIP3    H221759   4.383   0.317   4.435
 7292TIP3   OH221760   4.943   0.744   6.088
 7292TIP3    H121761   4.910   0.766   5.999
 7292TIP3    H221762   4.979   0.654   6.076
 7293TIP3   OH221763   4.826   0.514   4.313
 7293TIP3    H121764   4.827   0.526   4.410
 7293TIP3    H221765   4.826   0.416   4.308
 7294TIP3   OH221766   5.431   0.760   5.680
 7294TIP3    H121767   5.511   0.799   5.639
 7294TIP3    H221768   5.367   0.833   5.667
 7295TIP3   OH221769   4.508   0.342   6.290
 7295TIP3    H121770   4.603   0.330   6.313
 7295TIP3    H221771   4.478   0.394   6.367
 7296TIP3   OH221772   4.523   0.217   4.727
 7296TIP3    H121773   4.498   0.176   4.812
 7296TIP3    H221774   4.559   0.140   4.678
 7297TIP3   OH221775   4.798   0.314   5.940
 7297TIP3    H121776   4.717   0.371   5.938
 7297TIP3    H221777   4.848   0.346   5.860
 7298TIP3   OH221778   4.623   0.010   4.569
 7298TIP3    H121779   4.597   0.015   4.475
 7298TIP3    H221780   4.721   0.016   4.561
 7299TIP3   OH221781   5.316   0.686   6.090
 7299TIP3    H121782   5.390   0.660   6.033
 7299TIP3    H221783   5.316   0.614   6.156
 7300TIP3   OH221784   5.450   0.338   4.231
 7300TIP3    H121785   5.426   0.296   4.146
 7300TIP3    H221786   5.419   0.430   4.212
 7301TIP3   OH221787   4.791   0.080   6.069
 7301TIP3    H121788   4.883   0.053   6.093
 7301TIP3    H221789   4.804   0.162   6.018
 7302TIP3   OH221790   4.961   0.398   5.744
 7302TIP3    H121791   5.046   0.399   5.697
 7302TIP3    H221792   4.911   0.467   5.697
 7303TIP3   OH221793   5.560   0.626   5.878
 7303TIP3    H121794   5.506   0.676   5.813
 7303TIP3    H221795   5.650   0.640   5.842
 7304TIP3   OH221796   4.758   0.219   6.317
 7304TIP3    H121797   4.708   0.138   6.333
 7304TIP3    H221798   4.803   0.192   6.235
 7305TIP3   OH221799   5.226   0.227   6.197
 7305TIP3    H121800   5.217   0.208   6.293
 7305TIP3    H221801   5.284   0.152   6.170
 7306TIP3   OH221802   4.432   1.072   4.473
 7306TIP3    H121803   4.527   1.067   4.454
 7306TIP3    H221804   4.403   1.122   4.394
 7307TIP3   OH221805   3.911   0.455   4.688
 7307TIP3    H121806   4.006   0.477   4.675
 7307TIP3    H221807   3.906   0.366   4.647
 7308TIP3   OH221808   3.827   1.067   5.102
 7308TIP3    H121809   3.760   1.006   5.066
 7308TIP3    H221810   3.871   1.008   5.168
 7309TIP3   OH221811   3.962   0.916   5.289
 7309TIP3    H121812   3.947   0.845   5.353
 7309TIP3    H221813   4.013   0.979   5.344
 7310TIP3   OH221814   5.688   1.319   5.090
 7310TIP3    H121815   5.716   1.350   5.178
 7310TIP3    H221816   5.753   1.361   5.032
 7311TIP3   OH221817   5.718   1.338   5.372
 7311TIP3    H121818   5.676   1.250   5.368
 7311TIP3    H221819   5.793   1.317   5.429
 7312TIP3   OH221820   5.765   1.016   5.944
 7312TIP3    H121821   5.693   1.025   6.009
 7312TIP3    H221822   5.808   1.104   5.949
 7313TIP3   OH221823   5.583   0.524   4.561
 7313TIP3    H121824   5.648   0.592   4.533
 7313TIP3    H221825   5.626   0.490   4.642
 7314TIP3   OH221826   5.704   0.393   4.768
 7314TIP3    H121827   5.646   0.352   4.835
 7314TIP3    H221828   5.777   0.431   4.822
 7315TIP3   OH221829   5.761   0.787   5.197
 7315TIP3    H121830   5.818   0.722   5.150
 7315TIP3    H221831   5.758   0.861   5.134
 7316TIP3   OH221832   5.593   1.087   5.394
 7316TIP3    H121833   5.522   1.129   5.446
 7316TIP3    H221834   5.543   1.040   5.324
 7317TIP3   OH221835   5.645   0.297   4.416
 7317TIP3    H121836   5.575   0.307   4.347
 7317TIP3    H221837   5.622   0.374   4.473
 7318TIP3   OH221838   5.517  -0.029   4.359
 7318TIP3    H121839   5.475   0.043   4.311
 7318TIP3    H221840   5.477  -0.106   4.316
 7319TIP3   OH221841   5.523   0.227   4.921
 7319TIP3    H121842   5.552   0.146   4.966
 7319TIP3    H221843   5.500   0.278   5.001
 7320TIP3   OH221844   4.150   0.313   5.665
 7320TIP3    H121845   4.144   0.287   5.571
 7320TIP3    H221846   4.246   0.327   5.674
 7321TIP3   OH221847   5.814   0.672   5.773
 7321TIP3    H121848   5.879   0.599   5.760
 7321TIP3    H221849   5.845   0.739   5.710
 7322TIP3   OH221850   5.986   0.457   5.787
 7322TIP3    H121851   5.933   0.393   5.838
 7322TIP3    H221852   6.075   0.430   5.813
 7323TIP3   OH221853   5.549  -0.045   4.748
 7323TIP3    H121854   5.556  -0.079   4.842
 7323TIP3    H221855   5.522   0.048   4.765
 7324TIP3   OH221856   5.682   0.172   5.305
 7324TIP3    H121857   5.773   0.184   5.270
 7324TIP3    H221858   5.698   0.192   5.399
 7325TIP3   OH221859   5.748   0.292   5.550
 7325TIP3    H121860   5.669   0.330   5.594
 7325TIP3    H221861   5.781   0.369   5.499
 7326TIP3   OH221862   4.139  -0.011   5.740
 7326TIP3    H121863   4.186  -0.035   5.658
 7326TIP3    H221864   4.166   0.081   5.750
 7327TIP3   OH221865   5.272   1.185   4.746
 7327TIP3    H121866   5.324   1.172   4.664
 7327TIP3    H221867   5.325   1.251   4.794
 7328TIP3   OH221868   4.375   0.978   6.132
 7328TIP3    H121869   4.280   0.962   6.116
 7328TIP3    H221870   4.379   0.977   6.228
 7329TIP3   OH221871   4.553   1.022   5.679
 7329TIP3    H121872   4.504   1.098   5.640
 7329TIP3    H221873   4.638   1.036   5.634
 7330TIP3   OH221874   4.996   1.266   5.817
 7330TIP3    H121875   5.039   1.267   5.905
 7330TIP3    H221876   5.062   1.317   5.764
 7331TIP3   OH221877   5.176   1.417   5.677
 7331TIP3    H121878   5.247   1.368   5.634
 7331TIP3    H221879   5.227   1.475   5.737
 7332TIP3   OH221880   4.228   1.276   5.705
 7332TIP3    H121881   4.138   1.309   5.680
 7332TIP3    H221882   4.239   1.321   5.790
 7333TIP3   OH221883   4.464   1.256   5.561
 7333TIP3    H121884   4.377   1.269   5.605
 7333TIP3    H221885   4.445   1.289   5.471
 7334TIP3   OH221886   4.889   1.285   5.359
 7334TIP3    H121887   4.821   1.305   5.293
 7334TIP3    H221888   4.903   1.372   5.401
 7335TIP3   OH221889   5.159   1.224   5.411
 7335TIP3    H121890   5.065   1.242   5.391
 7335TIP3    H221891   5.203   1.299   5.368
 7336TIP3   OH221892   5.365   1.416   5.325
 7336TIP3    H121893   5.352   1.501   5.278
 7336TIP3    H221894   5.392   1.356   5.252
 7337TIP3   OH221895   4.140   1.072   5.446
 7337TIP3    H121896   4.165   1.046   5.537
 7337TIP3    H221897   4.212   1.029   5.396
 7338TIP3   OH221898   4.334   0.943   5.305
 7338TIP3    H121899   4.350   0.859   5.355
 7338TIP3    H221900   4.424   0.980   5.301
 7339TIP3   OH221901   4.599   1.038   5.309
 7339TIP3    H121902   4.632   0.947   5.296
 7339TIP3    H221903   4.645   1.060   5.392
 7340TIP3   OH221904   3.928   0.844   4.838
 7340TIP3    H121905   3.842   0.811   4.805
 7340TIP3    H221906   3.917   0.939   4.819
 7341TIP3   OH221907   4.700   1.031   4.421
 7341TIP3    H121908   4.788   1.054   4.385
 7341TIP3    H221909   4.677   0.956   4.361
 7342TIP3   OH221910   5.418   1.151   4.514
 7342TIP3    H121911   5.410   1.054   4.502
 7342TIP3    H221912   5.374   1.184   4.433
 7343TIP3   OH221913   4.003   0.868   4.477
 7343TIP3    H121914   4.003   0.892   4.570
 7343TIP3    H221915   4.091   0.827   4.465
 7344TIP3   OH221916   5.644   1.295   5.701
 7344TIP3    H121917   5.565   1.265   5.652
 7344TIP3    H221918   5.625   1.391   5.706
 7345TIP3   OH221919   6.913   0.666   4.464
 7345TIP3    H121920   6.886   0.758   4.448
 7345TIP3    H221921   6.831   0.620   4.440
 7346TIP3   OH221922   6.902   0.665   4.847
 7346TIP3    H121923   6.936   0.648   4.937
 7346TIP3    H221924   6.863   0.579   4.826
 7347TIP3   OH221925   6.206   0.566   5.214
 7347TIP3    H121926   6.239   0.499   5.278
 7347TIP3    H221927   6.285   0.620   5.204
 7348TIP3   OH221928   7.153   0.970   4.533
 7348TIP3    H121929   7.144   0.902   4.602
 7348TIP3    H221930   7.186   1.046   4.584
 7349TIP3   OH221931   6.180   0.969   4.936
 7349TIP3    H121932   6.172   0.872   4.939
 7349TIP3    H221933   6.277   0.979   4.933
 7350TIP3   OH221934   5.871   0.155   4.732
 7350TIP3    H121935   5.874   0.245   4.770
 7350TIP3    H221936   5.805   0.169   4.662
 7351TIP3   OH221937   5.949   0.452   4.883
 7351TIP3    H121938   6.002   0.384   4.931
 7351TIP3    H221939   6.018   0.504   4.841
 7352TIP3   OH221940   6.803   1.430   4.548
 7352TIP3    H121941   6.847   1.360   4.496
 7352TIP3    H221942   6.803   1.391   4.636
 7353TIP3   OH221943   6.709   0.892   4.898
 7353TIP3    H121944   6.749   0.814   4.855
 7353TIP3    H221945   6.792   0.939   4.922
 7354TIP3   OH221946   7.123   0.408   4.931
 7354TIP3    H121947   7.155   0.327   4.973
 7354TIP3    H221948   7.095   0.377   4.842
 7355TIP3   OH221949   6.095   0.255   5.000
 7355TIP3    H121950   6.176   0.233   5.053
 7355TIP3    H221951   6.116   0.200   4.922
 7356TIP3   OH221952   6.535   0.456   4.801
 7356TIP3    H121953   6.627   0.426   4.812
 7356TIP3    H221954   6.491   0.374   4.769
 7357TIP3   OH221955   7.773   0.381   5.084
 7357TIP3    H121956   7.734   0.468   5.059
 7357TIP3    H221957   7.821   0.408   5.165
 7358TIP3   OH221958   6.802   0.889   4.335
 7358TIP3    H121959   6.759   0.872   4.250
 7358TIP3    H221960   6.758   0.972   4.362
 7359TIP3   OH221961   6.561   0.812   5.122
 7359TIP3    H121962   6.501   0.879   5.161
 7359TIP3    H221963   6.605   0.863   5.051
 7360TIP3   OH221964   6.332   0.163   5.091
 7360TIP3    H121965   6.394   0.228   5.130
 7360TIP3    H221966   6.387   0.118   5.026
 7361TIP3   OH221967   6.389   1.007   5.220
 7361TIP3    H121968   6.364   1.094   5.184
 7361TIP3    H221969   6.311   0.991   5.278
 7362TIP3   OH221970   5.782   0.697   4.458
 7362TIP3    H121971   5.745   0.726   4.373
 7362TIP3    H221972   5.815   0.782   4.495
 7363TIP3   OH221973   7.219   1.214   4.693
 7363TIP3    H121974   7.130   1.205   4.733
 7363TIP3    H221975   7.213   1.303   4.653
 7364TIP3   OH221976   6.922   1.258   4.367
 7364TIP3    H121977   6.974   1.176   4.350
 7364TIP3    H221978   6.984   1.324   4.328
 7365TIP3   OH221979   7.068   1.043   4.281
 7365TIP3    H121980   7.026   0.963   4.246
 7365TIP3    H221981   7.105   1.010   4.366
 7366TIP3   OH221982   7.452   1.129   5.047
 7366TIP3    H121983   7.435   1.052   4.988
 7366TIP3    H221984   7.436   1.203   4.986
 7367TIP3   OH221985   6.739   0.516   4.295
 7367TIP3    H121986   6.659   0.569   4.277
 7367TIP3    H221987   6.784   0.519   4.209
 7368TIP3   OH221988   6.694   0.312   4.011
 7368TIP3    H121989   6.774   0.348   4.054
 7368TIP3    H221990   6.717   0.219   3.993
 7369TIP3   OH221991   7.088   0.595   4.268
 7369TIP3    H121992   7.034   0.623   4.345
 7369TIP3    H221993   7.171   0.570   4.313
 7370TIP3   OH221994   7.301   0.638   5.188
 7370TIP3    H121995   7.338   0.723   5.215
 7370TIP3    H221996   7.263   0.660   5.102
 7371TIP3   OH221997   6.324   0.599   4.688
 7371TIP3    H121998   6.283   0.540   4.620
 7371TIP3    H221999   6.399   0.544   4.719
 7372TIP3   OH222000   6.451   1.010   4.835
 7372TIP3    H122001   6.433   0.969   4.750
 7372TIP3    H222002   6.541   0.977   4.856
 7373TIP3   OH222003   6.454   0.569   5.043
 7373TIP3    H122004   6.490   0.543   4.955
 7373TIP3    H222005   6.503   0.652   5.062
 7374TIP3   OH222006   6.978   1.209   4.817
 7374TIP3    H122007   6.971   1.288   4.874
 7374TIP3    H222008   6.967   1.135   4.880
 7375TIP3   OH222009   6.596   1.129   5.363
 7375TIP3    H122010   6.537   1.189   5.412
 7375TIP3    H222011   6.530   1.074   5.316
 7376TIP3   OH222012   6.939   0.436   4.099
 7376TIP3    H122013   6.990   0.501   4.153
 7376TIP3    H222014   6.963   0.469   4.008
 7377TIP3   OH222015   6.343   0.694   5.460
 7377TIP3    H122016   6.348   0.778   5.511
 7377TIP3    H222017   6.250   0.669   5.475
 7378TIP3   OH222018   6.672   1.139   4.372
 7378TIP3    H122019   6.755   1.189   4.384
 7378TIP3    H222020   6.613   1.204   4.332
 7379TIP3   OH222021   6.389   1.294   5.452
 7379TIP3    H122022   6.354   1.293   5.361
 7379TIP3    H222023   6.309   1.274   5.506
 7380TIP3   OH222024   6.189   0.450   4.487
 7380TIP3    H122025   6.116   0.485   4.432
 7380TIP3    H222026   6.164   0.358   4.501
 7381TIP3   OH222027   7.244   1.068   3.693
 7381TIP3    H122028   7.252   1.165   3.678
 7381TIP3    H222029   7.337   1.039   3.681
 7382TIP3   OH222030   5.968   0.826   5.399
 7382TIP3    H122031   5.903   0.802   5.330
 7382TIP3    H222032   6.006   0.739   5.424
 7383TIP3   OH222033   5.824   1.018   5.031
 7383TIP3    H122034   5.920   1.012   5.022
 7383TIP3    H222035   5.815   1.096   5.087
 7384TIP3   OH222036   7.687   1.471   5.086
 7384TIP3    H122037   7.687   1.374   5.100
 7384TIP3    H222038   7.604   1.495   5.133
 7385TIP3   OH222039   6.791   1.259   5.220
 7385TIP3    H122040   6.790   1.350   5.255
 7385TIP3    H222041   6.722   1.216   5.276
 7386TIP3   OH222042   6.553   1.383   4.175
 7386TIP3    H122043   6.510   1.366   4.089
 7386TIP3    H222044   6.522   1.473   4.197
 7387TIP3   OH222045   5.991   1.234   4.559
 7387TIP3    H122046   6.041   1.225   4.644
 7387TIP3    H222047   5.936   1.155   4.562
 7388TIP3   OH222048   6.755   1.286   3.814
 7388TIP3    H122049   6.814   1.216   3.777
 7388TIP3    H222050   6.790   1.296   3.905
 7389TIP3   OH222051   6.805   1.334   4.084
 7389TIP3    H122052   6.717   1.342   4.128
 7389TIP3    H222053   6.859   1.298   4.156
 7390TIP3   OH222054   7.546   0.559   5.367
 7390TIP3    H122055   7.516   0.623   5.301
 7390TIP3    H222056   7.626   0.528   5.322
 7391TIP3   OH222057   6.173   1.010   5.387
 7391TIP3    H122058   6.224   0.993   5.469
 7391TIP3    H222059   6.100   0.945   5.395
 7392TIP3   OH222060   7.231   0.453   5.373
 7392TIP3    H122061   7.313   0.403   5.381
 7392TIP3    H222062   7.257   0.524   5.311
 7393TIP3   OH222063   7.019   0.501   3.851
 7393TIP3    H122064   6.966   0.486   3.770
 7393TIP3    H222065   7.082   0.567   3.819
 7394TIP3   OH222066   6.507   0.346   5.195
 7394TIP3    H122067   6.451   0.369   5.272
 7394TIP3    H222068   6.494   0.425   5.138
 7395TIP3   OH222069   6.374   0.261   4.695
 7395TIP3    H122070   6.301   0.208   4.731
 7395TIP3    H222071   6.398   0.209   4.615
 7396TIP3   OH222072   6.875   0.327   4.443
 7396TIP3    H122073   6.826   0.397   4.394
 7396TIP3    H222074   6.935   0.293   4.373
 7397TIP3   OH222075   7.049   0.651   5.477
 7397TIP3    H122076   7.048   0.598   5.560
 7397TIP3    H222077   7.144   0.654   5.460
 7398TIP3   OH222078   7.038   0.345   4.674
 7398TIP3    H122079   6.977   0.379   4.605
 7398TIP3    H222080   7.072   0.267   4.629
 7399TIP3   OH222081   6.321   0.389   5.395
 7399TIP3    H122082   6.359   0.438   5.470
 7399TIP3    H222083   6.293   0.306   5.436
 7400TIP3   OH222084   7.011   0.597   5.089
 7400TIP3    H122085   7.057   0.529   5.035
 7400TIP3    H222086   7.040   0.571   5.178
 7401TIP3   OH222087   6.146   0.112   4.769
 7401TIP3    H122088   6.050   0.120   4.749
 7401TIP3    H222089   6.165   0.021   4.746
 7402TIP3   OH222090   6.430   0.120   4.464
 7402TIP3    H122091   6.520   0.105   4.432
 7402TIP3    H222092   6.376   0.117   4.383
 7403TIP3   OH222093   6.252   0.142   4.238
 7403TIP3    H122094   6.189   0.098   4.179
 7403TIP3    H222095   6.313   0.181   4.173
 7404TIP3   OH222096   7.378   1.821   5.187
 7404TIP3    H122097   7.378   1.845   5.092
 7404TIP3    H222098   7.458   1.868   5.218
 7405TIP3   OH222099   6.334   0.932   5.609
 7405TIP3    H122100   6.416   0.960   5.655
 7405TIP3    H222101   6.271   0.932   5.683
 7406TIP3   OH222102   6.801   0.389   4.862
 7406TIP3    H122103   6.868   0.342   4.812
 7406TIP3    H222104   6.801   0.341   4.947
 7407TIP3   OH222105   6.775   0.263   5.182
 7407TIP3    H122106   6.691   0.313   5.179
 7407TIP3    H222107   6.834   0.325   5.229
 7408TIP3   OH222108   6.512   0.671   4.246
 7408TIP3    H122109   6.438   0.606   4.235
 7408TIP3    H222110   6.493   0.705   4.337
 7409TIP3   OH222111   7.391   0.928   4.882
 7409TIP3    H122112   7.440   0.954   4.802
 7409TIP3    H222113   7.321   0.870   4.846
 7410TIP3   OH222114   6.906   0.987   5.245
 7410TIP3    H122115   6.943   0.968   5.332
 7410TIP3    H222116   6.873   1.078   5.254
 7411TIP3   OH222117   7.042   0.225   4.250
 7411TIP3    H122118   7.140   0.225   4.242
 7411TIP3    H222119   7.016   0.296   4.189
 7412TIP3   OH222120   6.198   0.684   4.921
 7412TIP3    H122121   6.243   0.662   4.836
 7412TIP3    H222122   6.252   0.632   4.984
 7413TIP3   OH222123   6.657   0.820   4.068
 7413TIP3    H122124   6.609   0.906   4.073
 7413TIP3    H222125   6.603   0.766   4.129
 7414TIP3   OH222126   6.083   0.617   5.539
 7414TIP3    H122127   6.112   0.602   5.631
 7414TIP3    H222128   6.017   0.546   5.527
 7415TIP3   OH222129   6.802   0.734   5.559
 7415TIP3    H122130   6.739   0.676   5.513
 7415TIP3    H222131   6.887   0.711   5.515
 7416TIP3   OH222132   7.069   1.250   5.140
 7416TIP3    H122133   6.973   1.250   5.154
 7416TIP3    H222134   7.099   1.301   5.219
 7417TIP3   OH222135   7.494   0.324   4.045
 7417TIP3    H122136   7.433   0.272   3.991
 7417TIP3    H222137   7.487   0.412   4.001
 7418TIP3   OH222138   7.703   1.186   5.126
 7418TIP3    H122139   7.605   1.178   5.120
 7418TIP3    H222140   7.728   1.151   5.038
 7419TIP3   OH222141   7.179   1.142   3.957
 7419TIP3    H122142   7.157   1.071   4.019
 7419TIP3    H222143   7.194   1.094   3.873
 7420TIP3   OH222144   7.173   0.768   4.790
 7420TIP3    H122145   7.080   0.741   4.801
 7420TIP3    H222146   7.210   0.688   4.748
 7421TIP3   OH222147   6.306   0.998   4.548
 7421TIP3    H122148   6.307   1.079   4.494
 7421TIP3    H222149   6.211   0.983   4.558
 7422TIP3   OH222150   5.870   0.297   4.254
 7422TIP3    H122151   5.919   0.381   4.269
 7422TIP3    H222152   5.793   0.309   4.313
 7423TIP3   OH222153   6.441   0.762   4.490
 7423TIP3    H122154   6.407   0.851   4.511
 7423TIP3    H222155   6.409   0.711   4.566
 7424TIP3   OH222156   6.575   1.341   5.017
 7424TIP3    H122157   6.619   1.412   4.966
 7424TIP3    H222158   6.650   1.305   5.066
 7425TIP3   OH222159   6.224   1.238   4.400
 7425TIP3    H122160   6.139   1.246   4.446
 7425TIP3    H222161   6.256   1.330   4.403
 7426TIP3   OH222162   6.962   0.976   4.976
 7426TIP3    H122163   6.953   0.972   5.073
 7426TIP3    H222164   7.046   0.930   4.962
 7427TIP3   OH222165   6.937   0.865   3.860
 7427TIP3    H122166   6.991   0.842   3.939
 7427TIP3    H222167   6.848   0.843   3.891
 7428TIP3   OH222168   7.210   1.510   5.029
 7428TIP3    H122169   7.131   1.453   5.021
 7428TIP3    H222170   7.195   1.573   4.955
 7429TIP3   OH222171   7.277   1.343   3.678
 7429TIP3    H122172   7.315   1.415   3.626
 7429TIP3    H222173   7.197   1.388   3.712
 7430TIP3   OH222174   7.099   0.798   4.073
 7430TIP3    H122175   7.088   0.733   4.146
 7430TIP3    H222176   7.196   0.797   4.063
 7431TIP3   OH222177   6.013   1.203   5.177
 7431TIP3    H122178   6.067   1.129   5.208
 7431TIP3    H222179   6.041   1.273   5.237
 7432TIP3   OH222180   6.303   0.850   3.859
 7432TIP3    H122181   6.318   0.758   3.831
 7432TIP3    H222182   6.284   0.838   3.954
 7433TIP3   OH222183   6.248   0.853   4.132
 7433TIP3    H122184   6.322   0.828   4.190
 7433TIP3    H222185   6.251   0.951   4.138
 7434TIP3   OH222186   5.978   0.544   4.331
 7434TIP3    H122187   5.915   0.592   4.390
 7434TIP3    H222188   5.997   0.613   4.266
 7435TIP3   OH222189   6.514   1.050   4.079
 7435TIP3    H122190   6.427   1.077   4.115
 7435TIP3    H222191   6.532   1.124   4.019
 7436TIP3   OH222192   6.723   0.108   4.496
 7436TIP3    H122193   6.766   0.194   4.478
 7436TIP3    H222194   6.685   0.123   4.584
 7437TIP3   OH222195   6.958   0.415   5.337
 7437TIP3    H122196   6.964   0.500   5.385
 7437TIP3    H222197   7.052   0.391   5.337
 7438TIP3   OH222198   6.257   1.126   4.147
 7438TIP3    H122199   6.228   1.196   4.084
 7438TIP3    H222200   6.242   1.170   4.234
 7439TIP3   OH222201   7.266   0.529   4.668
 7439TIP3    H122202   7.194   0.469   4.692
 7439TIP3    H222203   7.341   0.491   4.720
 7440TIP3   OH222204   5.975   0.756   4.139
 7440TIP3    H122205   6.042   0.827   4.149
 7440TIP3    H222206   6.021   0.701   4.073
 7441TIP3   OH222207   5.907   0.011   4.273
 7441TIP3    H122208   5.947   0.100   4.275
 7441TIP3    H222209   5.813   0.034   4.269
 7442TIP3   OH222210   7.231   1.485   4.619
 7442TIP3    H122211   7.189   1.532   4.543
 7442TIP3    H222212   7.325   1.504   4.599
 7443TIP3   OH222213   5.845   0.968   4.526
 7443TIP3    H122214   5.777   1.001   4.586
 7443TIP3    H222215   5.818   1.010   4.441
 7444TIP3   OH222216   6.005   1.515   5.598
 7444TIP3    H122217   6.091   1.517   5.646
 7444TIP3    H222218   5.987   1.420   5.597
 7445TIP3   OH222219   6.483   1.479   5.640
 7445TIP3    H122220   6.577   1.460   5.653
 7445TIP3    H222221   6.461   1.417   5.568
 7446TIP3   OH222222   6.466   1.053   3.770
 7446TIP3    H122223   6.412   0.981   3.808
 7446TIP3    H222224   6.542   1.002   3.736
 7447TIP3   OH222225   7.123   1.383   5.376
 7447TIP3    H122226   7.115   1.314   5.445
 7447TIP3    H222227   7.201   1.433   5.406
 7448TIP3   OH222228   6.902   1.093   3.682
 7448TIP3    H122229   6.950   1.032   3.741
 7448TIP3    H222230   6.957   1.094   3.601
 7449TIP3   OH222231   6.134   0.918   5.799
 7449TIP3    H122232   6.150   0.823   5.808
 7449TIP3    H222233   6.047   0.920   5.754
 7450TIP3   OH222234   6.111   0.568   3.995
 7450TIP3    H122235   6.169   0.538   4.067
 7450TIP3    H222236   6.177   0.575   3.922
 7451TIP3   OH222237   6.741   1.006   5.573
 7451TIP3    H122238   6.704   1.021   5.484
 7451TIP3    H222239   6.773   0.913   5.568
 7452TIP3   OH222240   6.620   0.766   3.799
 7452TIP3    H122241   6.624   0.778   3.896
 7452TIP3    H222242   6.624   0.668   3.793
 7453TIP3   OH222243   7.233   1.014   5.180
 7453TIP3    H122244   7.309   1.052   5.133
 7453TIP3    H222245   7.166   1.084   5.164
 7454TIP3   OH222246   6.245   0.641   5.784
 7454TIP3    H122247   6.324   0.591   5.760
 7454TIP3    H222248   6.273   0.676   5.871
 7455TIP3   OH222249   6.316   0.473   4.212
 7455TIP3    H122250   6.295   0.437   4.300
 7455TIP3    H222251   6.353   0.396   4.166
 7456TIP3   OH222252   6.595   0.583   5.431
 7456TIP3    H122253   6.510   0.633   5.425
 7456TIP3    H222254   6.641   0.609   5.347
 7457TIP3   OH222255   6.418   0.265   4.055
 7457TIP3    H122256   6.389   0.274   3.962
 7457TIP3    H222257   6.515   0.279   4.046
 7458TIP3   OH222258   7.108   0.945   5.578
 7458TIP3    H122259   7.185   0.915   5.528
 7458TIP3    H222260   7.102   0.878   5.649
 7459TIP3   OH222261   7.251   0.597   3.708
 7459TIP3    H122262   7.211   0.552   3.631
 7459TIP3    H222263   7.218   0.689   3.691
 7460TIP3   OH222264   6.599   0.347   5.555
 7460TIP3    H122265   6.689   0.312   5.545
 7460TIP3    H222266   6.603   0.432   5.505
 7461TIP3   OH222267   6.757   0.649   5.225
 7461TIP3    H122268   6.842   0.652   5.177
 7461TIP3    H222269   6.705   0.720   5.183
 7462TIP3   OH222270   7.331   0.627   5.636
 7462TIP3    H122271   7.371   0.541   5.622
 7462TIP3    H222272   7.392   0.685   5.589
 7463TIP3   OH222273   7.366   0.872   5.370
 7463TIP3    H122274   7.307   0.921   5.309
 7463TIP3    H222275   7.454   0.895   5.332
 7464TIP3   OH222276   6.563   0.464   5.806
 7464TIP3    H122277   6.493   0.397   5.817
 7464TIP3    H222278   6.596   0.435   5.720
 7465TIP3   OH222279   7.027   0.483   5.685
 7465TIP3    H122280   7.004   0.465   5.777
 7465TIP3    H222281   7.072   0.399   5.658
 7466TIP3   OH222282   6.228   1.328   3.960
 7466TIP3    H122283   6.323   1.323   3.941
 7466TIP3    H222284   6.199   1.378   3.881
 7467TIP3   OH222285   5.707   0.710   4.177
 7467TIP3    H122286   5.802   0.733   4.162
 7467TIP3    H222287   5.703   0.622   4.135
 7468TIP3   OH222288   5.622   1.323   4.591
 7468TIP3    H122289   5.555   1.261   4.554
 7468TIP3    H222290   5.667   1.265   4.656
 7469TIP3   OH222291   5.758   1.172   4.777
 7469TIP3    H122292   5.747   1.101   4.841
 7469TIP3    H222293   5.810   1.235   4.830
 7470TIP3   OH222294   7.483   1.579   4.576
 7470TIP3    H122295   7.512   1.608   4.664
 7470TIP3    H222296   7.550   1.617   4.518
 7471TIP3   OH222297   7.513   1.595   4.859
 7471TIP3    H122298   7.470   1.507   4.855
 7471TIP3    H222299   7.590   1.573   4.914
 7472TIP3   OH222300   7.560   1.272   5.432
 7472TIP3    H122301   7.488   1.280   5.497
 7472TIP3    H222302   7.602   1.360   5.436
 7473TIP3   OH222303   7.381   0.778   4.046
 7473TIP3    H122304   7.445   0.847   4.020
 7473TIP3    H222305   7.423   0.744   4.128
 7474TIP3   OH222306   7.505   0.646   4.253
 7474TIP3    H122307   7.441   0.609   4.317
 7474TIP3    H222308   7.573   0.686   4.311
 7475TIP3   OH222309   7.559   1.041   4.689
 7475TIP3    H122310   7.619   0.975   4.648
 7475TIP3    H222311   7.553   1.109   4.620
 7476TIP3   OH222312   7.390   1.344   4.880
 7476TIP3    H122313   7.317   1.382   4.932
 7476TIP3    H222314   7.343   1.293   4.811
 7477TIP3   OH222315   7.432   0.546   3.900
 7477TIP3    H122316   7.369   0.567   3.827
 7477TIP3    H222317   7.415   0.624   3.958
 7478TIP3   OH222318   7.299   0.242   3.849
 7478TIP3    H122319   7.303   0.338   3.868
 7478TIP3    H222320   7.287   0.247   3.751
 7479TIP3   OH222321   7.318   0.502   4.404
 7479TIP3    H122322   7.340   0.410   4.422
 7479TIP3    H222323   7.300   0.534   4.496
 7480TIP3   OH222324   5.944   0.583   5.145
 7480TIP3    H122325   5.946   0.553   5.052
 7480TIP3    H222326   6.041   0.585   5.165
 7481TIP3   OH222327   7.613   0.931   5.260
 7481TIP3    H122328   7.639   0.854   5.205
 7481TIP3    H222329   7.618   1.003   5.195
 7482TIP3   OH222330   7.809   0.718   5.367
 7482TIP3    H122331   7.733   0.702   5.309
 7482TIP3    H222332   7.880   0.691   5.308
 7483TIP3   OH222333   7.312   0.200   4.226
 7483TIP3    H122334   7.348   0.172   4.313
 7483TIP3    H222335   7.383   0.261   4.196
 7484TIP3   OH222336   7.482   0.437   4.809
 7484TIP3    H122337   7.570   0.439   4.765
 7484TIP3    H222338   7.501   0.489   4.889
 7485TIP3   OH222339   5.932   0.240   5.222
 7485TIP3    H122340   5.986   0.237   5.141
 7485TIP3    H222341   5.962   0.321   5.263
 7486TIP3   OH222342   7.067   1.443   4.233
 7486TIP3    H122343   7.119   1.430   4.151
 7486TIP3    H222344   7.121   1.507   4.281
 7487TIP3   OH222345   6.169   1.247   5.617
 7487TIP3    H122346   6.077   1.218   5.604
 7487TIP3    H222347   6.183   1.227   5.711
 7488TIP3   OH222348   6.347   1.278   5.165
 7488TIP3    H122349   6.302   1.356   5.126
 7488TIP3    H222350   6.435   1.290   5.122
 7489TIP3   OH222351   6.791   1.525   5.303
 7489TIP3    H122352   6.834   1.522   5.392
 7489TIP3    H222353   6.859   1.574   5.252
 7490TIP3   OH222354   6.971   1.676   5.161
 7490TIP3    H122355   7.043   1.624   5.121
 7490TIP3    H222356   7.023   1.732   5.223
 7491TIP3   OH222357   6.024   1.537   5.187
 7491TIP3    H122358   5.933   1.570   5.168
 7491TIP3    H222359   6.036   1.570   5.277
 7492TIP3   OH222360   6.261   1.516   5.049
 7492TIP3    H122361   6.174   1.527   5.093
 7492TIP3    H222362   6.240   1.544   4.958
 7493TIP3   OH222363   6.686   1.542   4.846
 7493TIP3    H122364   6.619   1.563   4.779
 7493TIP3    H222365   6.701   1.629   4.889
 7494TIP3   OH222366   6.956   1.481   4.898
 7494TIP3    H122367   6.863   1.499   4.877
 7494TIP3    H222368   7.001   1.555   4.855
 7495TIP3   OH222369   7.159   1.672   4.811
 7495TIP3    H122370   7.148   1.757   4.763
 7495TIP3    H222371   7.188   1.612   4.739
 7496TIP3   OH222372   5.936   1.328   4.935
 7496TIP3    H122373   5.962   1.302   5.025
 7496TIP3    H222374   6.008   1.284   4.884
 7497TIP3   OH222375   6.130   1.200   4.792
 7497TIP3    H122376   6.146   1.115   4.840
 7497TIP3    H222377   6.221   1.236   4.789
 7498TIP3   OH222378   6.397   1.295   4.797
 7498TIP3    H122379   6.427   1.203   4.783
 7498TIP3    H222380   6.444   1.315   4.880
 7499TIP3   OH222381   5.723   1.101   4.326
 7499TIP3    H122382   5.638   1.069   4.292
 7499TIP3    H222383   5.714   1.196   4.305
 7500TIP3   OH222384   6.496   1.288   3.909
 7500TIP3    H122385   6.584   1.311   3.873
 7500TIP3    H222386   6.474   1.214   3.849
 7501TIP3   OH222387   7.214   1.408   4.001
 7501TIP3    H122388   7.205   1.311   3.988
 7501TIP3    H222389   7.170   1.441   3.920
 7502TIP3   OH222390   5.799   1.122   3.964
 7502TIP3    H122391   5.804   1.150   4.056
 7502TIP3    H222392   5.887   1.081   3.949
 7503TIP3   OH222393   7.440   1.552   5.189
 7503TIP3    H122394   7.361   1.521   5.140
 7503TIP3    H222395   7.421   1.648   5.193
 7504TIP3   OH222396   8.709   0.924   3.944
 7504TIP3    H122397   8.685   1.019   3.941
 7504TIP3    H222398   8.623   0.883   3.923
 7505TIP3   OH222399   8.697   0.916   4.336
 7505TIP3    H122400   8.735   0.903   4.425
 7505TIP3    H222401   8.654   0.830   4.321
 7506TIP3   OH222402   8.005   0.819   4.694
 7506TIP3    H122403   8.038   0.754   4.758
 7506TIP3    H222404   8.077   0.884   4.696
 7507TIP3   OH222405   8.953   1.223   4.017
 7507TIP3    H122406   8.943   1.156   4.087
 7507TIP3    H222407   8.974   1.302   4.070
 7508TIP3   OH222408   7.975   1.228   4.422
 7508TIP3    H122409   7.967   1.130   4.425
 7508TIP3    H222410   8.072   1.238   4.423
 7509TIP3   OH222411   7.680   0.417   4.221
 7509TIP3    H122412   7.638   0.503   4.239
 7509TIP3    H222413   7.617   0.378   4.158
 7510TIP3   OH222414   7.745   0.711   4.373
 7510TIP3    H122415   7.796   0.639   4.417
 7510TIP3    H222416   7.814   0.755   4.321
 7511TIP3   OH222417   8.600   1.687   4.031
 7511TIP3    H122418   8.643   1.608   3.992
 7511TIP3    H222419   8.588   1.659   4.123
 7512TIP3   OH222420   8.509   1.149   4.387
 7512TIP3    H122421   8.552   1.073   4.343
 7512TIP3    H222422   8.589   1.196   4.419
 7513TIP3   OH222423   8.927   0.667   4.411
 7513TIP3    H122424   8.947   0.582   4.453
 7513TIP3    H222425   8.896   0.641   4.322
 7514TIP3   OH222426   7.893   0.510   4.489
 7514TIP3    H122427   7.972   0.484   4.541
 7514TIP3    H222428   7.910   0.457   4.409
 7515TIP3   OH222429   8.331   0.711   4.282
 7515TIP3    H122430   8.423   0.679   4.297
 7515TIP3    H222431   8.287   0.628   4.253
 7516TIP3   OH222432   8.619   1.166   3.807
 7516TIP3    H122433   8.560   1.127   3.740
 7516TIP3    H222434   8.563   1.239   3.840
 7517TIP3   OH222435   8.358   1.069   4.612
 7517TIP3    H122436   8.296   1.135   4.651
 7517TIP3    H222437   8.400   1.121   4.541
 7518TIP3   OH222438   8.133   0.411   4.582
 7518TIP3    H122439   8.190   0.484   4.615
 7518TIP3    H222440   8.178   0.385   4.501
 7519TIP3   OH222441   8.183   1.262   4.705
 7519TIP3    H122442   8.161   1.351   4.670
 7519TIP3    H222443   8.105   1.248   4.762
 7520TIP3   OH222444   7.580   0.954   3.945
 7520TIP3    H122445   7.540   0.984   3.861
 7520TIP3    H222446   7.612   1.039   3.982
 7521TIP3   OH222447   9.010   1.453   4.169
 7521TIP3    H122448   8.924   1.449   4.218
 7521TIP3    H222449   9.011   1.546   4.141
 7522TIP3   OH222450   8.721   1.500   3.863
 7522TIP3    H122451   8.784   1.428   3.846
 7522TIP3    H222452   8.773   1.577   3.831
 7523TIP3   OH222453   8.880   1.264   3.755
 7523TIP3    H122454   8.789   1.228   3.762
 7523TIP3    H222455   8.913   1.248   3.846
 7524TIP3   OH222456   8.530   0.777   3.787
 7524TIP3    H122457   8.448   0.827   3.765
 7524TIP3    H222458   8.574   0.771   3.700
 7525TIP3   OH222459   8.493   0.570   3.501
 7525TIP3    H122460   8.570   0.611   3.545
 7525TIP3    H222461   8.535   0.494   3.456
 7526TIP3   OH222462   8.898   0.852   3.767
 7526TIP3    H122463   8.827   0.879   3.830
 7526TIP3    H222464   8.974   0.857   3.826
 7527TIP3   OH222465   9.125   0.905   4.654
 7527TIP3    H122466   9.126   0.979   4.717
 7527TIP3    H222467   9.039   0.917   4.612
 7528TIP3   OH222468   8.121   0.855   4.172
 7528TIP3    H122469   8.080   0.797   4.105
 7528TIP3    H222470   8.196   0.799   4.203
 7529TIP3   OH222471   8.249   1.269   4.321
 7529TIP3    H122472   8.230   1.221   4.239
 7529TIP3    H222473   8.339   1.237   4.343
 7530TIP3   OH222474   8.262   0.821   4.530
 7530TIP3    H122475   8.292   0.802   4.439
 7530TIP3    H222476   8.302   0.909   4.548
 7531TIP3   OH222477   8.782   1.462   4.311
 7531TIP3    H122478   8.758   1.544   4.358
 7531TIP3    H222479   8.761   1.393   4.377
 7532TIP3   OH222480   8.390   1.373   4.861
 7532TIP3    H122481   8.334   1.442   4.901
 7532TIP3    H222482   8.324   1.326   4.807
 7533TIP3   OH222483   8.726   0.707   3.592
 7533TIP3    H122484   8.792   0.757   3.643
 7533TIP3    H222485   8.756   0.724   3.500
 7534TIP3   OH222486   8.136   0.947   4.946
 7534TIP3    H122487   8.142   1.032   4.995
 7534TIP3    H222488   8.042   0.925   4.961
 7535TIP3   OH222489   8.467   1.391   3.857
 7535TIP3    H122490   8.547   1.445   3.874
 7535TIP3    H222491   8.405   1.455   3.822
 7536TIP3   OH222492   8.185   1.553   4.938
 7536TIP3    H122493   8.152   1.552   4.847
 7536TIP3    H222494   8.105   1.531   4.990
 7537TIP3   OH222495   7.988   0.705   3.971
 7537TIP3    H122496   7.913   0.740   3.919
 7537TIP3    H222497   7.958   0.616   3.993
 7538TIP3   OH222498   7.764   1.078   4.885
 7538TIP3    H122499   7.696   1.057   4.819
 7538TIP3    H222500   7.799   0.989   4.908
 7539TIP3   OH222501   7.619   1.279   4.510
 7539TIP3    H122502   7.715   1.265   4.508
 7539TIP3    H222503   7.612   1.352   4.573
 7540TIP3   OH222504   8.545   1.535   4.680
 7540TIP3    H122505   8.575   1.613   4.730
 7540TIP3    H222506   8.528   1.470   4.751
 7541TIP3   OH222507   8.352   1.643   3.660
 7541TIP3    H122508   8.303   1.625   3.577
 7541TIP3    H222509   8.318   1.731   3.686
 7542TIP3   OH222510   7.788   1.490   4.045
 7542TIP3    H122511   7.837   1.482   4.130
 7542TIP3    H222512   7.730   1.413   4.051
 7543TIP3   OH222513   8.554   1.544   3.301
 7543TIP3    H122514   8.616   1.475   3.269
 7543TIP3    H222515   8.584   1.555   3.394
 7544TIP3   OH222516   8.601   1.590   3.572
 7544TIP3    H122517   8.512   1.601   3.611
 7544TIP3    H222518   8.650   1.556   3.648
 7545TIP3   OH222519   7.968   1.264   4.873
 7545TIP3    H122520   8.018   1.248   4.955
 7545TIP3    H222521   7.895   1.199   4.881
 7546TIP3   OH222522   8.804   0.752   3.329
 7546TIP3    H122523   8.777   0.733   3.237
 7546TIP3    H222524   8.840   0.841   3.321
 7547TIP3   OH222525   8.305   0.599   4.682
 7547TIP3    H122526   8.249   0.624   4.758
 7547TIP3    H222527   8.294   0.679   4.625
 7548TIP3   OH222528   8.170   0.512   4.184
 7548TIP3    H122529   8.094   0.460   4.216
 7548TIP3    H222530   8.193   0.464   4.102
 7549TIP3   OH222531   8.678   0.582   3.904
 7549TIP3    H122532   8.612   0.653   3.885
 7549TIP3    H222533   8.728   0.586   3.822
 7550TIP3   OH222534   8.863   0.885   4.955
 7550TIP3    H122535   8.854   0.847   5.045
 7550TIP3    H222536   8.951   0.924   4.962
 7551TIP3   OH222537   8.818   0.592   4.167
 7551TIP3    H122538   8.775   0.644   4.098
 7551TIP3    H222539   8.852   0.518   4.115
 7552TIP3   OH222540   8.125   0.643   4.882
 7552TIP3    H122541   8.140   0.707   4.954
 7552TIP3    H222542   8.071   0.576   4.925
 7553TIP3   OH222543   8.823   0.857   4.574
 7553TIP3    H122544   8.867   0.785   4.522
 7553TIP3    H222545   8.824   0.819   4.663
 7554TIP3   OH222546   7.943   0.365   4.258
 7554TIP3    H122547   7.848   0.385   4.237
 7554TIP3    H222548   7.946   0.270   4.241
 7555TIP3   OH222549   8.228   0.380   3.948
 7555TIP3    H122550   8.313   0.360   3.907
 7555TIP3    H222551   8.167   0.376   3.872
 7556TIP3   OH222552   8.052   0.398   3.727
 7556TIP3    H122553   7.994   0.351   3.664
 7556TIP3    H222554   8.113   0.440   3.663
 7557TIP3   OH222555   9.167   2.081   4.668
 7557TIP3    H122556   9.170   2.102   4.573
 7557TIP3    H222557   9.235   2.141   4.702
 7558TIP3   OH222558   8.129   1.185   5.094
 7558TIP3    H122559   8.210   1.216   5.139
 7558TIP3    H222560   8.066   1.187   5.169
 7559TIP3   OH222561   8.597   0.646   4.350
 7559TIP3    H122562   8.668   0.602   4.300
 7559TIP3    H222563   8.595   0.594   4.432
 7560TIP3   OH222564   8.571   0.520   4.663
 7560TIP3    H122565   8.484   0.565   4.662
 7560TIP3    H222566   8.626   0.582   4.715
 7561TIP3   OH222567   8.306   0.928   3.734
 7561TIP3    H122568   8.234   0.863   3.722
 7561TIP3    H222569   8.287   0.962   3.825
 7562TIP3   OH222570   8.001   0.947   4.407
 7562TIP3    H122571   8.045   0.919   4.325
 7562TIP3    H222572   8.039   0.887   4.473
 7563TIP3   OH222573   8.453   1.077   3.556
 7563TIP3    H122574   8.406   1.164   3.561
 7563TIP3    H222575   8.397   1.023   3.616
 7564TIP3   OH222576   7.883   0.867   5.023
 7564TIP3    H122577   7.914   0.871   5.115
 7564TIP3    H222578   7.811   0.800   5.030
 7565TIP3   OH222579   8.608   0.978   5.046
 7565TIP3    H122580   8.537   0.927   5.002
 7565TIP3    H222581   8.684   0.961   4.987
 7566TIP3   OH222582   8.991   1.357   3.417
 7566TIP3    H122583   8.965   1.351   3.510
 7566TIP3    H222584   8.906   1.347   3.372
 7567TIP3   OH222585   8.942   1.032   4.249
 7567TIP3    H122586   8.856   0.995   4.276
 7567TIP3    H222587   9.003   0.962   4.277
 7568TIP3   OH222588   8.101   1.251   4.028
 7568TIP3    H122589   8.099   1.335   3.978
 7568TIP3    H222590   8.008   1.241   4.050
 7569TIP3   OH222591   7.660   0.556   3.734
 7569TIP3    H122592   7.712   0.638   3.752
 7569TIP3    H222593   7.587   0.567   3.797
 7570TIP3   OH222594   8.243   1.020   3.979
 7570TIP3    H122595   8.203   1.108   3.996
 7570TIP3    H222596   8.206   0.968   4.053
 7571TIP3   OH222597   8.362   1.599   4.494
 7571TIP3    H122598   8.413   1.670   4.452
 7571TIP3    H222599   8.430   1.565   4.558
 7572TIP3   OH222600   8.021   1.494   3.886
 7572TIP3    H122601   7.935   1.502   3.933
 7572TIP3    H222602   8.053   1.586   3.890
 7573TIP3   OH222603   8.765   1.241   4.482
 7573TIP3    H122604   8.800   1.261   4.572
 7573TIP3    H222605   8.840   1.189   4.448
 7574TIP3   OH222606   8.727   1.127   3.348
 7574TIP3    H122607   8.783   1.092   3.420
 7574TIP3    H222608   8.638   1.105   3.380
 7575TIP3   OH222609   8.997   1.757   4.511
 7575TIP3    H122610   8.910   1.716   4.495
 7575TIP3    H222611   8.995   1.826   4.441
 7576TIP3   OH222612   8.900   1.031   3.545
 7576TIP3    H122613   8.886   0.975   3.623
 7576TIP3    H222614   8.956   1.101   3.582
 7577TIP3   OH222615   7.808   1.459   4.664
 7577TIP3    H122616   7.861   1.386   4.697
 7577TIP3    H222617   7.838   1.531   4.721
 7578TIP3   OH222618   8.103   1.104   3.345
 7578TIP3    H122619   8.112   1.011   3.318
 7578TIP3    H222620   8.082   1.095   3.440
 7579TIP3   OH222621   8.045   1.110   3.616
 7579TIP3    H122622   8.113   1.084   3.681
 7579TIP3    H222623   8.047   1.208   3.624
 7580TIP3   OH222624   7.774   0.800   3.819
 7580TIP3    H122625   7.711   0.848   3.877
 7580TIP3    H222626   7.792   0.870   3.753
 7581TIP3   OH222627   8.312   1.308   3.565
 7581TIP3    H122628   8.225   1.332   3.602
 7581TIP3    H222629   8.327   1.383   3.506
 7582TIP3   OH222630   8.527   0.362   3.982
 7582TIP3    H122631   8.567   0.450   3.963
 7582TIP3    H222632   8.479   0.379   4.064
 7583TIP3   OH222633   8.753   0.667   4.820
 7583TIP3    H122634   8.785   0.745   4.869
 7583TIP3    H222635   8.834   0.626   4.788
 7584TIP3   OH222636   8.055   1.382   3.634
 7584TIP3    H122637   8.025   1.452   3.572
 7584TIP3    H222638   8.039   1.425   3.721
 7585TIP3   OH222639   7.771   1.012   3.627
 7585TIP3    H122640   7.835   1.085   3.636
 7585TIP3    H222641   7.819   0.959   3.559
 7586TIP3   OH222642   7.695   0.263   3.752
 7586TIP3    H122643   7.752   0.342   3.754
 7586TIP3    H222644   7.611   0.303   3.776
 7587TIP3   OH222645   9.046   1.741   4.117
 7587TIP3    H122646   9.008   1.792   4.041
 7587TIP3    H222647   9.124   1.698   4.076
 7588TIP3   OH222648   7.640   1.222   4.012
 7588TIP3    H122649   7.576   1.256   4.075
 7588TIP3    H222650   7.611   1.267   3.929
 7589TIP3   OH222651   7.800   1.770   5.086
 7589TIP3    H122652   7.887   1.770   5.132
 7589TIP3    H222653   7.781   1.675   5.084
 7590TIP3   OH222654   8.281   1.732   5.130
 7590TIP3    H122655   8.376   1.712   5.136
 7590TIP3    H222656   8.255   1.674   5.056
 7591TIP3   OH222657   8.263   1.310   3.257
 7591TIP3    H122658   8.206   1.239   3.295
 7591TIP3    H222659   8.336   1.257   3.222
 7592TIP3   OH222660   8.903   1.664   4.868
 7592TIP3    H122661   8.889   1.569   4.879
 7592TIP3    H222662   8.996   1.674   4.889
 7593TIP3   OH222663   8.709   1.348   3.185
 7593TIP3    H122664   8.732   1.260   3.223
 7593TIP3    H222665   8.741   1.343   3.093
 7594TIP3   OH222666   7.929   1.176   5.286
 7594TIP3    H122667   7.943   1.080   5.293
 7594TIP3    H222668   7.842   1.180   5.241
 7595TIP3   OH222669   7.908   0.825   3.480
 7595TIP3    H122670   7.964   0.794   3.553
 7595TIP3    H222671   7.976   0.830   3.408
 7596TIP3   OH222672   8.536   1.262   5.067
 7596TIP3    H122673   8.502   1.285   4.978
 7596TIP3    H222674   8.580   1.176   5.052
 7597TIP3   OH222675   8.422   1.025   3.287
 7597TIP3    H122676   8.420   1.038   3.384
 7597TIP3    H222677   8.416   0.927   3.282
 7598TIP3   OH222678   8.044   0.902   5.264
 7598TIP3    H122679   8.125   0.853   5.245
 7598TIP3    H222680   8.066   0.936   5.354
 7599TIP3   OH222681   8.114   0.732   3.701
 7599TIP3    H122682   8.089   0.694   3.787
 7599TIP3    H222683   8.149   0.653   3.654
 7600TIP3   OH222684   8.386   0.840   4.913
 7600TIP3    H122685   8.301   0.890   4.909
 7600TIP3    H222686   8.432   0.868   4.830
 7601TIP3   OH222687   8.215   0.523   3.543
 7601TIP3    H122688   8.190   0.527   3.449
 7601TIP3    H222689   8.313   0.531   3.535
 7602TIP3   OH222690   8.897   1.211   5.086
 7602TIP3    H122691   8.911   1.193   4.992
 7602TIP3    H222692   8.913   1.127   5.131
 7603TIP3   OH222693   8.439   0.625   5.058
 7603TIP3    H122694   8.475   0.562   4.992
 7603TIP3    H222695   8.412   0.701   5.000
 7604TIP3   OH222696   8.556   0.908   4.709
 7604TIP3    H122697   8.638   0.923   4.660
 7604TIP3    H222698   8.496   0.976   4.671
 7605TIP3   OH222699   9.130   0.881   5.125
 7605TIP3    H122700   9.170   0.799   5.095
 7605TIP3    H222701   9.190   0.950   5.092
 7606TIP3   OH222702   9.188   1.130   4.845
 7606TIP3    H122703   9.101   1.173   4.825
 7606TIP3    H222704   9.241   1.169   4.773
 7607TIP3   OH222705   8.359   0.721   5.300
 7607TIP3    H122706   8.289   0.653   5.304
 7607TIP3    H222707   8.399   0.697   5.214
 7608TIP3   OH222708   8.845   0.744   5.182
 7608TIP3    H122709   8.781   0.732   5.254
 7608TIP3    H222710   8.852   0.654   5.146
 7609TIP3   OH222711   8.023   1.583   3.446
 7609TIP3    H122712   8.119   1.580   3.427
 7609TIP3    H222713   7.993   1.634   3.368
 7610TIP3   OH222714   7.503   0.969   3.663
 7610TIP3    H122715   7.598   0.991   3.650
 7610TIP3    H222716   7.498   0.881   3.620
 7611TIP3   OH222717   7.419   1.578   4.078
 7611TIP3    H122718   7.352   1.517   4.041
 7611TIP3    H222719   7.463   1.520   4.144
 7612TIP3   OH222720   7.556   1.427   4.263
 7612TIP3    H122721   7.546   1.356   4.330
 7612TIP3    H222722   7.607   1.491   4.316
 7613TIP3   OH222723   9.169   1.563   4.387
 7613TIP3    H122724   9.099   1.612   4.434
 7613TIP3    H222725   9.118   1.510   4.323
 7614TIP3   OH222726   7.745   0.863   4.611
 7614TIP3    H122727   7.747   0.820   4.524
 7614TIP3    H222728   7.839   0.852   4.640
 7615TIP3   OH222729   7.731   0.494   4.715
 7615TIP3    H122730   7.783   0.498   4.632
 7615TIP3    H222731   7.740   0.584   4.748
 7616TIP3   OH222732   8.842   1.708   3.750
 7616TIP3    H122733   8.882   1.684   3.663
 7616TIP3    H222734   8.906   1.772   3.785
 7617TIP3   OH222735   7.965   1.503   5.104
 7617TIP3    H122736   7.873   1.475   5.089
 7617TIP3    H222737   7.976   1.483   5.198
 7618TIP3   OH222738   8.143   1.534   4.653
 7618TIP3    H122739   8.098   1.611   4.614
 7618TIP3    H222740   8.230   1.545   4.608
 7619TIP3   OH222741   8.590   1.790   4.798
 7619TIP3    H122742   8.636   1.782   4.885
 7619TIP3    H222743   8.659   1.833   4.744
 7620TIP3   OH222744   8.769   1.933   4.645
 7620TIP3    H122745   8.840   1.875   4.616
 7620TIP3    H222746   8.817   1.990   4.709
 7621TIP3   OH222747   7.819   1.791   4.676
 7621TIP3    H122748   7.730   1.825   4.655
 7621TIP3    H222749   7.833   1.831   4.763
 7622TIP3   OH222750   8.056   1.770   4.535
 7622TIP3    H122751   7.969   1.782   4.579
 7622TIP3    H222752   8.037   1.803   4.445
 7623TIP3   OH222753   8.486   1.802   4.326
 7623TIP3    H122754   8.411   1.822   4.267
 7623TIP3    H222755   8.497   1.887   4.374
 7624TIP3   OH222756   8.751   1.736   4.379
 7624TIP3    H122757   8.656   1.755   4.365
 7624TIP3    H222758   8.792   1.817   4.345
 7625TIP3   OH222759   8.960   1.927   4.303
 7625TIP3    H122760   8.939   2.012   4.258
 7625TIP3    H222761   8.987   1.870   4.229
 7626TIP3   OH222762   7.731   1.584   4.421
 7626TIP3    H122763   7.758   1.558   4.512
 7626TIP3    H222764   7.804   1.541   4.371
 7627TIP3   OH222765   7.927   1.457   4.278
 7627TIP3    H122766   7.941   1.373   4.328
 7627TIP3    H222767   8.018   1.494   4.277
 7628TIP3   OH222768   8.192   1.549   4.282
 7628TIP3    H122769   8.223   1.457   4.275
 7628TIP3    H222770   8.240   1.575   4.364
 7629TIP3   OH222771   7.520   1.358   3.812
 7629TIP3    H122772   7.434   1.327   3.778
 7629TIP3    H222773   7.511   1.453   3.792
 7630TIP3   OH222774   8.292   1.544   3.395
 7630TIP3    H122775   8.379   1.569   3.357
 7630TIP3    H222776   8.269   1.470   3.335
 7631TIP3   OH222777   8.936   1.622   3.514
 7631TIP3    H122778   8.991   1.554   3.471
 7631TIP3    H222779   8.917   1.680   3.438
 7632TIP3   OH222780   7.594   1.378   3.450
 7632TIP3    H122781   7.597   1.408   3.542
 7632TIP3    H222782   7.683   1.339   3.438
 7633TIP3   OH222783   9.204   1.811   4.691
 7633TIP3    H122784   9.137   1.771   4.631
 7633TIP3    H222785   9.180   1.906   4.681
 7634TIP3   OH222786   1.161   1.713   5.644
 7634TIP3    H122787   1.131   1.803   5.623
 7634TIP3    H222788   1.085   1.662   5.611
 7635TIP3   OH222789   1.159   1.713   6.026
 7635TIP3    H122790   1.191   1.684   6.113
 7635TIP3    H222791   1.117   1.632   5.993
 7636TIP3   OH222792   0.498   1.642   6.398
 7636TIP3    H122793   0.532   1.562   6.442
 7636TIP3    H222794   0.580   1.688   6.374
 7637TIP3   OH222795   1.403   2.015   5.707
 7637TIP3    H122796   1.387   1.945   5.772
 7637TIP3    H222797   1.433   2.089   5.763
 7638TIP3   OH222798   0.429   2.013   6.113
 7638TIP3    H122799   0.421   1.916   6.117
 7638TIP3    H222800   0.525   2.023   6.107
 7639TIP3   OH222801   1.054   2.479   5.726
 7639TIP3    H122802   1.098   2.407   5.675
 7639TIP3    H222803   1.046   2.438   5.813
 7640TIP3   OH222804   0.956   1.937   6.076
 7640TIP3    H122805   0.994   1.862   6.028
 7640TIP3    H222806   1.040   1.983   6.099
 7641TIP3   OH222807   1.972   1.257   6.071
 7641TIP3    H122808   2.000   1.341   6.113
 7641TIP3    H222809   1.993   1.276   5.978
 7642TIP3   OH222810   1.373   1.439   6.105
 7642TIP3    H122811   1.413   1.352   6.123
 7642TIP3    H222812   1.338   1.425   6.015
 7643TIP3   OH222813   1.404   1.190   5.694
 7643TIP3    H122814   1.477   1.175   5.757
 7643TIP3    H222815   1.454   1.226   5.618
 7644TIP3   OH222816   0.796   1.509   5.970
 7644TIP3    H122817   0.889   1.481   5.987
 7644TIP3    H222818   0.756   1.422   5.943
 7645TIP3   OH222819   2.044   1.464   6.242
 7645TIP3    H122820   1.961   1.512   6.221
 7645TIP3    H222821   2.059   1.495   6.333
 7646TIP3   OH222822   1.049   1.932   5.514
 7646TIP3    H122823   1.009   1.912   5.429
 7646TIP3    H222824   1.004   2.015   5.538
 7647TIP3   OH222825   0.813   1.858   6.301
 7647TIP3    H122826   0.751   1.926   6.338
 7647TIP3    H222827   0.856   1.907   6.229
 7648TIP3   OH222828   1.613   1.191   5.868
 7648TIP3    H122829   1.599   1.149   5.953
 7648TIP3    H222830   1.665   1.270   5.892
 7649TIP3   OH222831   0.636   2.051   6.401
 7649TIP3    H122832   0.611   2.137   6.363
 7649TIP3    H222833   0.555   2.029   6.450
 7650TIP3   OH222834   0.074   1.750   5.625
 7650TIP3    H122835   0.004   1.772   5.561
 7650TIP3    H222836   0.067   1.823   5.689
 7651TIP3   OH222837   1.472   2.257   5.875
 7651TIP3    H122838   1.382   2.249   5.913
 7651TIP3    H222839   1.464   2.343   5.829
 7652TIP3   OH222840   1.763   1.158   6.235
 7652TIP3    H122841   1.676   1.188   6.204
 7652TIP3    H222842   1.823   1.192   6.165
 7653TIP3   OH222843   1.172   2.305   5.546
 7653TIP3    H122844   1.221   2.222   5.528
 7653TIP3    H222845   1.234   2.370   5.505
 7654TIP3   OH222846   1.314   2.090   5.457
 7654TIP3    H122847   1.284   2.009   5.413
 7654TIP3    H222848   1.351   2.054   5.540
 7655TIP3   OH222849   1.699   2.169   6.218
 7655TIP3    H122850   1.687   2.092   6.158
 7655TIP3    H222851   1.681   2.244   6.157
 7656TIP3   OH222852   0.991   1.565   5.475
 7656TIP3    H122853   0.910   1.615   5.453
 7656TIP3    H222854   1.035   1.560   5.389
 7657TIP3   OH222855   0.949   1.346   5.197
 7657TIP3    H122856   1.018   1.399   5.240
 7657TIP3    H222857   1.005   1.285   5.144
 7658TIP3   OH222858   1.893   1.806   6.063
 7658TIP3    H122859   1.810   1.859   6.067
 7658TIP3    H222860   1.924   1.831   5.973
 7659TIP3   OH222861   1.338   1.647   5.446
 7659TIP3    H122862   1.283   1.671   5.524
 7659TIP3    H222863   1.421   1.621   5.489
 7660TIP3   OH222864   1.573   1.685   6.359
 7660TIP3    H122865   1.569   1.770   6.406
 7660TIP3    H222866   1.486   1.687   6.314
 7661TIP3   OH222867   0.582   1.659   5.876
 7661TIP3    H122868   0.540   1.605   5.805
 7661TIP3    H222869   0.658   1.602   5.900
 7662TIP3   OH222870   0.698   2.055   6.013
 7662TIP3    H122871   0.678   2.014   5.927
 7662TIP3    H222872   0.788   2.021   6.030
 7663TIP3   OH222873   0.700   1.631   6.194
 7663TIP3    H122874   0.739   1.600   6.109
 7663TIP3    H222875   0.755   1.710   6.215
 7664TIP3   OH222876   1.230   2.253   5.994
 7664TIP3    H122877   1.218   2.332   6.049
 7664TIP3    H222878   1.216   2.180   6.057
 7665TIP3   OH222879   0.844   2.170   6.543
 7665TIP3    H122880   0.784   2.233   6.588
 7665TIP3    H222881   0.779   2.117   6.492
 7666TIP3   OH222882   1.178   1.503   5.273
 7666TIP3    H122883   1.237   1.563   5.324
 7666TIP3    H222884   1.204   1.526   5.180
 7667TIP3   OH222885   0.605   1.742   6.640
 7667TIP3    H122886   0.596   1.827   6.688
 7667TIP3    H222887   0.516   1.729   6.605
 7668TIP3   OH222888   0.922   2.183   5.550
 7668TIP3    H122889   1.003   2.236   5.561
 7668TIP3    H222890   0.861   2.245   5.509
 7669TIP3   OH222891   0.637   2.335   6.630
 7669TIP3    H122892   0.602   2.342   6.539
 7669TIP3    H222893   0.557   2.315   6.682
 7670TIP3   OH222894   1.695   0.745   5.323
 7670TIP3    H122895   1.613   0.767   5.370
 7670TIP3    H222896   1.710   0.827   5.271
 7671TIP3   OH222897   0.477   1.517   5.666
 7671TIP3    H122898   0.405   1.565   5.620
 7671TIP3    H222899   0.433   1.431   5.680
 7672TIP3   OH222900   1.494   2.112   4.872
 7672TIP3    H122901   1.502   2.208   4.855
 7672TIP3    H222902   1.586   2.082   4.858
 7673TIP3   OH222903   0.059   2.063   6.217
 7673TIP3    H122904   0.150   2.035   6.196
 7673TIP3    H222905   0.079   2.144   6.267
 7674TIP3   OH222906   1.936   2.515   6.265
 7674TIP3    H122907   1.934   2.419   6.278
 7674TIP3    H222908   1.853   2.541   6.310
 7675TIP3   OH222909   1.041   2.300   6.399
 7675TIP3    H122910   1.040   2.393   6.431
 7675TIP3    H222911   0.970   2.261   6.454
 7676TIP3   OH222912   0.803   2.431   5.346
 7676TIP3    H122913   0.754   2.405   5.265
 7676TIP3    H222914   0.760   2.515   5.371
 7677TIP3   OH222915   0.242   2.280   5.735
 7677TIP3    H122916   0.289   2.271   5.821
 7677TIP3    H222917   0.185   2.200   5.738
 7678TIP3   OH222918   1.006   2.333   4.992
 7678TIP3    H122919   1.063   2.262   4.953
 7678TIP3    H222920   1.041   2.336   5.083
 7679TIP3   OH222921   1.056   2.379   5.262
 7679TIP3    H122922   0.967   2.387   5.304
 7679TIP3    H222923   1.106   2.334   5.333
 7680TIP3   OH222924   1.824   1.644   6.540
 7680TIP3    H122925   1.744   1.659   6.486
 7680TIP3    H222926   1.839   1.549   6.526
 7681TIP3   OH222927   0.414   2.034   6.567
 7681TIP3    H122928   0.473   2.040   6.645
 7681TIP3    H222929   0.336   1.991   6.606
 7682TIP3   OH222930   1.348   0.988   6.558
 7682TIP3    H122931   1.436   0.965   6.596
 7682TIP3    H222932   1.295   0.993   6.639
 7683TIP3   OH222933   1.595   1.420   6.458
 7683TIP3    H122934   1.545   1.417   6.543
 7683TIP3    H222935   1.570   1.508   6.422
 7684TIP3   OH222936   1.257   1.551   5.019
 7684TIP3    H122937   1.219   1.527   4.932
 7684TIP3    H222938   1.339   1.596   4.992
 7685TIP3   OH222939   0.954   0.929   5.328
 7685TIP3    H122940   0.917   0.939   5.418
 7685TIP3    H222941   0.948   0.833   5.319
 7686TIP3   OH222942   0.807   1.437   6.355
 7686TIP3    H122943   0.730   1.414   6.409
 7686TIP3    H222944   0.767   1.499   6.290
 7687TIP3   OH222945   0.675   1.279   5.890
 7687TIP3    H122946   0.588   1.242   5.913
 7687TIP3    H222947   0.680   1.250   5.796
 7688TIP3   OH222948   1.135   1.372   5.609
 7688TIP3    H122949   1.079   1.441   5.566
 7688TIP3    H222950   1.185   1.337   5.533
 7689TIP3   OH222951   1.304   1.646   6.694
 7689TIP3    H122952   1.286   1.572   6.756
 7689TIP3    H222953   1.398   1.662   6.712
 7690TIP3   OH222954   1.286   1.393   5.847
 7690TIP3    H122955   1.225   1.423   5.776
 7690TIP3    H222956   1.319   1.312   5.803
 7691TIP3   OH222957   1.300   1.640   6.268
 7691TIP3    H122958   1.331   1.568   6.209
 7691TIP3    H222959   1.269   1.586   6.344
 7692TIP3   OH222960   0.975   1.115   5.938
 7692TIP3    H122961   0.885   1.122   5.974
 7692TIP3    H222962   1.030   1.111   6.018
 7693TIP3   OH222963   0.667   1.184   5.635
 7693TIP3    H122964   0.761   1.172   5.615
 7693TIP3    H222965   0.623   1.168   5.549
 7694TIP3   OH222966   1.457   1.175   6.145
 7694TIP3    H122967   1.425   1.189   6.237
 7694TIP3    H222968   1.389   1.113   6.113
 7695TIP3   OH222969   0.514   1.152   5.400
 7695TIP3    H122970   0.434   1.149   5.346
 7695TIP3    H222971   0.572   1.205   5.340
 7696TIP3   OH222972   1.628   2.865   6.364
 7696TIP3    H122973   1.626   2.890   6.269
 7696TIP3    H222974   1.706   2.914   6.395
 7697TIP3   OH222975   0.591   1.985   6.783
 7697TIP3    H122976   0.677   2.024   6.806
 7697TIP3    H222977   0.559   1.967   6.873
 7698TIP3   OH222978   1.053   1.433   6.043
 7698TIP3    H122979   1.120   1.387   5.992
 7698TIP3    H222980   1.057   1.388   6.130
 7699TIP3   OH222981   1.040   1.316   6.306
 7699TIP3    H122982   0.957   1.362   6.333
 7699TIP3    H222983   1.103   1.356   6.368
 7700TIP3   OH222984   0.759   1.716   5.423
 7700TIP3    H122985   0.686   1.652   5.411
 7700TIP3    H222986   0.741   1.750   5.514
 7701TIP3   OH222987   1.661   1.952   6.053
 7701TIP3    H122988   1.685   2.002   5.972
 7701TIP3    H222989   1.576   1.911   6.027
 7702TIP3   OH222990   1.213   1.026   5.290
 7702TIP3    H122991   1.116   1.016   5.296
 7702TIP3    H222992   1.226   1.122   5.308
 7703TIP3   OH222993   1.161   2.036   6.420
 7703TIP3    H122994   1.183   2.014   6.511
 7703TIP3    H222995   1.122   2.125   6.428
 7704TIP3   OH222996   1.288   1.275   5.389
 7704TIP3    H122997   1.385   1.283   5.404
 7704TIP3    H222998   1.268   1.355   5.336
 7705TIP3   OH222999   0.448   1.736   6.105
 7705TIP3    H123000   0.483   1.711   6.017
 7705TIP3    H223001   0.516   1.696   6.163
 7706TIP3   OH223002   0.907   1.866   5.248
 7706TIP3    H123003   0.858   1.952   5.254
 7706TIP3    H223004   0.852   1.810   5.307
 7707TIP3   OH223005   1.059   1.772   6.733
 7707TIP3    H123006   1.002   1.722   6.672
 7707TIP3    H223007   1.147   1.740   6.705
 7708TIP3   OH223008   1.320   2.295   6.316
 7708TIP3    H123009   1.224   2.293   6.329
 7708TIP3    H223010   1.348   2.347   6.395
 7709TIP3   OH223011   1.730   1.367   5.226
 7709TIP3    H123012   1.668   1.323   5.164
 7709TIP3    H223013   1.726   1.457   5.185
 7710TIP3   OH223014   1.949   2.224   6.307
 7710TIP3    H123015   1.851   2.219   6.298
 7710TIP3    H223016   1.975   2.194   6.217
 7711TIP3   OH223017   1.429   2.185   5.134
 7711TIP3    H123018   1.406   2.111   5.193
 7711TIP3    H223019   1.444   2.141   5.049
 7712TIP3   OH223020   1.426   1.815   5.972
 7712TIP3    H123021   1.333   1.789   5.984
 7712TIP3    H223022   1.460   1.735   5.926
 7713TIP3   OH223023   0.554   2.044   5.727
 7713TIP3    H123024   0.552   2.124   5.672
 7713TIP3    H223025   0.460   2.023   5.735
 7714TIP3   OH223026   0.692   1.810   5.667
 7714TIP3    H123027   0.657   1.899   5.687
 7714TIP3    H223028   0.662   1.760   5.745
 7715TIP3   OH223029   0.823   2.385   6.195
 7715TIP3    H123030   0.865   2.458   6.145
 7715TIP3    H223031   0.900   2.350   6.243
 7716TIP3   OH223032   0.472   2.282   5.577
 7716TIP3    H123033   0.386   2.289   5.624
 7716TIP3    H223034   0.502   2.375   5.579
 7717TIP3   OH223035   1.211   2.021   6.152
 7717TIP3    H123036   1.202   2.019   6.250
 7717TIP3    H223037   1.289   1.965   6.139
 7718TIP3   OH223038   1.186   1.915   5.036
 7718TIP3    H123039   1.239   1.890   5.115
 7718TIP3    H223040   1.099   1.884   5.064
 7719TIP3   OH223041   1.460   2.553   6.204
 7719TIP3    H123042   1.381   2.496   6.197
 7719TIP3    H223043   1.444   2.617   6.131
 7720TIP3   OH223044   1.525   2.387   4.855
 7720TIP3    H123045   1.564   2.458   4.800
 7720TIP3    H223046   1.446   2.433   4.887
 7721TIP3   OH223047   1.347   1.851   5.254
 7721TIP3    H123048   1.336   1.782   5.323
 7721TIP3    H223049   1.444   1.845   5.240
 7722TIP3   OH223050   0.255   2.241   6.354
 7722TIP3    H123051   0.320   2.177   6.388
 7722TIP3    H223052   0.273   2.319   6.408
 7723TIP3   OH223053   0.558   1.888   5.030
 7723TIP3    H123054   0.570   1.794   5.006
 7723TIP3    H223055   0.528   1.881   5.123
 7724TIP3   OH223056   0.495   1.897   5.306
 7724TIP3    H123057   0.569   1.869   5.361
 7724TIP3    H223058   0.500   1.995   5.312
 7725TIP3   OH223059   0.248   1.576   5.517
 7725TIP3    H123060   0.186   1.631   5.572
 7725TIP3    H223061   0.261   1.638   5.443
 7726TIP3   OH223062   1.385   1.222   6.405
 7726TIP3    H123063   1.464   1.262   6.443
 7726TIP3    H223064   1.370   1.144   6.462
 7727TIP3   OH223065   1.269   0.980   5.564
 7727TIP3    H123066   1.249   1.003   5.471
 7727TIP3    H223067   1.304   1.065   5.599
 7728TIP3   OH223068   0.764   2.096   5.259
 7728TIP3    H123069   0.676   2.122   5.293
 7728TIP3    H223070   0.776   2.161   5.188
 7729TIP3   OH223071   0.957   1.172   5.673
 7729TIP3    H123072   1.020   1.245   5.655
 7729TIP3    H223073   0.962   1.167   5.771
 7730TIP3   OH223074   1.227   1.477   6.474
 7730TIP3    H123075   1.236   1.532   6.554
 7730TIP3    H223076   1.280   1.399   6.495
 7731TIP3   OH223077   1.106   0.888   5.769
 7731TIP3    H123078   1.076   0.965   5.820
 7731TIP3    H223079   1.164   0.929   5.701
 7732TIP3   OH223080   0.508   2.171   5.326
 7732TIP3    H123081   0.480   2.242   5.264
 7732TIP3    H223082   0.491   2.213   5.412
 7733TIP3   OH223083   1.862   1.378   6.460
 7733TIP3    H123084   1.763   1.377   6.466
 7733TIP3    H223085   1.874   1.337   6.374
 7734TIP3   OH223086   1.512   1.573   5.847
 7734TIP3    H123087   1.436   1.513   5.858
 7734TIP3    H223088   1.583   1.524   5.895
 7735TIP3   OH223089   0.222   1.798   5.318
 7735TIP3    H123090   0.291   1.865   5.329
 7735TIP3    H223091   0.264   1.744   5.248
 7736TIP3   OH223092   1.480   2.529   5.795
 7736TIP3    H123093   1.438   2.577   5.721
 7736TIP3    H223094   1.575   2.549   5.776
 7737TIP3   OH223095   0.099   2.031   5.722
 7737TIP3    H123096   0.012   2.060   5.751
 7737TIP3    H223097   0.091   2.047   5.627
 7738TIP3   OH223098   0.273   2.567   6.751
 7738TIP3    H123099   0.348   2.572   6.814
 7738TIP3    H223100   0.233   2.482   6.774
 7739TIP3   OH223101   0.732   2.521   6.821
 7739TIP3    H123102   0.828   2.506   6.828
 7739TIP3    H223103   0.709   2.461   6.748
 7740TIP3   OH223104   0.714   2.097   4.949
 7740TIP3    H123105   0.661   2.023   4.986
 7740TIP3    H223106   0.790   2.048   4.913
 7741TIP3   OH223107   1.373   2.427   6.552
 7741TIP3    H123108   1.365   2.358   6.622
 7741TIP3    H223109   1.450   2.479   6.583
 7742TIP3   OH223110   1.150   2.139   4.860
 7742TIP3    H123111   1.195   2.074   4.917
 7742TIP3    H223112   1.205   2.137   4.778
 7743TIP3   OH223113   0.367   1.614   5.172
 7743TIP3    H123114   0.423   1.584   5.246
 7743TIP3    H223115   0.434   1.616   5.100
 7744TIP3   OH223116   0.991   2.048   6.748
 7744TIP3    H123117   0.951   2.067   6.661
 7744TIP3    H223118   1.021   1.955   6.738
 7745TIP3   OH223119   0.871   1.813   4.978
 7745TIP3    H123120   0.873   1.824   5.075
 7745TIP3    H223121   0.873   1.715   4.972
 7746TIP3   OH223122   1.484   2.058   6.357
 7746TIP3    H123123   1.558   2.102   6.312
 7746TIP3    H223124   1.412   2.122   6.342
 7747TIP3   OH223125   0.563   1.521   5.383
 7747TIP3    H123126   0.550   1.489   5.474
 7747TIP3    H223127   0.604   1.443   5.339
 7748TIP3   OH223128   0.823   1.580   6.623
 7748TIP3    H123129   0.756   1.652   6.625
 7748TIP3    H223130   0.876   1.605   6.544
 7749TIP3   OH223131   0.669   1.309   5.233
 7749TIP3    H123132   0.643   1.316   5.138
 7749TIP3    H223133   0.767   1.316   5.225
 7750TIP3   OH223134   1.353   1.984   6.753
 7750TIP3    H123135   1.431   1.959   6.702
 7750TIP3    H223136   1.350   1.916   6.822
 7751TIP3   OH223137   1.490   1.642   4.896
 7751TIP3    H123138   1.469   1.596   4.812
 7751TIP3    H223139   1.458   1.732   4.872
 7752TIP3   OH223140   0.996   1.388   6.729
 7752TIP3    H123141   0.941   1.317   6.691
 7752TIP3    H223142   0.937   1.463   6.711
 7753TIP3   OH223143   0.991   1.702   6.443
 7753TIP3    H123144   1.068   1.693   6.385
 7753TIP3    H223145   0.934   1.762   6.391
 7754TIP3   OH223146   1.577   1.659   6.811
 7754TIP3    H123147   1.623   1.574   6.808
 7754TIP3    H223148   1.642   1.718   6.769
 7755TIP3   OH223149   1.613   1.913   6.545
 7755TIP3    H123150   1.555   1.967   6.485
 7755TIP3    H223151   1.700   1.933   6.505
 7756TIP3   OH223152   1.243   1.426   6.840
 7756TIP3    H123153   1.231   1.426   6.936
 7756TIP3    H223154   1.151   1.409   6.806
 7757TIP3   OH223155   1.466   1.373   6.689
 7757TIP3    H123156   1.391   1.380   6.752
 7757TIP3    H223157   1.539   1.343   6.747
 7758TIP3   OH223158   1.692   1.318   6.844
 7758TIP3    H123159   1.704   1.221   6.859
 7758TIP3    H223160   1.687   1.352   6.936
 7759TIP3   OH223161   0.473   2.378   5.144
 7759TIP3    H123162   0.561   2.378   5.103
 7759TIP3    H223163   0.414   2.390   5.068
 7760TIP3   OH223164  -0.044   1.723   5.368
 7760TIP3    H123165   0.043   1.766   5.353
 7760TIP3    H223166  -0.028   1.637   5.323
 7761TIP3   OH223167  -0.119   2.368   5.755
 7761TIP3    H123168  -0.205   2.327   5.744
 7761TIP3    H223169  -0.081   2.317   5.830
 7762TIP3   OH223170  -0.005   2.229   5.959
 7762TIP3    H123171  -0.000   2.151   6.015
 7762TIP3    H223172   0.051   2.291   6.010
 7763TIP3   OH223173   1.732   2.623   5.752
 7763TIP3    H123174   1.762   2.654   5.840
 7763TIP3    H223175   1.800   2.659   5.694
 7764TIP3   OH223176   1.763   2.640   6.036
 7764TIP3    H123177   1.719   2.552   6.031
 7764TIP3    H223178   1.839   2.617   6.091
 7765TIP3   OH223179   1.810   2.315   6.610
 7765TIP3    H123180   1.737   2.325   6.673
 7765TIP3    H223181   1.851   2.404   6.612
 7766TIP3   OH223182   1.625   1.829   5.228
 7766TIP3    H123183   1.693   1.893   5.198
 7766TIP3    H223184   1.669   1.790   5.306
 7767TIP3   OH223185   1.754   1.697   5.431
 7767TIP3    H123186   1.688   1.655   5.490
 7767TIP3    H223187   1.819   1.734   5.494
 7768TIP3   OH223188   1.808   2.089   5.864
 7768TIP3    H123189   1.861   2.023   5.814
 7768TIP3    H223190   1.802   2.163   5.800
 7769TIP3   OH223191   1.639   2.389   6.059
 7769TIP3    H123192   1.567   2.431   6.110
 7769TIP3    H223193   1.589   2.341   5.989
 7770TIP3   OH223194   1.691   1.604   5.079
 7770TIP3    H123195   1.620   1.606   5.011
 7770TIP3    H223196   1.663   1.681   5.133
 7771TIP3   OH223197   1.562   1.278   5.033
 7771TIP3    H123198   1.519   1.316   4.955
 7771TIP3    H223199   1.537   1.183   5.023
 7772TIP3   OH223200   1.567   1.554   5.577
 7772TIP3    H123201   1.574   1.457   5.570
 7772TIP3    H223202   1.553   1.567   5.674
 7773TIP3   OH223203   1.856   1.978   6.436
 7773TIP3    H123204   1.928   1.912   6.426
 7773TIP3    H223205   1.881   2.047   6.372
 7774TIP3   OH223206   2.040   1.782   6.452
 7774TIP3    H123207   1.965   1.731   6.491
 7774TIP3    H223208   2.113   1.718   6.466
 7775TIP3   OH223209   1.505   1.012   5.019
 7775TIP3    H123210   1.578   0.978   5.074
 7775TIP3    H223211   1.431   0.952   5.039
 7776TIP3   OH223212   1.564   1.271   5.473
 7776TIP3    H123213   1.605   1.182   5.487
 7776TIP3    H223214   1.621   1.303   5.401
 7777TIP3   OH223215   1.725   1.441   5.968
 7777TIP3    H123216   1.810   1.467   5.927
 7777TIP3    H223217   1.739   1.480   6.057
 7778TIP3   OH223218   1.795   1.587   6.200
 7778TIP3    H123219   1.716   1.622   6.247
 7778TIP3    H223220   1.827   1.668   6.154
 7779TIP3   OH223221   2.248   1.183   6.758
 7779TIP3    H123222   2.304   1.114   6.717
 7779TIP3    H223223   2.217   1.233   6.679
 7780TIP3   OH223224   1.673   1.021   5.510
 7780TIP3    H123225   1.721   1.003   5.594
 7780TIP3    H223226   1.612   0.944   5.507
 7781TIP3   OH223227   2.114   1.316   6.560
 7781TIP3    H123228   2.026   1.356   6.572
 7781TIP3    H223229   2.090   1.242   6.502
 7782TIP3   OH223230   1.753   0.952   5.145
 7782TIP3    H123231   1.792   0.882   5.089
 7782TIP3    H223232   1.819   1.024   5.137
 7783TIP3   OH223233   1.314   2.492   5.409
 7783TIP3    H123234   1.364   2.473   5.327
 7783TIP3    H223235   1.376   2.549   5.457
 7784TIP3   OH223236   0.412   2.270   6.795
 7784TIP3    H123237   0.324   2.232   6.785
 7784TIP3    H223238   0.419   2.284   6.891
 7785TIP3   OH223239   0.596   2.322   6.343
 7785TIP3    H123240   0.548   2.399   6.305
 7785TIP3    H223241   0.682   2.336   6.298
 7786TIP3   OH223242   1.041   2.566   6.479
 7786TIP3    H123243   1.082   2.568   6.568
 7786TIP3    H223244   1.107   2.618   6.428
 7787TIP3   OH223245   1.220   2.719   6.339
 7787TIP3    H123246   1.292   2.668   6.299
 7787TIP3    H223247   1.271   2.777   6.400
 7788TIP3   OH223248   2.017   1.078   6.439
 7788TIP3    H123249   1.926   1.069   6.408
 7788TIP3    H223250   2.050   0.986   6.429
 7789TIP3   OH223251   0.271   2.576   6.368
 7789TIP3    H123252   0.180   2.607   6.348
 7789TIP3    H223253   0.284   2.617   6.455
 7790TIP3   OH223254   0.508   2.558   6.225
 7790TIP3    H123255   0.421   2.571   6.270
 7790TIP3    H223256   0.488   2.592   6.136
 7791TIP3   OH223257   0.935   2.587   6.021
 7791TIP3    H123258   0.863   2.608   5.959
 7791TIP3    H223259   0.947   2.673   6.067
 7792TIP3   OH223260   1.204   2.525   6.074
 7792TIP3    H123261   1.110   2.543   6.054
 7792TIP3    H223262   1.248   2.601   6.033
 7793TIP3   OH223263   1.410   2.717   5.988
 7793TIP3    H123264   1.397   2.801   5.940
 7793TIP3    H223265   1.437   2.656   5.916
 7794TIP3   OH223266   0.182   2.367   6.107
 7794TIP3    H123267   0.204   2.350   6.200
 7794TIP3    H223268   0.259   2.324   6.063
 7795TIP3   OH223269   0.381   2.242   5.968
 7795TIP3    H123270   0.397   2.158   6.017
 7795TIP3    H223271   0.471   2.280   5.964
 7796TIP3   OH223272   0.647   2.340   5.971
 7796TIP3    H123273   0.677   2.248   5.958
 7796TIP3    H223274   0.691   2.360   6.055
 7797TIP3   OH223275   1.231   0.989   6.062
 7797TIP3    H123276   1.184   0.905   6.067
 7797TIP3    H223277   1.305   0.965   6.004
 7798TIP3   OH223278   1.742   0.873   5.963
 7798TIP3    H123279   1.780   0.926   5.889
 7798TIP3    H223280   1.648   0.895   5.957
 7799TIP3   OH223281   1.838   0.974   5.728
 7799TIP3    H123282   1.911   0.923   5.687
 7799TIP3    H223283   1.871   1.066   5.713
 7800TIP3   OH223284   1.460   0.880   5.940
 7800TIP3    H123285   1.451   0.847   5.849
 7800TIP3    H223286   1.443   0.799   5.992
 7801TIP3   OH223287   1.489   0.810   5.499
 7801TIP3    H123288   1.403   0.856   5.513
 7801TIP3    H223289   1.470   0.723   5.541
 7802TIP3   OH223290  -0.050   2.143   5.514
 7802TIP3    H123291  -0.081   2.100   5.434
 7802TIP3    H223292  -0.054   2.237   5.486
 7803TIP3   OH223293   0.862   0.936   5.588
 7803TIP3    H123294   0.919   0.873   5.634
 7803TIP3    H223295   0.900   1.021   5.620
 7804TIP3   OH223296   0.744   2.337   5.078
 7804TIP3    H123297   0.834   2.355   5.045
 7804TIP3    H223298   0.722   2.258   5.023
 7805TIP3   OH223299   1.460   2.451   5.179
 7805TIP3    H123300   1.454   2.353   5.166
 7805TIP3    H223301   1.420   2.482   5.096
 7806TIP3   OH223302   0.023   2.143   5.178
 7806TIP3    H123303   0.015   2.223   5.232
 7806TIP3    H223304   0.109   2.155   5.135
 7807TIP3   OH223305   1.747   1.048   6.875
 7807TIP3    H123306   1.767   1.012   6.964
 7807TIP3    H223307   1.833   1.038   6.830
 7808TIP3   OH223308   1.689   2.596   6.365
 7808TIP3    H123309   1.610   2.565   6.316
 7808TIP3    H223310   1.670   2.692   6.369
 7809TIP3   OH223311   2.954   1.979   5.133
 7809TIP3    H123312   2.958   2.069   5.095
 7809TIP3    H223313   2.874   1.943   5.092
 7810TIP3   OH223314   2.949   1.972   5.513
 7810TIP3    H123315   2.985   1.940   5.598
 7810TIP3    H223316   2.913   1.892   5.473
 7811TIP3   OH223317   2.253   1.865   5.880
 7811TIP3    H123318   2.286   1.796   5.942
 7811TIP3    H223319   2.334   1.916   5.865
 7812TIP3   OH223320   3.259   2.238   5.248
 7812TIP3    H123321   3.176   2.197   5.218
 7812TIP3    H223322   3.240   2.331   5.235
 7813TIP3   OH223323   2.226   2.273   5.604
 7813TIP3    H123324   2.218   2.175   5.605
 7813TIP3    H223325   2.323   2.282   5.591
 7814TIP3   OH223326   1.931   1.475   5.387
 7814TIP3    H123327   1.884   1.559   5.402
 7814TIP3    H223328   1.861   1.423   5.344
 7815TIP3   OH223329   1.991   1.764   5.560
 7815TIP3    H123330   2.041   1.686   5.595
 7815TIP3    H223331   2.051   1.797   5.492
 7816TIP3   OH223332   2.858   2.734   5.212
 7816TIP3    H123333   2.885   2.660   5.154
 7816TIP3    H223334   2.839   2.687   5.294
 7817TIP3   OH223335   2.753   2.194   5.563
 7817TIP3    H123336   2.792   2.119   5.515
 7817TIP3    H223337   2.836   2.241   5.586
 7818TIP3   OH223338   3.769   1.514   5.559
 7818TIP3    H123339   3.796   1.597   5.602
 7818TIP3    H223340   3.786   1.534   5.465
 7819TIP3   OH223341   3.163   1.694   5.594
 7819TIP3    H123342   3.208   1.609   5.612
 7819TIP3    H223343   3.134   1.680   5.502
 7820TIP3   OH223344   2.504   1.354   5.559
 7820TIP3    H123345   2.485   1.427   5.496
 7820TIP3    H223346   2.457   1.281   5.513
 7821TIP3   OH223347   3.198   1.446   5.181
 7821TIP3    H123348   3.270   1.431   5.246
 7821TIP3    H223349   3.249   1.483   5.106
 7822TIP3   OH223350   2.137   1.556   5.666
 7822TIP3    H123351   2.220   1.538   5.712
 7822TIP3    H223352   2.150   1.502   5.585
 7823TIP3   OH223353   2.577   1.754   5.461
 7823TIP3    H123354   2.672   1.730   5.471
 7823TIP3    H223355   2.539   1.671   5.427
 7824TIP3   OH223356   3.840   1.722   5.729
 7824TIP3    H123357   3.758   1.770   5.708
 7824TIP3    H223358   3.856   1.753   5.820
 7825TIP3   OH223359   2.500   1.338   5.992
 7825TIP3    H123360   2.441   1.375   5.924
 7825TIP3    H223361   2.447   1.357   6.072
 7826TIP3   OH223362   2.607   2.113   5.787
 7826TIP3    H123363   2.546   2.182   5.822
 7826TIP3    H223364   2.650   2.161   5.713
 7827TIP3   OH223365   3.409   1.449   5.353
 7827TIP3    H123366   3.394   1.404   5.437
 7827TIP3    H223367   3.459   1.528   5.380
 7828TIP3   OH223368   2.371   1.454   5.777
 7828TIP3    H123369   2.433   1.527   5.799
 7828TIP3    H223370   2.420   1.413   5.701
 7829TIP3   OH223371   2.436   2.309   5.886
 7829TIP3    H123372   2.410   2.394   5.845
 7829TIP3    H223373   2.356   2.293   5.941
 7830TIP3   OH223374   1.828   1.998   5.121
 7830TIP3    H123375   1.789   2.024   5.035
 7830TIP3    H223376   1.860   2.083   5.156
 7831TIP3   OH223377   3.273   2.529   5.375
 7831TIP3    H123378   3.182   2.509   5.405
 7831TIP3    H223379   3.258   2.612   5.324
 7832TIP3   OH223380   3.560   1.414   5.723
 7832TIP3    H123381   3.472   1.442   5.693
 7832TIP3    H223382   3.619   1.447   5.652
 7833TIP3   OH223383   2.867   1.068   5.695
 7833TIP3    H123384   2.866   0.970   5.697
 7833TIP3    H223385   2.786   1.090   5.745
 7834TIP3   OH223386   2.958   2.543   5.030
 7834TIP3    H123387   2.994   2.452   5.019
 7834TIP3    H223388   3.031   2.599   4.994
 7835TIP3   OH223389   3.495   2.424   5.704
 7835TIP3    H123390   3.483   2.348   5.642
 7835TIP3    H223391   3.477   2.500   5.645
 7836TIP3   OH223392   2.786   1.821   4.963
 7836TIP3    H123393   2.706   1.873   4.942
 7836TIP3    H223394   2.834   1.823   4.878
 7837TIP3   OH223395   2.743   1.606   4.676
 7837TIP3    H123396   2.808   1.657   4.728
 7837TIP3    H223397   2.803   1.543   4.630
 7838TIP3   OH223398   3.689   2.065   5.550
 7838TIP3    H123399   3.605   2.116   5.553
 7838TIP3    H223400   3.720   2.088   5.460
 7839TIP3   OH223401   3.128   1.876   4.942
 7839TIP3    H123402   3.079   1.928   5.010
 7839TIP3    H223403   3.216   1.872   4.983
 7840TIP3   OH223404   3.369   1.941   5.846
 7840TIP3    H123405   3.365   2.026   5.893
 7840TIP3    H223406   3.285   1.946   5.796
 7841TIP3   OH223407   2.364   1.899   5.353
 7841TIP3    H123408   2.324   1.842   5.284
 7841TIP3    H223409   2.442   1.847   5.381
 7842TIP3   OH223410   2.491   2.306   5.502
 7842TIP3    H123411   2.474   2.276   5.411
 7842TIP3    H223412   2.583   2.274   5.517
 7843TIP3   OH223413   2.500   1.872   5.706
 7843TIP3    H123414   2.533   1.849   5.617
 7843TIP3    H223415   2.545   1.958   5.724
 7844TIP3   OH223416   3.024   2.510   5.480
 7844TIP3    H123417   3.014   2.588   5.537
 7844TIP3    H223418   3.012   2.435   5.542
 7845TIP3   OH223419   2.641   2.428   6.030
 7845TIP3    H123420   2.579   2.491   6.075
 7845TIP3    H223421   2.576   2.375   5.979
 7846TIP3   OH223422   2.972   1.756   4.759
 7846TIP3    H123423   3.031   1.811   4.816
 7846TIP3    H223424   3.003   1.781   4.668
 7847TIP3   OH223425   2.396   1.982   6.135
 7847TIP3    H123426   2.400   2.071   6.175
 7847TIP3    H223427   2.300   1.964   6.139
 7848TIP3   OH223428   2.678   2.490   5.072
 7848TIP3    H123429   2.774   2.478   5.057
 7848TIP3    H223430   2.650   2.536   4.992
 7849TIP3   OH223431   2.434   2.596   6.115
 7849TIP3    H123432   2.400   2.596   6.024
 7849TIP3    H223433   2.354   2.574   6.167
 7850TIP3   OH223434   3.490   1.001   4.808
 7850TIP3    H123435   3.408   1.020   4.859
 7850TIP3    H223436   3.502   1.085   4.760
 7851TIP3   OH223437   2.232   1.743   5.156
 7851TIP3    H123438   2.167   1.789   5.099
 7851TIP3    H223439   2.191   1.656   5.165
 7852TIP3   OH223440   3.293   2.376   4.349
 7852TIP3    H123441   3.276   2.473   4.352
 7852TIP3    H223442   3.383   2.379   4.315
 7853TIP3   OH223443   2.013   2.128   6.063
 7853TIP3    H123444   1.948   2.106   5.993
 7853TIP3    H223445   2.050   2.040   6.085
 7854TIP3   OH223446   1.869   2.319   5.696
 7854TIP3    H123447   1.964   2.310   5.683
 7854TIP3    H223448   1.864   2.398   5.752
 7855TIP3   OH223449   3.733   2.773   5.753
 7855TIP3    H123450   3.730   2.676   5.763
 7855TIP3    H223451   3.648   2.797   5.797
 7856TIP3   OH223452   2.839   2.556   5.887
 7856TIP3    H123453   2.836   2.649   5.918
 7856TIP3    H223454   2.767   2.517   5.941
 7857TIP3   OH223455   2.599   2.686   4.837
 7857TIP3    H123456   2.553   2.667   4.753
 7857TIP3    H223457   2.567   2.774   4.861
 7858TIP3   OH223458   2.035   2.535   5.223
 7858TIP3    H123459   2.084   2.526   5.308
 7858TIP3    H223460   1.984   2.453   5.223
 7859TIP3   OH223461   2.799   2.589   4.478
 7859TIP3    H123462   2.858   2.519   4.442
 7859TIP3    H223463   2.832   2.599   4.569
 7860TIP3   OH223464   2.850   2.634   4.747
 7860TIP3    H123465   2.763   2.645   4.789
 7860TIP3    H223466   2.899   2.590   4.818
 7861TIP3   OH223467   3.621   1.902   6.026
 7861TIP3    H123468   3.541   1.915   5.974
 7861TIP3    H223469   3.636   1.806   6.014
 7862TIP3   OH223470   2.218   2.310   6.051
 7862TIP3    H123471   2.268   2.293   6.133
 7862TIP3    H223472   2.144   2.247   6.058
 7863TIP3   OH223473   2.620   1.130   5.834
 7863TIP3    H123474   2.530   1.103   5.806
 7863TIP3    H223475   2.598   1.217   5.873
 7864TIP3   OH223476   3.153   1.249   6.031
 7864TIP3    H123477   3.223   1.220   6.095
 7864TIP3    H223478   3.070   1.229   6.079
 7865TIP3   OH223479   3.391   1.678   5.948
 7865TIP3    H123480   3.340   1.675   6.032
 7865TIP3    H223481   3.367   1.765   5.911
 7866TIP3   OH223482   3.053   1.797   4.502
 7866TIP3    H123483   3.019   1.776   4.412
 7866TIP3    H223484   3.110   1.873   4.486
 7867TIP3   OH223485   2.763   1.181   4.806
 7867TIP3    H123486   2.730   1.179   4.898
 7867TIP3    H223487   2.724   1.099   4.773
 7868TIP3   OH223488   2.549   1.649   5.853
 7868TIP3    H123489   2.499   1.671   5.934
 7868TIP3    H223490   2.534   1.730   5.799
 7869TIP3   OH223491   2.434   1.534   5.368
 7869TIP3    H123492   2.341   1.509   5.385
 7869TIP3    H223493   2.447   1.494   5.279
 7870TIP3   OH223494   2.921   1.620   5.095
 7870TIP3    H123495   2.871   1.695   5.056
 7870TIP3    H223496   2.978   1.594   5.021
 7871TIP3   OH223497   3.098   1.899   6.182
 7871TIP3    H123498   3.077   1.825   6.243
 7871TIP3    H223499   3.193   1.912   6.202
 7872TIP3   OH223500   3.078   1.650   5.336
 7872TIP3    H123501   3.021   1.684   5.264
 7872TIP3    H223502   3.110   1.569   5.291
 7873TIP3   OH223503   2.369   1.679   6.062
 7873TIP3    H123504   2.398   1.743   6.129
 7873TIP3    H223505   2.358   1.597   6.115
 7874TIP3   OH223506   2.418   1.155   4.772
 7874TIP3    H123507   2.409   1.153   4.869
 7874TIP3    H223508   2.340   1.209   4.747
 7875TIP3   OH223509   1.961   1.198   5.646
 7875TIP3    H123510   2.038   1.232   5.697
 7875TIP3    H223511   2.000   1.171   5.562
 7876TIP3   OH223512   1.933   1.181   5.163
 7876TIP3    H123513   1.977   1.218   5.084
 7876TIP3    H223514   1.871   1.254   5.183
 7877TIP3   OH223515   3.087   1.893   5.759
 7877TIP3    H123516   3.123   1.824   5.698
 7877TIP3    H223517   3.060   1.838   5.835
 7878TIP3   OH223518   2.762   1.355   5.428
 7878TIP3    H123519   2.680   1.354   5.482
 7878TIP3    H223520   2.830   1.359   5.497
 7879TIP3   OH223521   2.194   1.413   5.438
 7879TIP3    H123522   2.100   1.421   5.409
 7879TIP3    H223523   2.218   1.322   5.412
 7880TIP3   OH223524   2.463   1.409   5.126
 7880TIP3    H123525   2.557   1.425   5.105
 7880TIP3    H223526   2.416   1.432   5.042
 7881TIP3   OH223527   3.254   1.432   5.631
 7881TIP3    H123528   3.219   1.445   5.722
 7881TIP3    H223529   3.186   1.373   5.594
 7882TIP3   OH223530   2.307   1.442   4.904
 7882TIP3    H123531   2.236   1.397   4.854
 7882TIP3    H223532   2.359   1.480   4.830
 7883TIP3   OH223533   3.423   3.122   5.850
 7883TIP3    H123534   3.421   3.145   5.755
 7883TIP3    H223535   3.503   3.170   5.879
 7884TIP3   OH223536   2.379   2.231   6.271
 7884TIP3    H123537   2.459   2.262   6.318
 7884TIP3    H223538   2.315   2.232   6.345
 7885TIP3   OH223539   2.843   1.682   5.524
 7885TIP3    H123540   2.918   1.649   5.472
 7885TIP3    H223541   2.858   1.641   5.611
 7886TIP3   OH223542   2.365   1.174   5.404
 7886TIP3    H123543   2.332   1.094   5.450
 7886TIP3    H223544   2.414   1.136   5.330
 7887TIP3   OH223545   2.820   1.579   5.823
 7887TIP3    H123546   2.731   1.619   5.830
 7887TIP3    H223547   2.878   1.643   5.868
 7888TIP3   OH223548   2.558   1.971   4.911
 7888TIP3    H123549   2.484   1.908   4.900
 7888TIP3    H223550   2.539   2.007   5.001
 7889TIP3   OH223551   3.456   2.208   5.538
 7889TIP3    H123552   3.473   2.257   5.456
 7889TIP3    H223553   3.369   2.165   5.517
 7890TIP3   OH223554   3.014   1.286   4.769
 7890TIP3    H123555   2.918   1.268   4.782
 7890TIP3    H223556   3.024   1.379   4.798
 7891TIP3   OH223557   2.954   2.289   5.910
 7891TIP3    H123558   2.982   2.274   6.000
 7891TIP3    H223559   2.919   2.379   5.912
 7892TIP3   OH223560   3.085   1.530   4.875
 7892TIP3    H123561   3.180   1.542   4.895
 7892TIP3    H223562   3.062   1.613   4.828
 7893TIP3   OH223563   2.247   1.993   5.587
 7893TIP3    H123564   2.285   1.968   5.500
 7893TIP3    H223565   2.294   1.933   5.647
 7894TIP3   OH223566   2.695   2.116   4.713
 7894TIP3    H123567   2.664   2.207   4.736
 7894TIP3    H223568   2.658   2.066   4.788
 7895TIP3   OH223569   2.129   1.916   6.201
 7895TIP3    H123570   2.149   1.901   6.295
 7895TIP3    H223571   2.061   1.849   6.184
 7896TIP3   OH223572   2.856   2.029   6.221
 7896TIP3    H123573   2.797   1.973   6.168
 7896TIP3    H223574   2.944   1.996   6.192
 7897TIP3   OH223575   3.117   2.549   5.807
 7897TIP3    H123576   3.020   2.549   5.816
 7897TIP3    H223577   3.143   2.603   5.884
 7898TIP3   OH223578   3.524   1.607   4.719
 7898TIP3    H123579   3.462   1.570   4.652
 7898TIP3    H223580   3.533   1.697   4.686
 7899TIP3   OH223581   3.745   2.481   5.793
 7899TIP3    H123582   3.647   2.475   5.783
 7899TIP3    H223583   3.772   2.451   5.703
 7900TIP3   OH223584   3.223   2.441   4.621
 7900TIP3    H123585   3.179   2.379   4.682
 7900TIP3    H223586   3.241   2.388   4.542
 7901TIP3   OH223587   3.224   2.053   5.493
 7901TIP3    H123588   3.128   2.042   5.481
 7901TIP3    H223589   3.258   2.001   5.418
 7902TIP3   OH223590   2.353   2.300   5.219
 7902TIP3    H123591   2.364   2.378   5.162
 7902TIP3    H223592   2.258   2.286   5.215
 7903TIP3   OH223593   1.915   1.603   4.916
 7903TIP3    H123594   1.960   1.687   4.937
 7903TIP3    H223595   1.837   1.608   4.977
 7904TIP3   OH223596   2.485   2.062   5.155
 7904TIP3    H123597   2.457   2.154   5.174
 7904TIP3    H223598   2.448   2.015   5.232
 7905TIP3   OH223599   2.619   2.642   5.681
 7905TIP3    H123600   2.660   2.714   5.629
 7905TIP3    H223601   2.697   2.606   5.726
 7906TIP3   OH223602   2.266   2.539   5.061
 7906TIP3    H123603   2.182   2.549   5.110
 7906TIP3    H223604   2.301   2.630   5.066
 7907TIP3   OH223605   3.008   2.277   5.639
 7907TIP3    H123606   3.001   2.271   5.737
 7907TIP3    H223607   3.086   2.222   5.621
 7908TIP3   OH223608   2.981   2.165   4.521
 7908TIP3    H123609   3.038   2.135   4.595
 7908TIP3    H223610   2.893   2.153   4.561
 7909TIP3   OH223611   3.255   2.812   5.692
 7909TIP3    H123612   3.176   2.756   5.682
 7909TIP3    H223613   3.241   2.876   5.618
 7910TIP3   OH223614   3.316   2.649   4.339
 7910TIP3    H123615   3.365   2.725   4.302
 7910TIP3    H223616   3.236   2.697   4.369
 7911TIP3   OH223617   2.341   1.421   6.209
 7911TIP3    H123618   2.244   1.423   6.219
 7911TIP3    H223619   2.368   1.361   6.280
 7912TIP3   OH223620   3.163   2.078   4.714
 7912TIP3    H123621   3.099   2.051   4.782
 7912TIP3    H223622   3.207   2.145   4.769
 7913TIP3   OH223623   2.056   2.505   5.841
 7913TIP3    H123624   2.111   2.431   5.869
 7913TIP3    H223625   2.088   2.576   5.898
 7914TIP3   OH223626   2.346   2.151   4.523
 7914TIP3    H123627   2.363   2.060   4.495
 7914TIP3    H223628   2.329   2.139   4.619
 7915TIP3   OH223629   2.293   2.155   4.796
 7915TIP3    H123630   2.373   2.130   4.846
 7915TIP3    H223631   2.296   2.253   4.803
 7916TIP3   OH223632   2.028   1.848   4.998
 7916TIP3    H123633   1.962   1.893   5.054
 7916TIP3    H223634   2.044   1.916   4.931
 7917TIP3   OH223635   3.179   1.486   5.890
 7917TIP3    H123636   3.260   1.524   5.928
 7917TIP3    H223637   3.166   1.405   5.944
 7918TIP3   OH223638   3.061   1.235   5.055
 7918TIP3    H123639   3.045   1.260   4.962
 7918TIP3    H223640   3.098   1.318   5.092
 7919TIP3   OH223641   2.559   2.355   4.744
 7919TIP3    H123642   2.472   2.381   4.781
 7919TIP3    H223643   2.575   2.429   4.684
 7920TIP3   OH223644   2.746   1.416   5.156
 7920TIP3    H123645   2.810   1.488   5.138
 7920TIP3    H223646   2.752   1.409   5.254
 7921TIP3   OH223647   3.015   1.732   5.966
 7921TIP3    H123648   3.039   1.787   6.044
 7921TIP3    H223649   3.072   1.654   5.977
 7922TIP3   OH223650   2.890   1.142   5.258
 7922TIP3    H123651   2.880   1.219   5.317
 7922TIP3    H223652   2.952   1.178   5.190
 7923TIP3   OH223653   2.300   2.428   4.810
 7923TIP3    H123654   2.271   2.499   4.748
 7923TIP3    H223655   2.285   2.471   4.897
 7924TIP3   OH223656   2.403   1.142   5.049
 7924TIP3    H123657   2.401   1.233   5.084
 7924TIP3    H223658   2.499   1.123   5.057
 7925TIP3   OH223659   3.657   1.634   5.946
 7925TIP3    H123660   3.559   1.633   5.953
 7925TIP3    H223661   3.668   1.596   5.858
 7926TIP3   OH223662   3.310   1.825   5.328
 7926TIP3    H123663   3.232   1.771   5.345
 7926TIP3    H223664   3.379   1.781   5.381
 7927TIP3   OH223665   2.022   2.057   4.803
 7927TIP3    H123666   2.091   2.125   4.813
 7927TIP3    H223667   2.065   2.001   4.736
 7928TIP3   OH223668   1.964   1.332   4.938
 7928TIP3    H123669   1.964   1.430   4.934
 7928TIP3    H223670   1.883   1.311   4.890
 7929TIP3   OH223671   3.275   2.792   5.283
 7929TIP3    H123672   3.233   2.838   5.207
 7929TIP3    H223673   3.370   2.808   5.261
 7930TIP3   OH223674   2.352   1.054   5.810
 7930TIP3    H123675   2.321   1.022   5.722
 7930TIP3    H223676   2.341   0.974   5.866
 7931TIP3   OH223677   1.893   2.274   5.190
 7931TIP3    H123678   1.820   2.303   5.247
 7931TIP3    H223679   1.866   2.314   5.104
 7932TIP3   OH223680   2.049   2.815   6.262
 7932TIP3    H123681   2.135   2.815   6.309
 7932TIP3    H223682   2.029   2.720   6.260
 7933TIP3   OH223683   2.529   2.777   6.308
 7933TIP3    H123684   2.624   2.759   6.313
 7933TIP3    H223685   2.504   2.718   6.234
 7934TIP3   OH223686   2.510   2.354   4.434
 7934TIP3    H123687   2.452   2.284   4.474
 7934TIP3    H223688   2.585   2.299   4.407
 7935TIP3   OH223689   3.165   2.687   6.042
 7935TIP3    H123690   3.160   2.615   6.110
 7935TIP3    H223691   3.245   2.736   6.071
 7936TIP3   OH223692   2.945   2.394   4.349
 7936TIP3    H123693   2.987   2.328   4.406
 7936TIP3    H223694   2.999   2.392   4.268
 7937TIP3   OH223695   2.178   2.219   6.463
 7937TIP3    H123696   2.195   2.123   6.466
 7937TIP3    H223697   2.091   2.223   6.418
 7938TIP3   OH223698   2.156   1.870   4.657
 7938TIP3    H123699   2.213   1.839   4.730
 7938TIP3    H223700   2.223   1.875   4.585
 7939TIP3   OH223701   2.785   2.305   6.237
 7939TIP3    H123702   2.746   2.324   6.149
 7939TIP3    H223703   2.817   2.213   6.226
 7940TIP3   OH223704   2.660   2.066   4.451
 7940TIP3    H123705   2.664   2.083   4.548
 7940TIP3    H223706   2.661   1.968   4.451
 7941TIP3   OH223707   3.280   2.316   5.846
 7941TIP3    H123708   3.354   2.357   5.797
 7941TIP3    H223709   3.210   2.381   5.828
 7942TIP3   OH223710   2.297   1.953   6.447
 7942TIP3    H123711   2.376   1.906   6.417
 7942TIP3    H223712   2.325   1.987   6.534
 7943TIP3   OH223713   2.359   1.775   4.875
 7943TIP3    H123714   2.337   1.733   4.960
 7943TIP3    H223715   2.398   1.700   4.825
 7944TIP3   OH223716   2.633   1.837   6.105
 7944TIP3    H123717   2.556   1.898   6.107
 7944TIP3    H223718   2.684   1.872   6.028
 7945TIP3   OH223719   2.465   1.568   4.719
 7945TIP3    H123720   2.439   1.573   4.624
 7945TIP3    H223721   2.563   1.574   4.711
 7946TIP3   OH223722   3.150   2.241   6.241
 7946TIP3    H123723   3.227   2.215   6.188
 7946TIP3    H223724   3.148   2.173   6.310
 7947TIP3   OH223725   3.306   1.915   4.369
 7947TIP3    H123726   3.274   1.855   4.299
 7947TIP3    H223727   3.247   1.992   4.349
 7948TIP3   OH223728   2.755   1.627   6.233
 7948TIP3    H123729   2.757   1.548   6.175
 7948TIP3    H223730   2.713   1.694   6.174
 7949TIP3   OH223731   2.759   1.412   6.041
 7949TIP3    H123732   2.787   1.456   5.958
 7949TIP3    H223733   2.665   1.391   6.020
 7950TIP3   OH223734   2.786   1.949   5.914
 7950TIP3    H123735   2.870   1.959   5.867
 7950TIP3    H223736   2.730   2.016   5.868
 7951TIP3   OH223737   3.368   1.916   6.294
 7951TIP3    H123738   3.416   1.833   6.302
 7951TIP3    H223739   3.435   1.974   6.255
 7952TIP3   OH223740   3.409   2.170   6.032
 7952TIP3    H123741   3.351   2.224   5.972
 7952TIP3    H223742   3.496   2.190   5.991
 7953TIP3   OH223743   2.634   1.737   6.465
 7953TIP3    H123744   2.566   1.668   6.476
 7953TIP3    H223745   2.669   1.715   6.376
 7954TIP3   OH223746   2.890   1.177   6.109
 7954TIP3    H123747   2.844   1.260   6.085
 7954TIP3    H223748   2.823   1.111   6.088
 7955TIP3   OH223749   3.018   1.680   6.323
 7955TIP3    H123750   3.005   1.668   6.419
 7955TIP3    H223751   2.928   1.657   6.292
 7956TIP3   OH223752   3.257   1.632   6.178
 7956TIP3    H123753   3.181   1.632   6.240
 7956TIP3    H223754   3.330   1.600   6.235
 7957TIP3   OH223755   3.487   1.572   6.329
 7957TIP3    H123756   3.499   1.476   6.346
 7957TIP3    H223757   3.482   1.610   6.419
 7958TIP3   OH223758   2.473   1.517   6.517
 7958TIP3    H123759   2.480   1.427   6.481
 7958TIP3    H223760   2.512   1.504   6.606
 7959TIP3   OH223761   2.985   1.186   6.366
 7959TIP3    H123762   3.053   1.116   6.360
 7959TIP3    H223763   2.947   1.182   6.276
 7960TIP3   OH223764   3.051   1.402   6.523
 7960TIP3    H123765   3.030   1.330   6.459
 7960TIP3    H223766   2.973   1.460   6.516
 7961TIP3   OH223767   2.272   2.632   4.624
 7961TIP3    H123768   2.368   2.625   4.605
 7961TIP3    H223769   2.244   2.681   4.544
 7962TIP3   OH223770   1.753   2.012   4.841
 7962TIP3    H123771   1.847   2.034   4.825
 7962TIP3    H223772   1.747   1.923   4.798
 7963TIP3   OH223773   1.663   2.625   5.256
 7963TIP3    H123774   1.599   2.561   5.218
 7963TIP3    H223775   1.710   2.567   5.320
 7964TIP3   OH223776   1.800   2.476   5.441
 7964TIP3    H123777   1.792   2.401   5.503
 7964TIP3    H223778   1.854   2.537   5.495
 7965TIP3   OH223779   3.530   2.877   5.241
 7965TIP3    H123780   3.561   2.912   5.326
 7965TIP3    H223781   3.594   2.914   5.178
 7966TIP3   OH223782   3.559   2.899   5.524
 7966TIP3    H123783   3.515   2.812   5.518
 7966TIP3    H223784   3.637   2.873   5.577
 7967TIP3   OH223785   3.607   2.572   6.097
 7967TIP3    H123786   3.533   2.582   6.160
 7967TIP3    H223787   3.647   2.661   6.099
 7968TIP3   OH223788   3.551   1.939   4.896
 7968TIP3    H123789   3.480   1.910   4.956
 7968TIP3    H223790   3.604   1.996   4.955
 7969TIP3   OH223791   3.614   2.350   5.358
 7969TIP3    H123792   3.653   2.281   5.301
 7969TIP3    H223793   3.592   2.419   5.293
 7970TIP3   OH223794   3.440   2.649   5.552
 7970TIP3    H123795   3.366   2.690   5.601
 7970TIP3    H223796   3.391   2.602   5.480
 7971TIP3   OH223797   3.490   1.931   4.560
 7971TIP3    H123798   3.403   1.897   4.529
 7971TIP3    H223799   3.473   1.944   4.656
 7972TIP3   OH223800   3.361   1.539   4.511
 7972TIP3    H123801   3.307   1.567   4.436
 7972TIP3    H223802   3.340   1.443   4.512
 7973TIP3   OH223803   3.371   1.812   5.062
 7973TIP3    H123804   3.371   1.715   5.062
 7973TIP3    H223805   3.354   1.831   5.157
 7974TIP3   OH223806   1.989   1.882   5.813
 7974TIP3    H123807   1.987   1.851   5.719
 7974TIP3    H223808   2.086   1.885   5.828
 7975TIP3   OH223809   3.652   2.235   5.924
 7975TIP3    H123810   3.725   2.169   5.912
 7975TIP3    H223811   3.675   2.303   5.858
 7976TIP3   OH223812   3.837   2.039   5.937
 7976TIP3    H123813   3.762   1.989   5.976
 7976TIP3    H223814   3.910   1.974   5.952
 7977TIP3   OH223815   3.302   1.273   4.508
 7977TIP3    H123816   3.376   1.238   4.562
 7977TIP3    H223817   3.228   1.214   4.529
 7978TIP3   OH223818   3.359   1.524   4.961
 7978TIP3    H123819   3.399   1.435   4.976
 7978TIP3    H223820   3.418   1.557   4.892
 7979TIP3   OH223821   3.522   1.696   5.456
 7979TIP3    H123822   3.607   1.724   5.414
 7979TIP3    H223823   3.534   1.737   5.544
 7980TIP3   OH223824   3.591   1.845   5.686
 7980TIP3    H123825   3.512   1.878   5.733
 7980TIP3    H223826   3.622   1.926   5.640
 7981TIP3   OH223827   2.206   1.569   6.489
 7981TIP3    H123828   2.304   1.563   6.488
 7981TIP3    H223829   2.183   1.482   6.527
 7982TIP3   OH223830   4.043   1.437   6.242
 7982TIP3    H123831   4.101   1.371   6.198
 7982TIP3    H223832   4.012   1.490   6.166
 7983TIP3   OH223833   3.470   1.274   4.996
 7983TIP3    H123834   3.516   1.259   5.081
 7983TIP3    H223835   3.408   1.199   4.995
 7984TIP3   OH223836   2.169   1.262   5.819
 7984TIP3    H123837   2.232   1.188   5.826
 7984TIP3    H223838   2.230   1.338   5.810
 7985TIP3   OH223839   1.971   1.535   5.891
 7985TIP3    H123840   2.019   1.529   5.806
 7985TIP3    H223841   1.999   1.622   5.922
 7986TIP3   OH223842   3.911   1.573   6.049
 7986TIP3    H123843   3.825   1.615   6.067
 7986TIP3    H223844   3.881   1.502   5.989
 7987TIP3   OH223845   3.549   1.210   4.629
 7987TIP3    H123846   3.589   1.137   4.577
 7987TIP3    H223847   3.618   1.279   4.626
 7988TIP3   OH223848   1.954   1.040   5.392
 7988TIP3    H123849   1.860   1.036   5.417
 7988TIP3    H223850   1.952   1.098   5.313
 7989TIP3   OH223851   3.115   2.734   4.902
 7989TIP3    H123852   3.163   2.726   4.817
 7989TIP3    H223853   3.167   2.802   4.947
 7990TIP3   OH223854   2.175   1.118   6.204
 7990TIP3    H123855   2.124   1.111   6.286
 7990TIP3    H223856   2.109   1.158   6.144
 7991TIP3   OH223857   2.214   2.547   6.281
 7991TIP3    H123858   2.122   2.520   6.264
 7991TIP3    H223859   2.223   2.530   6.376
 7992TIP3   OH223860   2.393   2.581   5.830
 7992TIP3    H123861   2.346   2.657   5.790
 7992TIP3    H223862   2.479   2.593   5.785
 7993TIP3   OH223863   2.836   2.824   5.968
 7993TIP3    H123864   2.879   2.824   6.056
 7993TIP3    H223865   2.902   2.874   5.915
 7994TIP3   OH223866   3.015   2.976   5.827
 7994TIP3    H123867   3.083   2.926   5.781
 7994TIP3    H223868   3.069   3.032   5.887
 7995TIP3   OH223869   3.811   1.337   5.926
 7995TIP3    H123870   3.720   1.332   5.892
 7995TIP3    H223871   3.841   1.244   5.914
 7996TIP3   OH223872   2.068   2.836   5.853
 7996TIP3    H123873   1.979   2.870   5.830
 7996TIP3    H223874   2.080   2.875   5.940
 7997TIP3   OH223875   2.306   2.816   5.712
 7997TIP3    H123876   2.218   2.828   5.755
 7997TIP3    H223877   2.287   2.846   5.621
 7998TIP3   OH223878   2.729   2.842   5.512
 7998TIP3    H123879   2.664   2.861   5.443
 7998TIP3    H223880   2.743   2.930   5.552
 7999TIP3   OH223881   3.000   2.784   5.566
 7999TIP3    H123882   2.907   2.797   5.541
 7999TIP3    H223883   3.044   2.854   5.515
 8000TIP3   OH223884   3.208   2.975   5.476
 8000TIP3    H123885   3.193   3.059   5.427
 8000TIP3    H223886   3.234   2.914   5.403
 8001TIP3   OH223887   1.979   2.629   5.599
 8001TIP3    H123888   2.007   2.603   5.689
 8001TIP3    H223889   2.051   2.586   5.547
 8002TIP3   OH223890   2.174   2.502   5.457
 8002TIP3    H123891   2.191   2.417   5.504
 8002TIP3    H223892   2.264   2.538   5.451
 8003TIP3   OH223893   2.439   2.598   5.460
 8003TIP3    H123894   2.474   2.510   5.438
 8003TIP3    H223895   2.487   2.615   5.543
 8004TIP3   OH223896   3.023   1.258   5.544
 8004TIP3    H123897   2.974   1.189   5.593
 8004TIP3    H223898   3.092   1.206   5.499
 8005TIP3   OH223899   3.539   1.132   5.450
 8005TIP3    H123900   3.574   1.185   5.375
 8005TIP3    H223901   3.444   1.150   5.444
 8006TIP3   OH223902   3.635   1.233   5.214
 8006TIP3    H123903   3.709   1.182   5.174
 8006TIP3    H223904   3.667   1.325   5.199
 8007TIP3   OH223905   2.262   0.962   5.563
 8007TIP3    H123906   2.170   0.930   5.562
 8007TIP3    H223907   2.311   0.877   5.560
 8008TIP3   OH223908   2.056   0.830   5.212
 8008TIP3    H123909   2.084   0.886   5.138
 8008TIP3    H223910   2.025   0.897   5.277
 8009TIP3   OH223911   2.707   1.001   5.444
 8009TIP3    H123912   2.766   1.041   5.377
 8009TIP3    H223913   2.741   1.040   5.526
 8010TIP3   OH223914   3.257   1.139   5.426
 8010TIP3    H123915   3.253   1.099   5.338
 8010TIP3    H223916   3.244   1.060   5.484
 8011TIP3   OH223917   3.285   1.062   4.989
 8011TIP3    H123918   3.199   1.106   5.003
 8011TIP3    H223919   3.269   0.977   5.037
 8012TIP3   OH223920   1.767   2.404   4.990
 8012TIP3    H123921   1.682   2.370   4.955
 8012TIP3    H223922   1.758   2.497   4.965
 8013TIP3   OH223923   2.169   0.988   4.974
 8013TIP3    H123924   2.217   0.927   4.916
 8013TIP3    H223925   2.242   1.043   5.009
 8014TIP3   OH223926   2.680   1.166   5.070
 8014TIP3    H123927   2.741   1.119   5.131
 8014TIP3    H223928   2.701   1.258   5.096
 8015TIP3   OH223929   2.539   2.590   4.571
 8015TIP3    H123930   2.628   2.612   4.535
 8015TIP3    H223931   2.518   2.515   4.511
 8016TIP3   OH223932   3.254   2.710   4.666
 8016TIP3    H123933   3.253   2.613   4.652
 8016TIP3    H223934   3.214   2.741   4.582
 8017TIP3   OH223935   2.471   1.241   6.455
 8017TIP3    H123936   2.438   1.169   6.511
 8017TIP3    H223937   2.566   1.241   6.481
 8018TIP3   OH223938   2.721   1.241   6.572
 8018TIP3    H123939   2.807   1.215   6.533
 8018TIP3    H223940   2.709   1.170   6.639
 8019TIP3   OH223941   1.845   2.425   4.628
 8019TIP3    H123942   1.850   2.451   4.720
 8019TIP3    H223943   1.933   2.383   4.612
 8020TIP3   OH223944   3.547   1.301   6.359
 8020TIP3    H123945   3.566   1.270   6.451
 8020TIP3    H223946   3.636   1.295   6.318
 8021TIP3   OH223947   3.484   2.852   5.854
 8021TIP3    H123948   3.407   2.821   5.802
 8021TIP3    H223949   3.466   2.948   5.855
 8022TIP3   OH223950   4.757   2.229   4.610
 8022TIP3    H123951   4.727   2.320   4.594
 8022TIP3    H223952   4.677   2.179   4.583
 8023TIP3   OH223953   4.752   2.223   4.999
 8023TIP3    H123954   4.785   2.200   5.087
 8023TIP3    H223955   4.708   2.140   4.972
 8024TIP3   OH223956   4.052   2.119   5.362
 8024TIP3    H123957   4.083   2.052   5.426
 8024TIP3    H223958   4.129   2.179   5.360
 8025TIP3   OH223959   4.994   2.534   4.679
 8025TIP3    H123960   4.981   2.464   4.744
 8025TIP3    H223961   5.024   2.608   4.735
 8026TIP3   OH223962   4.024   2.530   5.092
 8026TIP3    H123963   4.014   2.432   5.092
 8026TIP3    H223964   4.120   2.538   5.081
 8027TIP3   OH223965   3.735   1.731   4.867
 8027TIP3    H123966   3.687   1.814   4.890
 8027TIP3    H223967   3.660   1.671   4.853
 8028TIP3   OH223968   3.788   2.020   5.041
 8028TIP3    H123969   3.835   1.944   5.082
 8028TIP3    H223970   3.855   2.056   4.981
 8029TIP3   OH223971   4.645   2.987   4.694
 8029TIP3    H123972   4.693   2.915   4.650
 8029TIP3    H223973   4.636   2.954   4.784
 8030TIP3   OH223974   4.550   2.449   5.047
 8030TIP3    H123975   4.590   2.374   5.001
 8030TIP3    H223976   4.632   2.496   5.073
 8031TIP3   OH223977   5.563   1.771   5.045
 8031TIP3    H123978   5.592   1.854   5.089
 8031TIP3    H223979   5.584   1.791   4.952
 8032TIP3   OH223980   4.962   1.952   5.079
 8032TIP3    H123981   5.005   1.867   5.099
 8032TIP3    H223982   4.931   1.936   4.988
 8033TIP3   OH223983   4.301   1.611   5.044
 8033TIP3    H123984   4.281   1.685   4.982
 8033TIP3    H223985   4.252   1.538   5.000
 8034TIP3   OH223986   4.995   1.703   4.666
 8034TIP3    H123987   5.067   1.687   4.732
 8034TIP3    H223988   5.047   1.738   4.592
 8035TIP3   OH223989   3.933   1.813   5.151
 8035TIP3    H123990   4.016   1.795   5.200
 8035TIP3    H223991   3.948   1.757   5.072
 8036TIP3   OH223992   4.375   2.011   4.943
 8036TIP3    H123993   4.469   1.986   4.958
 8036TIP3    H223994   4.336   1.927   4.912
 8037TIP3   OH223995   5.637   1.979   5.215
 8037TIP3    H123996   5.553   2.026   5.196
 8037TIP3    H223997   5.653   2.006   5.306
 8038TIP3   OH223998   4.296   1.595   5.479
 8038TIP3    H123999   4.237   1.632   5.411
 8038TIP3    H224000   4.244   1.614   5.560
 8039TIP3   OH224001   4.658   2.460   4.473
 8039TIP3    H124002   4.600   2.429   4.402
 8039TIP3    H224003   4.606   2.538   4.504
 8040TIP3   OH224004   4.403   2.371   5.273
 8040TIP3    H124005   4.341   2.437   5.311
 8040TIP3    H224006   4.445   2.421   5.201
 8041TIP3   OH224007   5.204   1.706   4.840
 8041TIP3    H124008   5.191   1.661   4.924
 8041TIP3    H224009   5.257   1.784   4.867
 8042TIP3   OH224010   4.168   1.710   5.263
 8042TIP3    H124011   4.229   1.783   5.286
 8042TIP3    H224012   4.217   1.670   5.188
 8043TIP3   OH224013   4.232   2.565   5.372
 8043TIP3    H124014   4.206   2.650   5.332
 8043TIP3    H224015   4.152   2.550   5.428
 8044TIP3   OH224016   5.063   2.769   4.843
 8044TIP3    H124017   4.975   2.762   4.885
 8044TIP3    H224018   5.057   2.857   4.802
 8045TIP3   OH224019   5.357   1.669   5.210
 8045TIP3    H124020   5.269   1.700   5.180
 8045TIP3    H224021   5.416   1.702   5.140
 8046TIP3   OH224022   4.652   1.314   5.193
 8046TIP3    H124023   4.638   1.219   5.210
 8046TIP3    H224024   4.575   1.352   5.240
 8047TIP3   OH224025   4.772   2.812   4.521
 8047TIP3    H124026   4.825   2.732   4.502
 8047TIP3    H224027   4.830   2.881   4.480
 8048TIP3   OH224028   4.907   2.573   4.420
 8048TIP3    H124029   4.823   2.526   4.438
 8048TIP3    H224030   4.955   2.556   4.504
 8049TIP3   OH224031   5.290   2.682   5.192
 8049TIP3    H124032   5.279   2.606   5.132
 8049TIP3    H224033   5.272   2.758   5.132
 8050TIP3   OH224034   4.582   2.073   4.451
 8050TIP3    H124035   4.499   2.124   4.437
 8050TIP3    H224036   4.618   2.071   4.361
 8051TIP3   OH224037   4.542   1.854   4.169
 8051TIP3    H124038   4.610   1.899   4.221
 8051TIP3    H224039   4.598   1.795   4.115
 8052TIP3   OH224040   5.485   2.319   5.035
 8052TIP3    H124041   5.403   2.372   5.041
 8052TIP3    H224042   5.516   2.345   4.946
 8053TIP3   OH224043   4.930   2.150   4.412
 8053TIP3    H124044   4.877   2.185   4.488
 8053TIP3    H224045   5.014   2.131   4.458
 8054TIP3   OH224046   5.165   2.198   5.334
 8054TIP3    H124047   5.163   2.281   5.384
 8054TIP3    H224048   5.079   2.204   5.288
 8055TIP3   OH224049   4.163   2.156   4.837
 8055TIP3    H124050   4.123   2.098   4.769
 8055TIP3    H224051   4.240   2.104   4.866
 8056TIP3   OH224052   4.290   2.565   4.987
 8056TIP3    H124053   4.269   2.531   4.898
 8056TIP3    H224054   4.380   2.531   5.002
 8057TIP3   OH224055   4.302   2.127   5.191
 8057TIP3    H124056   4.333   2.108   5.101
 8057TIP3    H224057   4.342   2.215   5.211
 8058TIP3   OH224058   4.825   2.765   4.968
 8058TIP3    H124059   4.810   2.847   5.019
 8058TIP3    H224060   4.808   2.694   5.033
 8059TIP3   OH224061   4.437   2.684   5.517
 8059TIP3    H124062   4.376   2.747   5.562
 8059TIP3    H224063   4.372   2.631   5.466
 8060TIP3   OH224064   4.772   2.014   4.242
 8060TIP3    H124065   4.829   2.067   4.304
 8060TIP3    H224066   4.760   2.074   4.168
 8061TIP3   OH224067   4.191   2.238   5.619
 8061TIP3    H124068   4.196   2.327   5.660
 8061TIP3    H224069   4.095   2.220   5.628
 8062TIP3   OH224070   4.517   2.691   4.522
 8062TIP3    H124071   4.590   2.753   4.540
 8062TIP3    H224072   4.449   2.749   4.485
 8063TIP3   OH224073   4.231   2.852   5.602
 8063TIP3    H124074   4.197   2.853   5.511
 8063TIP3    H224075   4.151   2.830   5.654
 8064TIP3   OH224076   5.286   1.258   4.295
 8064TIP3    H124077   5.205   1.279   4.345
 8064TIP3    H224078   5.300   1.341   4.244
 8065TIP3   OH224079   4.028   1.999   4.639
 8065TIP3    H124080   3.963   2.040   4.579
 8065TIP3    H224081   3.988   1.914   4.658
 8066TIP3   OH224082   5.089   2.624   3.847
 8066TIP3    H124083   5.092   2.721   3.828
 8066TIP3    H224084   5.182   2.599   3.828
 8067TIP3   OH224085   3.811   2.385   5.550
 8067TIP3    H124086   3.742   2.369   5.481
 8067TIP3    H224087   3.845   2.295   5.568
 8068TIP3   OH224088   3.664   2.578   5.179
 8068TIP3    H124089   3.760   2.572   5.170
 8068TIP3    H224090   3.654   2.657   5.234
 8069TIP3   OH224091   5.529   3.028   5.240
 8069TIP3    H124092   5.526   2.932   5.255
 8069TIP3    H224093   5.445   3.055   5.284
 8070TIP3   OH224094   4.635   2.813   5.373
 8070TIP3    H124095   4.633   2.906   5.405
 8070TIP3    H224096   4.563   2.774   5.427
 8071TIP3   OH224097   4.399   2.946   4.322
 8071TIP3    H124098   4.344   2.925   4.245
 8071TIP3    H224099   4.363   3.032   4.351
 8072TIP3   OH224100   3.827   2.799   4.711
 8072TIP3    H124101   3.879   2.786   4.793
 8072TIP3    H224102   3.781   2.712   4.706
 8073TIP3   OH224103   4.601   2.843   3.960
 8073TIP3    H124104   4.657   2.768   3.932
 8073TIP3    H224105   4.630   2.856   4.053
 8074TIP3   OH224106   4.648   2.890   4.231
 8074TIP3    H124107   4.558   2.903   4.269
 8074TIP3    H224108   4.695   2.856   4.309
 8075TIP3   OH224109   5.418   2.158   5.514
 8075TIP3    H124110   5.337   2.171   5.463
 8075TIP3    H224111   5.434   2.062   5.503
 8076TIP3   OH224112   4.015   2.566   5.537
 8076TIP3    H124113   4.064   2.549   5.620
 8076TIP3    H224114   3.940   2.503   5.544
 8077TIP3   OH224115   4.414   1.390   5.323
 8077TIP3    H124116   4.325   1.359   5.296
 8077TIP3    H224117   4.389   1.472   5.369
 8078TIP3   OH224118   4.948   1.504   5.516
 8078TIP3    H124119   5.017   1.478   5.581
 8078TIP3    H224120   4.865   1.485   5.564
 8079TIP3   OH224121   5.185   1.934   5.433
 8079TIP3    H124122   5.136   1.931   5.519
 8079TIP3    H224123   5.162   2.022   5.399
 8080TIP3   OH224124   4.558   1.438   4.293
 8080TIP3    H124125   4.525   1.435   4.385
 8080TIP3    H224126   4.519   1.356   4.259
 8081TIP3   OH224127   4.346   1.905   5.340
 8081TIP3    H124128   4.295   1.927   5.421
 8081TIP3    H224129   4.331   1.987   5.287
 8082TIP3   OH224130   4.230   1.791   4.854
 8082TIP3    H124131   4.138   1.765   4.873
 8082TIP3    H224132   4.242   1.750   4.765
 8083TIP3   OH224133   4.720   1.876   4.585
 8083TIP3    H124134   4.669   1.948   4.541
 8083TIP3    H224135   4.776   1.844   4.511
 8084TIP3   OH224136   4.895   2.154   5.667
 8084TIP3    H124137   4.873   2.082   5.730
 8084TIP3    H224138   4.988   2.170   5.689
 8085TIP3   OH224139   4.877   1.905   4.822
 8085TIP3    H124140   4.816   1.934   4.751
 8085TIP3    H224141   4.911   1.824   4.778
 8086TIP3   OH224142   4.166   1.934   5.549
 8086TIP3    H124143   4.190   2.000   5.616
 8086TIP3    H224144   4.154   1.854   5.602
 8087TIP3   OH224145   4.215   1.412   4.258
 8087TIP3    H124146   4.206   1.411   4.356
 8087TIP3    H224147   4.136   1.464   4.233
 8088TIP3   OH224148   3.758   1.457   5.128
 8088TIP3    H124149   3.832   1.488   5.183
 8088TIP3    H224150   3.801   1.422   5.049
 8089TIP3   OH224151   3.732   1.432   4.650
 8089TIP3    H124152   3.774   1.473   4.572
 8089TIP3    H224153   3.669   1.502   4.674
 8090TIP3   OH224154   4.885   2.152   5.243
 8090TIP3    H124155   4.920   2.080   5.184
 8090TIP3    H224156   4.857   2.099   5.320
 8091TIP3   OH224157   4.557   1.613   4.915
 8091TIP3    H124158   4.476   1.612   4.969
 8091TIP3    H224159   4.626   1.612   4.984
 8092TIP3   OH224160   3.993   1.670   4.923
 8092TIP3    H124161   3.899   1.678   4.895
 8092TIP3    H224162   4.015   1.577   4.901
 8093TIP3   OH224163   4.259   1.665   4.611
 8093TIP3    H124164   4.353   1.681   4.592
 8093TIP3    H224165   4.213   1.689   4.528
 8094TIP3   OH224166   5.049   1.689   5.116
 8094TIP3    H124167   5.016   1.702   5.208
 8094TIP3    H224168   4.981   1.629   5.081
 8095TIP3   OH224169   4.100   1.701   4.389
 8095TIP3    H124170   4.034   1.652   4.336
 8095TIP3    H224171   4.154   1.740   4.317
 8096TIP3   OH224172   5.220   3.378   5.337
 8096TIP3    H124173   5.217   3.404   5.243
 8096TIP3    H224174   5.298   3.428   5.368
 8097TIP3   OH224175   4.176   2.487   5.758
 8097TIP3    H124176   4.256   2.518   5.805
 8097TIP3    H224177   4.111   2.488   5.831
 8098TIP3   OH224178   4.640   1.942   5.012
 8098TIP3    H124179   4.714   1.903   4.964
 8098TIP3    H224180   4.648   1.900   5.100
 8099TIP3   OH224181   4.161   1.429   4.892
 8099TIP3    H124182   4.127   1.351   4.940
 8099TIP3    H224183   4.212   1.389   4.821
 8100TIP3   OH224184   4.616   1.839   5.304
 8100TIP3    H124185   4.527   1.876   5.317
 8100TIP3    H224186   4.673   1.901   5.354
 8101TIP3   OH224187   4.358   2.222   4.402
 8101TIP3    H124188   4.278   2.169   4.383
 8101TIP3    H224189   4.334   2.262   4.489
 8102TIP3   OH224190   5.254   2.465   5.026
 8102TIP3    H124191   5.278   2.516   4.945
 8102TIP3    H224192   5.168   2.425   5.000
 8103TIP3   OH224193   4.811   1.538   4.262
 8103TIP3    H124194   4.714   1.521   4.270
 8103TIP3    H224195   4.820   1.633   4.286
 8104TIP3   OH224196   4.749   2.546   5.396
 8104TIP3    H124197   4.778   2.530   5.486
 8104TIP3    H224198   4.714   2.637   5.400
 8105TIP3   OH224199   4.880   1.786   4.367
 8105TIP3    H124200   4.977   1.791   4.383
 8105TIP3    H224201   4.864   1.864   4.311
 8106TIP3   OH224202   4.044   2.249   5.074
 8106TIP3    H124203   4.085   2.223   4.989
 8106TIP3    H224204   4.087   2.189   5.136
 8107TIP3   OH224205   4.504   2.386   4.236
 8107TIP3    H124206   4.452   2.470   4.232
 8107TIP3    H224207   4.442   2.328   4.286
 8108TIP3   OH224208   3.928   2.168   5.686
 8108TIP3    H124209   3.943   2.155   5.781
 8108TIP3    H224210   3.855   2.106   5.668
 8109TIP3   OH224211   4.652   2.285   5.708
 8109TIP3    H124212   4.592   2.228   5.657
 8109TIP3    H224213   4.739   2.252   5.678
 8110TIP3   OH224214   4.912   2.802   5.294
 8110TIP3    H124215   4.816   2.806   5.305
 8110TIP3    H224216   4.941   2.857   5.370
 8111TIP3   OH224217   5.317   1.859   4.208
 8111TIP3    H124218   5.253   1.827   4.141
 8111TIP3    H224219   5.340   1.945   4.170
 8112TIP3   OH224220   5.540   2.735   5.282
 8112TIP3    H124221   5.443   2.731   5.272
 8112TIP3    H224222   5.567   2.707   5.191
 8113TIP3   OH224223   4.994   2.699   4.101
 8113TIP3    H124224   5.015   2.646   4.179
 8113TIP3    H224225   5.045   2.658   4.028
 8114TIP3   OH224226   5.019   2.328   4.944
 8114TIP3    H124227   4.925   2.303   4.957
 8114TIP3    H224228   5.053   2.248   4.899
 8115TIP3   OH224229   4.146   2.551   4.702
 8115TIP3    H124230   4.146   2.638   4.656
 8115TIP3    H224231   4.051   2.536   4.708
 8116TIP3   OH224232   3.705   1.867   4.400
 8116TIP3    H124233   3.769   1.939   4.421
 8116TIP3    H224234   3.658   1.860   4.485
 8117TIP3   OH224235   4.285   2.321   4.642
 8117TIP3    H124236   4.248   2.411   4.658
 8117TIP3    H224237   4.248   2.273   4.718
 8118TIP3   OH224238   4.416   2.899   5.168
 8118TIP3    H124239   4.456   2.972   5.117
 8118TIP3    H224240   4.494   2.865   5.216
 8119TIP3   OH224241   4.087   2.793   4.586
 8119TIP3    H124242   3.990   2.795   4.589
 8119TIP3    H224243   4.107   2.884   4.559
 8120TIP3   OH224244   4.803   2.532   5.127
 8120TIP3    H124245   4.792   2.531   5.225
 8120TIP3    H224246   4.885   2.484   5.116
 8121TIP3   OH224247   4.787   2.370   4.071
 8121TIP3    H124248   4.761   2.439   4.134
 8121TIP3    H224249   4.700   2.356   4.028
 8122TIP3   OH224250   5.052   3.065   5.175
 8122TIP3    H124251   4.971   3.012   5.166
 8122TIP3    H224252   5.039   3.132   5.104
 8123TIP3   OH224253   5.115   2.899   3.829
 8123TIP3    H124254   5.154   2.970   3.775
 8123TIP3    H224255   5.037   2.949   3.863
 8124TIP3   OH224256   4.136   1.677   5.695
 8124TIP3    H124257   4.040   1.681   5.707
 8124TIP3    H224258   4.163   1.618   5.767
 8125TIP3   OH224259   3.853   2.763   5.327
 8125TIP3    H124260   3.906   2.687   5.358
 8125TIP3    H224261   3.886   2.833   5.385
 8126TIP3   OH224262   4.183   2.391   4.004
 8126TIP3    H124263   4.163   2.298   3.984
 8126TIP3    H224264   4.146   2.400   4.095
 8127TIP3   OH224265   4.101   2.414   4.266
 8127TIP3    H124266   4.134   2.415   4.356
 8127TIP3    H224267   4.026   2.478   4.270
 8128TIP3   OH224268   3.803   2.105   4.492
 8128TIP3    H124269   3.798   2.173   4.561
 8128TIP3    H224270   3.810   2.165   4.413
 8129TIP3   OH224271   4.976   1.740   5.375
 8129TIP3    H124272   5.055   1.781   5.415
 8129TIP3    H224273   4.963   1.660   5.431
 8130TIP3   OH224274   4.855   1.491   4.543
 8130TIP3    H124275   4.842   1.514   4.449
 8130TIP3    H224276   4.894   1.574   4.579
 8131TIP3   OH224277   4.361   2.616   4.228
 8131TIP3    H124278   4.276   2.634   4.271
 8131TIP3    H224279   4.365   2.688   4.163
 8132TIP3   OH224280   4.541   1.673   4.644
 8132TIP3    H124281   4.607   1.744   4.627
 8132TIP3    H224282   4.548   1.664   4.742
 8133TIP3   OH224283   4.813   1.990   5.451
 8133TIP3    H124284   4.835   2.045   5.529
 8133TIP3    H224285   4.869   1.912   5.465
 8134TIP3   OH224286   4.687   1.398   4.746
 8134TIP3    H124287   4.681   1.474   4.806
 8134TIP3    H224288   4.748   1.433   4.677
 8135TIP3   OH224289   4.199   1.398   4.535
 8135TIP3    H124290   4.197   1.488   4.573
 8135TIP3    H224291   4.295   1.380   4.543
 8136TIP3   OH224292   5.452   1.892   5.431
 8136TIP3    H124293   5.354   1.890   5.438
 8136TIP3    H224294   5.463   1.849   5.345
 8137TIP3   OH224295   5.104   2.085   4.820
 8137TIP3    H124296   5.028   2.026   4.833
 8137TIP3    H224297   5.176   2.039   4.868
 8138TIP3   OH224298   3.803   2.289   4.301
 8138TIP3    H124299   3.801   2.388   4.304
 8138TIP3    H224300   3.869   2.278   4.229
 8139TIP3   OH224301   3.755   1.590   4.429
 8139TIP3    H124302   3.763   1.685   4.409
 8139TIP3    H224303   3.684   1.561   4.370
 8140TIP3   OH224304   5.073   3.039   4.768
 8140TIP3    H124305   5.031   3.086   4.693
 8140TIP3    H224306   5.168   3.060   4.749
 8141TIP3   OH224307   4.150   1.310   5.296
 8141TIP3    H124308   4.118   1.277   5.209
 8141TIP3    H224309   4.139   1.231   5.353
 8142TIP3   OH224310   3.714   2.546   4.688
 8142TIP3    H124311   3.624   2.564   4.718
 8142TIP3    H224312   3.700   2.558   4.592
 8143TIP3   OH224313   3.845   3.071   5.750
 8143TIP3    H124314   3.932   3.071   5.796
 8143TIP3    H224315   3.825   2.976   5.747
 8144TIP3   OH224316   4.324   3.032   5.796
 8144TIP3    H124317   4.420   3.018   5.800
 8144TIP3    H224318   4.300   2.974   5.721
 8145TIP3   OH224319   4.309   2.613   3.917
 8145TIP3    H124320   4.252   2.542   3.957
 8145TIP3    H224321   4.381   2.559   3.881
 8146TIP3   OH224322   4.965   2.941   5.527
 8146TIP3    H124323   4.957   2.872   5.596
 8146TIP3    H224324   5.042   2.993   5.557
 8147TIP3   OH224325   4.754   2.634   3.836
 8147TIP3    H124326   4.838   2.636   3.884
 8147TIP3    H224327   4.783   2.652   3.744
 8148TIP3   OH224328   3.974   2.476   5.950
 8148TIP3    H124329   3.991   2.380   5.952
 8148TIP3    H224330   3.887   2.480   5.904
 8149TIP3   OH224331   3.954   2.108   4.135
 8149TIP3    H124332   4.010   2.100   4.214
 8149TIP3    H224333   4.023   2.122   4.066
 8150TIP3   OH224334   4.581   2.562   5.723
 8150TIP3    H124335   4.541   2.581   5.636
 8150TIP3    H224336   4.613   2.469   5.713
 8151TIP3   OH224337   4.499   2.328   3.954
 8151TIP3    H124338   4.452   2.346   4.038
 8151TIP3    H224339   4.485   2.231   3.946
 8152TIP3   OH224340   5.074   2.571   5.328
 8152TIP3    H124341   5.150   2.614   5.285
 8152TIP3    H224342   5.005   2.639   5.316
 8153TIP3   OH224343   4.093   2.211   5.933
 8153TIP3    H124344   4.170   2.160   5.906
 8153TIP3    H224345   4.121   2.245   6.021
 8154TIP3   OH224346   4.155   2.030   4.363
 8154TIP3    H124347   4.141   1.987   4.449
 8154TIP3    H224348   4.194   1.957   4.310
 8155TIP3   OH224349   4.430   2.095   5.593
 8155TIP3    H124350   4.352   2.154   5.594
 8155TIP3    H224351   4.480   2.129   5.515
 8156TIP3   OH224352   4.261   1.825   4.205
 8156TIP3    H124353   4.234   1.829   4.111
 8156TIP3    H224354   4.358   1.828   4.197
 8157TIP3   OH224355   4.945   2.496   5.727
 8157TIP3    H124356   5.026   2.474   5.679
 8157TIP3    H224357   4.944   2.430   5.798
 8158TIP3   OH224358   4.552   1.884   5.719
 8158TIP3    H124359   4.553   1.805   5.661
 8158TIP3    H224360   4.509   1.951   5.661
 8159TIP3   OH224361   4.556   1.669   5.526
 8159TIP3    H124362   4.583   1.712   5.443
 8159TIP3    H224363   4.462   1.648   5.507
 8160TIP3   OH224364   4.581   2.205   5.399
 8160TIP3    H124365   4.666   2.217   5.353
 8160TIP3    H224366   4.525   2.272   5.355
 8161TIP3   OH224367   5.164   2.172   5.780
 8161TIP3    H124368   5.214   2.090   5.789
 8161TIP3    H224369   5.232   2.233   5.746
 8162TIP3   OH224370   5.204   2.425   5.515
 8162TIP3    H124371   5.147   2.479   5.456
 8162TIP3    H224372   5.292   2.446   5.476
 8163TIP3   OH224373   4.432   1.994   5.952
 8163TIP3    H124374   4.363   1.926   5.964
 8163TIP3    H224375   4.465   1.971   5.863
 8164TIP3   OH224376   4.687   1.434   5.595
 8164TIP3    H124377   4.639   1.516   5.571
 8164TIP3    H224378   4.618   1.366   5.582
 8165TIP3   OH224379   4.814   1.937   5.809
 8165TIP3    H124380   4.801   1.925   5.905
 8165TIP3    H224381   4.724   1.913   5.778
 8166TIP3   OH224382   5.052   1.886   5.663
 8166TIP3    H124383   4.977   1.889   5.726
 8166TIP3    H224384   5.126   1.857   5.721
 8167TIP3   OH224385   5.278   1.828   5.816
 8167TIP3    H124386   5.293   1.732   5.833
 8167TIP3    H224387   5.277   1.866   5.906
 8168TIP3   OH224388   4.269   1.774   6.003
 8168TIP3    H124389   4.276   1.684   5.968
 8168TIP3    H224390   4.306   1.762   6.093
 8169TIP3   OH224391   4.780   1.441   5.853
 8169TIP3    H124392   4.849   1.372   5.845
 8169TIP3    H224393   4.741   1.438   5.763
 8170TIP3   OH224394   4.846   1.657   6.012
 8170TIP3    H124395   4.825   1.587   5.946
 8170TIP3    H224396   4.769   1.717   6.004
 8171TIP3   OH224397   4.077   2.919   4.109
 8171TIP3    H124398   4.168   2.888   4.092
 8171TIP3    H224399   4.053   2.953   4.021
 8172TIP3   OH224400   3.459   2.885   4.743
 8172TIP3    H124401   3.399   2.819   4.701
 8172TIP3    H224402   3.507   2.827   4.807
 8173TIP3   OH224403   3.590   2.738   4.932
 8173TIP3    H124404   3.588   2.658   4.988
 8173TIP3    H224405   3.649   2.795   4.985
 8174TIP3   OH224406   5.326   3.131   4.727
 8174TIP3    H124407   5.351   3.166   4.814
 8174TIP3    H224408   5.387   3.178   4.668
 8175TIP3   OH224409   5.353   3.152   5.009
 8175TIP3    H124410   5.313   3.063   5.006
 8175TIP3    H224411   5.431   3.134   5.063
 8176TIP3   OH224412   5.402   2.829   5.582
 8176TIP3    H124413   5.329   2.839   5.647
 8176TIP3    H224414   5.444   2.917   5.586
 8177TIP3   OH224415   5.348   2.192   4.392
 8177TIP3    H124416   5.275   2.166   4.453
 8177TIP3    H224417   5.402   2.251   4.448
 8178TIP3   OH224418   5.401   2.601   4.837
 8178TIP3    H124419   5.454   2.538   4.785
 8178TIP3    H224420   5.395   2.678   4.776
 8179TIP3   OH224421   5.230   2.900   5.033
 8179TIP3    H124422   5.160   2.946   5.083
 8179TIP3    H224423   5.179   2.855   4.962
 8180TIP3   OH224424   5.147   1.803   4.001
 8180TIP3    H124425   5.119   1.820   3.910
 8180TIP3    H224426   5.125   1.707   4.007
 8181TIP3   OH224427   5.155   2.067   4.550
 8181TIP3    H124428   5.167   1.971   4.546
 8181TIP3    H224429   5.143   2.082   4.647
 8182TIP3   OH224430   3.786   2.130   5.300
 8182TIP3    H124431   3.782   2.106   5.206
 8182TIP3    H224432   3.883   2.136   5.314
 8183TIP3   OH224433   5.448   2.491   5.409
 8183TIP3    H124434   5.521   2.426   5.398
 8183TIP3    H224435   5.475   2.562   5.349
 8184TIP3   OH224436   5.633   2.294   5.420
 8184TIP3    H124437   5.559   2.245   5.462
 8184TIP3    H224438   5.707   2.232   5.437
 8185TIP3   OH224439   5.096   1.537   4.006
 8185TIP3    H124440   5.174   1.498   4.050
 8185TIP3    H224441   5.026   1.471   4.017
 8186TIP3   OH224442   5.156   1.781   4.445
 8186TIP3    H124443   5.196   1.692   4.461
 8186TIP3    H224444   5.215   1.812   4.374
 8187TIP3   OH224445   5.317   1.955   4.941
 8187TIP3    H124446   5.403   1.981   4.901
 8187TIP3    H224447   5.330   1.993   5.030
 8188TIP3   OH224448   5.386   2.100   5.173
 8188TIP3    H124449   5.308   2.135   5.222
 8188TIP3    H224450   5.418   2.181   5.128
 8189TIP3   OH224451   4.002   1.825   5.973
 8189TIP3    H124452   4.100   1.819   5.975
 8189TIP3    H224453   3.979   1.739   6.014
 8190TIP3   OH224454   5.832   1.688   5.728
 8190TIP3    H124455   5.896   1.625   5.687
 8190TIP3    H224456   5.809   1.745   5.652
 8191TIP3   OH224457   5.264   1.532   4.484
 8191TIP3    H124458   5.313   1.516   4.568
 8191TIP3    H224459   5.204   1.455   4.483
 8192TIP3   OH224460   3.965   1.517   5.301
 8192TIP3    H124461   4.028   1.444   5.312
 8192TIP3    H224462   4.026   1.593   5.296
 8193TIP3   OH224463   3.769   1.791   5.378
 8193TIP3    H124464   3.816   1.788   5.293
 8193TIP3    H224465   3.788   1.881   5.407
 8194TIP3   OH224466   5.709   1.832   5.532
 8194TIP3    H124467   5.624   1.873   5.557
 8194TIP3    H224468   5.678   1.759   5.476
 8195TIP3   OH224469   5.346   1.466   4.116
 8195TIP3    H124470   5.385   1.393   4.063
 8195TIP3    H224471   5.415   1.535   4.111
 8196TIP3   OH224472   3.751   1.292   4.880
 8196TIP3    H124473   3.658   1.290   4.907
 8196TIP3    H224474   3.748   1.351   4.801
 8197TIP3   OH224475   4.913   2.995   4.384
 8197TIP3    H124476   4.965   2.991   4.301
 8197TIP3    H224477   4.958   3.067   4.432
 8198TIP3   OH224478   3.971   1.373   5.691
 8198TIP3    H124479   3.920   1.371   5.774
 8198TIP3    H224480   3.906   1.414   5.631
 8199TIP3   OH224481   4.011   2.802   5.768
 8199TIP3    H124482   3.918   2.777   5.751
 8199TIP3    H224483   4.019   2.787   5.862
 8200TIP3   OH224484   4.190   2.836   5.317
 8200TIP3    H124485   4.141   2.912   5.277
 8200TIP3    H224486   4.275   2.850   5.272
 8201TIP3   OH224487   4.633   3.079   5.453
 8201TIP3    H124488   4.675   3.081   5.542
 8201TIP3    H224489   4.699   3.131   5.402
 8202TIP3   OH224490   4.812   3.232   5.314
 8202TIP3    H124491   4.885   3.183   5.271
 8202TIP3    H224492   4.863   3.290   5.374
 8203TIP3   OH224493   5.608   1.593   5.413
 8203TIP3    H124494   5.517   1.586   5.379
 8203TIP3    H224495   5.640   1.501   5.402
 8204TIP3   OH224496   3.865   3.093   5.341
 8204TIP3    H124497   3.776   3.125   5.316
 8204TIP3    H224498   3.874   3.133   5.428
 8205TIP3   OH224499   4.102   3.071   5.199
 8205TIP3    H124500   4.015   3.084   5.242
 8205TIP3    H224501   4.083   3.102   5.108
 8206TIP3   OH224502   4.528   3.099   4.995
 8206TIP3    H124503   4.457   3.118   4.931
 8206TIP3    H224504   4.540   3.187   5.037
 8207TIP3   OH224505   4.796   3.037   5.047
 8207TIP3    H124506   4.702   3.056   5.028
 8207TIP3    H224507   4.841   3.113   5.006
 8208TIP3   OH224508   5.000   3.229   4.961
 8208TIP3    H124509   4.988   3.315   4.916
 8208TIP3    H224510   5.029   3.171   4.888
 8209TIP3   OH224511   3.775   2.887   5.086
 8209TIP3    H124512   3.804   2.859   5.176
 8209TIP3    H224513   3.846   2.844   5.033
 8210TIP3   OH224514   3.969   2.760   4.944
 8210TIP3    H124515   3.987   2.675   4.992
 8210TIP3    H224516   4.060   2.796   4.935
 8211TIP3   OH224517   4.238   2.856   4.946
 8211TIP3    H124518   4.267   2.765   4.929
 8211TIP3    H224519   4.283   2.873   5.031
 8212TIP3   OH224520   4.812   1.508   5.031
 8212TIP3    H124521   4.769   1.438   5.083
 8212TIP3    H224522   4.886   1.461   4.988
 8213TIP3   OH224523   5.334   1.387   4.936
 8213TIP3    H124524   5.371   1.441   4.862
 8213TIP3    H224525   5.239   1.409   4.930
 8214TIP3   OH224526   5.430   1.490   4.701
 8214TIP3    H124527   5.504   1.438   4.661
 8214TIP3    H224528   5.464   1.581   4.686
 8215TIP3   OH224529   4.061   1.217   5.048
 8215TIP3    H124530   3.969   1.184   5.050
 8215TIP3    H224531   4.110   1.132   5.044
 8216TIP3   OH224532   3.847   1.087   4.696
 8216TIP3    H124533   3.877   1.146   4.624
 8216TIP3    H224534   3.819   1.152   4.764
 8217TIP3   OH224535   4.505   1.249   4.929
 8217TIP3    H124536   4.563   1.298   4.868
 8217TIP3    H224537   4.528   1.288   5.014
 8218TIP3   OH224538   5.050   1.397   4.913
 8218TIP3    H124539   5.050   1.359   4.824
 8218TIP3    H224540   5.038   1.316   4.969
 8219TIP3   OH224541   5.081   1.319   4.475
 8219TIP3    H124542   4.995   1.362   4.488
 8219TIP3    H224543   5.067   1.234   4.521
 8220TIP3   OH224544   3.539   2.650   4.505
 8220TIP3    H124545   3.458   2.639   4.453
 8220TIP3    H224546   3.586   2.718   4.456
 8221TIP3   OH224547   3.965   1.248   4.458
 8221TIP3    H124548   4.014   1.184   4.402
 8221TIP3    H224549   4.038   1.301   4.495
 8222TIP3   OH224550   4.477   1.422   4.559
 8222TIP3    H124551   4.537   1.376   4.619
 8222TIP3    H224552   4.498   1.515   4.583
 8223TIP3   OH224553   4.340   2.843   4.057
 8223TIP3    H124554   4.426   2.869   4.019
 8223TIP3    H224555   4.315   2.771   3.995
 8224TIP3   OH224556   5.055   2.965   4.149
 8224TIP3    H124557   5.034   2.871   4.134
 8224TIP3    H224558   5.011   3.005   4.071
 8225TIP3   OH224559   4.268   1.497   5.938
 8225TIP3    H124560   4.234   1.428   5.997
 8225TIP3    H224561   4.363   1.498   5.966
 8226TIP3   OH224562   4.517   1.495   6.059
 8226TIP3    H124563   4.602   1.473   6.018
 8226TIP3    H224564   4.507   1.423   6.124
 8227TIP3   OH224565   5.343   1.557   5.846
 8227TIP3    H124566   5.363   1.526   5.937
 8227TIP3    H224567   5.432   1.554   5.804
 8228TIP3   OH224568   5.281   3.109   5.338
 8228TIP3    H124569   5.202   3.079   5.289
 8228TIP3    H224570   5.264   3.205   5.342
 8229TIP3   OH224571   6.543   2.475   4.112
 8229TIP3    H124572   6.519   2.568   4.092
 8229TIP3    H224573   6.469   2.430   4.069
 8230TIP3   OH224574   6.525   2.482   4.490
 8230TIP3    H124575   6.578   2.440   4.558
 8230TIP3    H224576   6.503   2.408   4.431
 8231TIP3   OH224577   5.851   2.376   4.845
 8231TIP3    H124578   5.885   2.316   4.914
 8231TIP3    H224579   5.915   2.448   4.853
 8232TIP3   OH224580   5.818   2.786   4.575
 8232TIP3    H124581   5.812   2.688   4.578
 8232TIP3    H224582   5.915   2.796   4.566
 8233TIP3   OH224583   5.529   1.986   4.356
 8233TIP3    H124584   5.481   2.070   4.373
 8233TIP3    H224585   5.454   1.926   4.342
 8234TIP3   OH224586   5.583   2.279   4.531
 8234TIP3    H124587   5.631   2.201   4.566
 8234TIP3    H224588   5.644   2.311   4.463
 8235TIP3   OH224589   6.442   3.244   4.186
 8235TIP3    H124590   6.482   3.175   4.129
 8235TIP3    H224591   6.444   3.201   4.272
 8236TIP3   OH224592   6.344   2.704   4.540
 8236TIP3    H124593   6.387   2.631   4.491
 8236TIP3    H224594   6.425   2.754   4.562
 8237TIP3   OH224595   7.357   2.028   4.531
 8237TIP3    H124596   7.388   2.109   4.576
 8237TIP3    H224597   7.383   2.046   4.439
 8238TIP3   OH224598   6.741   2.214   4.576
 8238TIP3    H124599   6.798   2.137   4.594
 8238TIP3    H224600   6.725   2.202   4.480
 8239TIP3   OH224601   6.097   1.869   4.533
 8239TIP3    H124602   6.077   1.940   4.469
 8239TIP3    H224603   6.050   1.795   4.490
 8240TIP3   OH224604   6.790   1.962   4.154
 8240TIP3    H124605   6.863   1.946   4.219
 8240TIP3    H224606   6.842   1.995   4.079
 8241TIP3   OH224607   5.729   2.070   4.638
 8241TIP3    H124608   5.812   2.052   4.686
 8241TIP3    H224609   5.743   2.014   4.558
 8242TIP3   OH224610   6.171   2.266   4.429
 8242TIP3    H124611   6.265   2.242   4.438
 8242TIP3    H224612   6.132   2.183   4.396
 8243TIP3   OH224613   7.432   2.232   4.705
 8243TIP3    H124614   7.350   2.282   4.686
 8243TIP3    H224615   7.456   2.269   4.791
 8244TIP3   OH224616   6.092   1.852   4.967
 8244TIP3    H124617   6.032   1.890   4.900
 8244TIP3    H224618   6.038   1.867   5.048
 8245TIP3   OH224619   6.426   2.693   3.984
 8245TIP3    H124620   6.413   2.692   3.888
 8245TIP3    H224621   6.390   2.780   4.008
 8246TIP3   OH224622   6.206   2.614   4.769
 8246TIP3    H124623   6.146   2.681   4.808
 8246TIP3    H224624   6.252   2.666   4.701
 8247TIP3   OH224625   6.999   1.964   4.328
 8247TIP3    H124626   6.996   1.915   4.411
 8247TIP3    H224627   7.055   2.040   4.351
 8248TIP3   OH224628   5.966   1.971   4.751
 8248TIP3    H124629   6.028   2.044   4.772
 8248TIP3    H224630   6.012   1.929   4.675
 8249TIP3   OH224631   6.030   2.818   4.857
 8249TIP3    H124632   6.006   2.903   4.817
 8249TIP3    H224633   5.950   2.804   4.913
 8250TIP3   OH224634   5.434   2.512   4.087
 8250TIP3    H124635   5.388   2.546   4.009
 8250TIP3    H224636   5.458   2.595   4.134
 8251TIP3   OH224637   6.867   3.026   4.361
 8251TIP3    H124638   6.771   3.015   4.373
 8251TIP3    H224639   6.872   3.034   4.263
 8252TIP3   OH224640   7.153   1.924   4.695
 8252TIP3    H124641   7.067   1.959   4.666
 8252TIP3    H224642   7.214   1.958   4.627
 8253TIP3   OH224643   6.446   1.570   4.678
 8253TIP3    H124644   6.438   1.474   4.697
 8253TIP3    H224645   6.367   1.604   4.726
 8254TIP3   OH224646   6.554   3.075   3.997
 8254TIP3    H124647   6.629   3.014   4.018
 8254TIP3    H224648   6.610   3.145   3.957
 8255TIP3   OH224649   7.084   2.939   4.679
 8255TIP3    H124650   7.076   2.865   4.615
 8255TIP3    H224651   7.068   3.016   4.621
 8256TIP3   OH224652   6.378   2.332   3.935
 8256TIP3    H124653   6.300   2.388   3.913
 8256TIP3    H224654   6.427   2.332   3.851
 8257TIP3   OH224655   6.337   2.118   3.652
 8257TIP3    H124656   6.404   2.170   3.700
 8257TIP3    H224657   6.396   2.056   3.604
 8258TIP3   OH224658   7.281   2.573   4.523
 8258TIP3    H124659   7.200   2.629   4.526
 8258TIP3    H224660   7.314   2.599   4.434
 8259TIP3   OH224661   6.722   2.412   3.911
 8259TIP3    H124662   6.671   2.441   3.990
 8259TIP3    H224663   6.809   2.392   3.951
 8260TIP3   OH224664   6.949   2.459   4.817
 8260TIP3    H124665   6.957   2.534   4.879
 8260TIP3    H224666   6.915   2.504   4.738
 8261TIP3   OH224667   5.956   2.411   4.328
 8261TIP3    H124668   5.916   2.356   4.258
 8261TIP3    H224669   6.035   2.359   4.353
 8262TIP3   OH224670   6.085   2.820   4.475
 8262TIP3    H124671   6.070   2.787   4.385
 8262TIP3    H224672   6.175   2.787   4.495
 8263TIP3   OH224673   6.114   2.373   4.680
 8263TIP3    H124674   6.130   2.362   4.584
 8263TIP3    H224675   6.138   2.467   4.697
 8264TIP3   OH224676   6.599   3.021   4.450
 8264TIP3    H124677   6.606   3.104   4.502
 8264TIP3    H224678   6.595   2.952   4.518
 8265TIP3   OH224679   6.233   2.939   5.004
 8265TIP3    H124680   6.173   3.002   5.050
 8265TIP3    H224681   6.168   2.887   4.953
 8266TIP3   OH224682   6.565   2.274   3.734
 8266TIP3    H124683   6.625   2.334   3.785
 8266TIP3    H224684   6.592   2.297   3.641
 8267TIP3   OH224685   5.972   2.495   5.097
 8267TIP3    H124686   5.990   2.580   5.140
 8267TIP3    H224687   5.878   2.482   5.120
 8268TIP3   OH224688   6.307   2.957   4.012
 8268TIP3    H124689   6.395   3.001   4.013
 8268TIP3    H224690   6.252   3.025   3.971
 8269TIP3   OH224691   6.028   3.108   5.089
 8269TIP3    H124692   5.993   3.109   4.998
 8269TIP3    H224693   5.947   3.086   5.141
 8270TIP3   OH224694   7.082   1.514   3.782
 8270TIP3    H124695   7.001   1.536   3.832
 8270TIP3    H224696   7.097   1.597   3.731
 8271TIP3   OH224697   5.826   2.256   4.130
 8271TIP3    H124698   5.761   2.302   4.073
 8271TIP3    H224699   5.785   2.170   4.140
 8272TIP3   OH224700   6.882   2.880   3.327
 8272TIP3    H124701   6.890   2.978   3.316
 8272TIP3    H224702   6.975   2.852   3.315
 8273TIP3   OH224703   5.605   2.639   5.037
 8273TIP3    H124704   5.539   2.619   4.967
 8273TIP3    H224705   5.641   2.551   5.059
 8274TIP3   OH224706   5.460   2.832   4.670
 8274TIP3    H124707   5.556   2.829   4.660
 8274TIP3    H224708   5.450   2.913   4.724
 8275TIP3   OH224709   7.320   3.286   4.724
 8275TIP3    H124710   7.320   3.190   4.736
 8275TIP3    H224711   7.237   3.310   4.771
 8276TIP3   OH224712   6.429   3.068   4.858
 8276TIP3    H124713   6.429   3.161   4.890
 8276TIP3    H224714   6.360   3.029   4.915
 8277TIP3   OH224715   6.189   3.197   3.812
 8277TIP3    H124716   6.147   3.181   3.726
 8277TIP3    H224717   6.159   3.287   3.835
 8278TIP3   OH224718   5.628   3.049   4.196
 8278TIP3    H124719   5.679   3.041   4.280
 8278TIP3    H224720   5.570   2.971   4.204
 8279TIP3   OH224721   6.392   3.100   3.451
 8279TIP3    H124722   6.451   3.030   3.415
 8279TIP3    H224723   6.427   3.110   3.542
 8280TIP3   OH224724   6.442   3.148   3.721
 8280TIP3    H124725   6.355   3.157   3.766
 8280TIP3    H224726   6.497   3.112   3.794
 8281TIP3   OH224727   7.216   2.413   5.004
 8281TIP3    H124728   7.136   2.425   4.951
 8281TIP3    H224729   7.232   2.317   4.993
 8282TIP3   OH224730   5.812   2.821   5.022
 8282TIP3    H124731   5.862   2.807   5.106
 8282TIP3    H224732   5.737   2.759   5.032
 8283TIP3   OH224733   6.209   1.651   4.809
 8283TIP3    H124734   6.123   1.614   4.779
 8283TIP3    H224735   6.175   1.727   4.861
 8284TIP3   OH224736   6.745   1.761   5.004
 8284TIP3    H124737   6.817   1.735   5.064
 8284TIP3    H224738   6.665   1.738   5.055
 8285TIP3   OH224739   6.973   2.188   4.912
 8285TIP3    H124740   6.932   2.183   5.002
 8285TIP3    H224741   6.956   2.280   4.887
 8286TIP3   OH224742   6.640   2.316   3.477
 8286TIP3    H124743   6.611   2.294   3.386
 8286TIP3    H224744   6.720   2.368   3.458
 8287TIP3   OH224745   6.353   1.695   3.780
 8287TIP3    H124746   6.321   1.692   3.872
 8287TIP3    H224747   6.316   1.612   3.746
 8288TIP3   OH224748   6.154   2.161   4.839
 8288TIP3    H124749   6.096   2.181   4.916
 8288TIP3    H224750   6.136   2.241   4.783
 8289TIP3   OH224751   6.027   2.047   4.341
 8289TIP3    H124752   5.934   2.022   4.358
 8289TIP3    H224753   6.040   2.007   4.252
 8290TIP3   OH224754   6.515   2.132   4.068
 8290TIP3    H124755   6.464   2.205   4.026
 8290TIP3    H224756   6.571   2.103   3.994
 8291TIP3   OH224757   6.679   2.417   5.141
 8291TIP3    H124758   6.663   2.336   5.195
 8291TIP3    H224759   6.771   2.435   5.163
 8292TIP3   OH224760   6.670   2.163   4.310
 8292TIP3    H124761   6.614   2.195   4.236
 8292TIP3    H224762   6.705   2.082   4.267
 8293TIP3   OH224763   5.979   2.194   5.046
 8293TIP3    H124764   5.967   2.269   5.106
 8293TIP3    H224765   5.953   2.117   5.100
 8294TIP3   OH224766   6.009   1.667   3.746
 8294TIP3    H124767   6.001   1.667   3.843
 8294TIP3    H224768   5.932   1.721   3.721
 8295TIP3   OH224769   5.553   1.714   4.616
 8295TIP3    H124770   5.629   1.746   4.669
 8295TIP3    H224771   5.595   1.679   4.536
 8296TIP3   OH224772   5.529   1.687   4.138
 8296TIP3    H124773   5.570   1.728   4.058
 8296TIP3    H224774   5.466   1.757   4.162
 8297TIP3   OH224775   6.639   2.371   4.767
 8297TIP3    H124776   6.680   2.309   4.702
 8297TIP3    H224777   6.717   2.393   4.822
 8298TIP3   OH224778   6.355   1.873   4.402
 8298TIP3    H124779   6.274   1.867   4.456
 8298TIP3    H224780   6.426   1.861   4.467
 8299TIP3   OH224781   5.789   1.925   4.412
 8299TIP3    H124782   5.696   1.933   4.381
 8299TIP3    H224783   5.813   1.834   4.387
 8300TIP3   OH224784   6.055   1.922   4.098
 8300TIP3    H124785   6.150   1.937   4.079
 8300TIP3    H224786   6.010   1.946   4.014
 8301TIP3   OH224787   6.845   1.952   4.604
 8301TIP3    H124788   6.810   1.959   4.696
 8301TIP3    H224789   6.785   1.886   4.566
 8302TIP3   OH224790   5.898   1.956   3.875
 8302TIP3    H124791   5.831   1.910   3.821
 8302TIP3    H224792   5.952   1.996   3.803
 8303TIP3   OH224793   7.014   3.635   4.823
 8303TIP3    H124794   7.013   3.658   4.729
 8303TIP3    H224795   7.096   3.681   4.853
 8304TIP3   OH224796   5.973   2.742   5.245
 8304TIP3    H124797   6.053   2.774   5.292
 8304TIP3    H224798   5.908   2.745   5.318
 8305TIP3   OH224799   6.438   2.199   4.494
 8305TIP3    H124800   6.510   2.163   4.440
 8305TIP3    H224801   6.452   2.154   4.579
 8306TIP3   OH224802   5.960   1.687   4.380
 8306TIP3    H124803   5.925   1.607   4.426
 8306TIP3    H224804   6.008   1.649   4.306
 8307TIP3   OH224805   6.428   2.161   4.795
 8307TIP3    H124806   6.335   2.128   4.803
 8307TIP3    H224807   6.478   2.088   4.837
 8308TIP3   OH224808   6.148   2.485   3.883
 8308TIP3    H124809   6.074   2.422   3.873
 8308TIP3    H224810   6.131   2.520   3.974
 8309TIP3   OH224811   7.050   2.720   4.515
 8309TIP3    H124812   7.074   2.772   4.435
 8309TIP3    H224813   6.963   2.682   4.489
 8310TIP3   OH224814   6.608   1.796   3.751
 8310TIP3    H124815   6.511   1.782   3.755
 8310TIP3    H224816   6.618   1.892   3.771
 8311TIP3   OH224817   6.542   2.793   4.896
 8311TIP3    H124818   6.588   2.801   4.981
 8311TIP3    H224819   6.507   2.883   4.883
 8312TIP3   OH224820   6.676   2.046   3.851
 8312TIP3    H124821   6.773   2.053   3.865
 8312TIP3    H224822   6.657   2.127   3.798
 8313TIP3   OH224823   5.842   2.507   4.563
 8313TIP3    H124824   5.879   2.479   4.477
 8313TIP3    H224825   5.878   2.441   4.624
 8314TIP3   OH224826   6.293   2.634   3.701
 8314TIP3    H124827   6.246   2.721   3.709
 8314TIP3    H224828   6.244   2.581   3.767
 8315TIP3   OH224829   5.720   2.424   5.175
 8315TIP3    H124830   5.740   2.412   5.270
 8315TIP3    H224831   5.647   2.360   5.162
 8316TIP3   OH224832   6.450   2.556   5.206
 8316TIP3    H124833   6.387   2.516   5.147
 8316TIP3    H224834   6.535   2.515   5.179
 8317TIP3   OH224835   6.706   3.049   4.789
 8317TIP3    H124836   6.609   3.063   4.794
 8317TIP3    H224837   6.736   3.109   4.860
 8318TIP3   OH224838   7.118   2.137   3.687
 8318TIP3    H124839   7.056   2.093   3.624
 8318TIP3    H224840   7.115   2.227   3.646
 8319TIP3   OH224841   7.335   2.991   4.768
 8319TIP3    H124842   7.237   2.988   4.757
 8319TIP3    H224843   7.363   2.963   4.678
 8320TIP3   OH224844   6.807   2.959   3.590
 8320TIP3    H124845   6.807   2.897   3.664
 8320TIP3    H224846   6.827   2.902   3.513
 8321TIP3   OH224847   6.815   2.563   4.471
 8321TIP3    H124848   6.722   2.567   4.444
 8321TIP3    H224849   6.852   2.503   4.403
 8322TIP3   OH224850   5.945   2.812   4.187
 8322TIP3    H124851   5.950   2.893   4.133
 8322TIP3    H224852   5.850   2.800   4.194
 8323TIP3   OH224853   5.505   2.121   3.892
 8323TIP3    H124854   5.571   2.192   3.907
 8323TIP3    H224855   5.426   2.166   3.923
 8324TIP3   OH224856   6.075   2.574   4.128
 8324TIP3    H124857   6.047   2.666   4.145
 8324TIP3    H224858   6.040   2.528   4.206
 8325TIP3   OH224859   6.212   3.155   4.653
 8325TIP3    H124860   6.253   3.228   4.602
 8325TIP3    H224861   6.289   3.121   4.701
 8326TIP3   OH224862   5.861   3.052   4.037
 8326TIP3    H124863   5.776   3.061   4.083
 8326TIP3    H224864   5.895   3.144   4.040
 8327TIP3   OH224865   6.598   2.786   4.617
 8327TIP3    H124866   6.599   2.785   4.715
 8327TIP3    H224867   6.687   2.753   4.596
 8328TIP3   OH224868   6.572   2.682   3.493
 8328TIP3    H124869   6.630   2.654   3.568
 8328TIP3    H224870   6.485   2.659   3.530
 8329TIP3   OH224871   6.846   3.325   4.665
 8329TIP3    H124872   6.766   3.273   4.649
 8329TIP3    H224873   6.837   3.393   4.594
 8330TIP3   OH224874   6.915   3.157   3.314
 8330TIP3    H124875   6.954   3.233   3.268
 8330TIP3    H224876   6.834   3.200   3.350
 8331TIP3   OH224877   5.934   1.932   5.183
 8331TIP3    H124878   5.838   1.936   5.196
 8331TIP3    H224879   5.962   1.875   5.257
 8332TIP3   OH224880   6.736   2.601   3.696
 8332TIP3    H124881   6.723   2.555   3.781
 8332TIP3    H224882   6.833   2.608   3.694
 8333TIP3   OH224883   5.649   3.018   4.813
 8333TIP3    H124884   5.706   2.947   4.848
 8333TIP3    H224885   5.677   3.093   4.868
 8334TIP3   OH224886   5.938   2.665   3.497
 8334TIP3    H124887   5.956   2.574   3.468
 8334TIP3    H224888   5.921   2.652   3.592
 8335TIP3   OH224889   5.884   2.667   3.771
 8335TIP3    H124890   5.962   2.643   3.823
 8335TIP3    H224891   5.887   2.766   3.776
 8336TIP3   OH224892   5.625   2.358   3.968
 8336TIP3    H124893   5.560   2.406   4.025
 8336TIP3    H224894   5.642   2.427   3.902
 8337TIP3   OH224895   6.752   1.996   4.858
 8337TIP3    H124896   6.824   2.050   4.896
 8337TIP3    H224897   6.753   1.918   4.918
 8338TIP3   OH224898   6.650   1.749   4.030
 8338TIP3    H124899   6.638   1.771   3.935
 8338TIP3    H224900   6.690   1.832   4.064
 8339TIP3   OH224901   6.149   2.863   3.715
 8339TIP3    H124902   6.064   2.893   3.752
 8339TIP3    H224903   6.171   2.939   3.659
 8340TIP3   OH224904   6.337   1.930   4.130
 8340TIP3    H124905   6.402   2.000   4.110
 8340TIP3    H224906   6.345   1.923   4.227
 8341TIP3   OH224907   6.484   1.654   4.231
 8341TIP3    H124908   6.479   1.731   4.290
 8341TIP3    H224909   6.545   1.688   4.162
 8342TIP3   OH224910   5.892   2.940   3.784
 8342TIP3    H124911   5.865   3.011   3.722
 8342TIP3    H224912   5.879   2.985   3.871
 8343TIP3   OH224913   5.995   1.655   4.023
 8343TIP3    H124914   5.994   1.746   4.058
 8343TIP3    H224915   6.091   1.636   4.030
 8344TIP3   OH224916   7.245   2.149   4.922
 8344TIP3    H124917   7.147   2.141   4.923
 8344TIP3    H224918   7.265   2.113   4.835
 8345TIP3   OH224919   6.900   2.342   4.308
 8345TIP3    H124920   6.827   2.279   4.317
 8345TIP3    H224921   6.974   2.295   4.353
 8346TIP3   OH224922   5.610   2.570   3.775
 8346TIP3    H124923   5.677   2.640   3.787
 8346TIP3    H224924   5.657   2.516   3.709
 8347TIP3   OH224925   5.549   1.847   3.918
 8347TIP3    H124926   5.550   1.944   3.911
 8347TIP3    H224927   5.487   1.821   3.849
 8348TIP3   OH224928   6.869   3.324   4.267
 8348TIP3    H124929   6.827   3.357   4.184
 8348TIP3    H224930   6.962   3.319   4.237
 8349TIP3   OH224931   5.946   1.567   4.783
 8349TIP3    H124932   5.914   1.533   4.697
 8349TIP3    H224933   5.934   1.488   4.841
 8350TIP3   OH224934   5.480   2.780   4.165
 8350TIP3    H124935   5.415   2.820   4.224
 8350TIP3    H224936   5.457   2.823   4.079
 8351TIP3   OH224937   5.642   3.328   5.237
 8351TIP3    H124938   5.728   3.330   5.284
 8351TIP3    H224939   5.623   3.233   5.235
 8352TIP3   OH224940   6.120   3.290   5.281
 8352TIP3    H124941   6.215   3.276   5.289
 8352TIP3    H224942   6.098   3.231   5.207
 8353TIP3   OH224943   6.103   2.867   3.407
 8353TIP3    H124944   6.048   2.796   3.446
 8353TIP3    H224945   6.179   2.816   3.375
 8354TIP3   OH224946   6.760   3.198   5.015
 8354TIP3    H124947   6.754   3.128   5.084
 8354TIP3    H224948   6.838   3.249   5.044
 8355TIP3   OH224949   6.539   2.907   3.319
 8355TIP3    H124950   6.582   2.845   3.381
 8355TIP3    H224951   6.599   2.905   3.242
 8356TIP3   OH224952   5.771   2.733   5.436
 8356TIP3    H124953   5.787   2.638   5.441
 8356TIP3    H224954   5.684   2.736   5.392
 8357TIP3   OH224955   5.748   2.381   3.632
 8357TIP3    H124956   5.808   2.353   3.704
 8357TIP3    H224957   5.813   2.387   3.559
 8358TIP3   OH224958   6.380   2.830   5.215
 8358TIP3    H124959   6.342   2.844   5.126
 8358TIP3    H224960   6.417   2.739   5.208
 8359TIP3   OH224961   6.253   2.581   3.435
 8359TIP3    H124962   6.261   2.595   3.532
 8359TIP3    H224963   6.257   2.483   3.431
 8360TIP3   OH224964   6.869   2.826   4.810
 8360TIP3    H124965   6.947   2.866   4.768
 8360TIP3    H224966   6.805   2.901   4.802
 8361TIP3   OH224967   5.890   2.464   5.419
 8361TIP3    H124968   5.969   2.412   5.399
 8361TIP3    H224969   5.915   2.501   5.507
 8362TIP3   OH224970   5.950   2.288   3.848
 8362TIP3    H124971   5.933   2.246   3.933
 8362TIP3    H224972   5.992   2.215   3.797
 8363TIP3   OH224973   6.058   2.082   3.693
 8363TIP3    H124974   6.033   2.086   3.598
 8363TIP3    H224975   6.156   2.086   3.685
 8364TIP3   OH224976   6.737   2.749   5.210
 8364TIP3    H124977   6.825   2.736   5.172
 8364TIP3    H224978   6.739   2.687   5.285
 8365TIP3   OH224979   6.879   2.411   3.355
 8365TIP3    H124980   6.857   2.367   3.271
 8365TIP3    H224981   6.846   2.502   3.334
 8366TIP3   OH224982   6.334   2.137   5.200
 8366TIP3    H124983   6.364   2.055   5.158
 8366TIP3    H224984   6.254   2.154   5.149
 8367TIP3   OH224985   6.349   1.927   5.004
 8367TIP3    H124986   6.371   1.912   4.912
 8367TIP3    H224987   6.253   1.904   5.004
 8368TIP3   OH224988   6.959   2.431   5.265
 8368TIP3    H124989   7.006   2.347   5.278
 8368TIP3    H224990   7.031   2.489   5.234
 8369TIP3   OH224991   7.001   2.677   4.994
 8369TIP3    H124992   6.944   2.736   4.939
 8369TIP3    H224993   7.089   2.702   4.959
 8370TIP3   OH224994   6.220   2.256   5.429
 8370TIP3    H124995   6.156   2.184   5.448
 8370TIP3    H224996   6.265   2.221   5.350
 8371TIP3   OH224997   6.482   1.690   5.079
 8371TIP3    H124998   6.430   1.771   5.063
 8371TIP3    H224999   6.414   1.620   5.070
 8372TIP3   OH225000   6.613   2.197   5.294
 8372TIP3    H125001   6.619   2.190   5.391
 8372TIP3    H225002   6.520   2.174   5.280
 8373TIP3   OH225003   6.854   2.145   5.150
 8373TIP3    H125004   6.779   2.148   5.212
 8373TIP3    H225005   6.927   2.115   5.209
 8374TIP3   OH225006   7.076   2.083   5.303
 8374TIP3    H125007   7.091   1.988   5.321
 8374TIP3    H225008   7.073   2.122   5.393
 8375TIP3   OH225009   6.068   2.030   5.488
 8375TIP3    H125010   6.072   1.937   5.459
 8375TIP3    H225011   6.106   2.022   5.578
 8376TIP3   OH225012   6.577   1.701   5.337
 8376TIP3    H125013   6.646   1.631   5.335
 8376TIP3    H225014   6.539   1.691   5.248
 8377TIP3   OH225015   6.642   1.916   5.497
 8377TIP3    H125016   6.622   1.843   5.433
 8377TIP3    H225017   6.562   1.972   5.489
 8378TIP3   OH225018   5.865   3.143   3.596
 8378TIP3    H125019   5.960   3.137   3.578
 8378TIP3    H225020   5.837   3.194   3.517
 8379TIP3   OH225021   5.342   2.522   3.808
 8379TIP3    H125022   5.437   2.547   3.799
 8379TIP3    H225023   5.341   2.434   3.767
 8380TIP3   OH225024   5.261   3.137   4.227
 8380TIP3    H125025   5.194   3.075   4.190
 8380TIP3    H225026   5.304   3.079   4.293
 8381TIP3   OH225027   5.396   2.985   4.413
 8381TIP3    H125028   5.385   2.915   4.479
 8381TIP3    H225029   5.447   3.050   4.465
 8382TIP3   OH225030   7.130   3.386   4.211
 8382TIP3    H125031   7.151   3.420   4.300
 8382TIP3    H225032   7.194   3.432   4.155
 8383TIP3   OH225033   7.153   3.413   4.496
 8383TIP3    H125034   7.108   3.326   4.490
 8383TIP3    H225035   7.229   3.387   4.551
 8384TIP3   OH225036   7.197   3.085   5.070
 8384TIP3    H125037   7.125   3.096   5.135
 8384TIP3    H225038   7.240   3.173   5.073
 8385TIP3   OH225039   7.017   2.598   3.686
 8385TIP3    H125040   7.084   2.665   3.661
 8385TIP3    H225041   7.059   2.561   3.767
 8386TIP3   OH225042   7.143   2.464   3.890
 8386TIP3    H125043   7.076   2.425   3.950
 8386TIP3    H225044   7.206   2.506   3.953
 8387TIP3   OH225045   7.196   2.857   4.328
 8387TIP3    H125046   7.246   2.796   4.271
 8387TIP3    H225047   7.179   2.931   4.266
 8388TIP3   OH225048   7.032   3.165   4.528
 8388TIP3    H125049   6.960   3.210   4.577
 8388TIP3    H225050   6.980   3.120   4.456
 8389TIP3   OH225051   7.080   2.373   3.538
 8389TIP3    H125052   7.007   2.377   3.471
 8389TIP3    H225053   7.054   2.450   3.594
 8390TIP3   OH225054   6.951   2.046   3.493
 8390TIP3    H125055   6.908   2.087   3.417
 8390TIP3    H225056   6.925   1.952   3.481
 8391TIP3   OH225057   6.955   2.324   4.038
 8391TIP3    H125058   6.965   2.228   4.033
 8391TIP3    H225059   6.942   2.340   4.134
 8392TIP3   OH225060   5.583   2.392   4.786
 8392TIP3    H125061   5.579   2.364   4.692
 8392TIP3    H225062   5.681   2.395   4.799
 8393TIP3   OH225063   7.244   2.747   4.894
 8393TIP3    H125064   7.318   2.683   4.885
 8393TIP3    H225065   7.272   2.819   4.835
 8394TIP3   OH225066   7.428   2.551   4.909
 8394TIP3    H125067   7.356   2.501   4.952
 8394TIP3    H225068   7.503   2.490   4.924
 8395TIP3   OH225069   6.894   1.780   3.477
 8395TIP3    H125070   6.969   1.750   3.533
 8395TIP3    H225071   6.822   1.721   3.502
 8396TIP3   OH225072   6.951   2.039   3.934
 8396TIP3    H125073   6.993   1.950   3.947
 8396TIP3    H225074   7.009   2.074   3.863
 8397TIP3   OH225075   7.113   2.213   4.428
 8397TIP3    H125076   7.199   2.238   4.386
 8397TIP3    H225077   7.130   2.250   4.517
 8398TIP3   OH225078   7.183   2.357   4.660
 8398TIP3    H125079   7.106   2.392   4.707
 8398TIP3    H225080   7.217   2.436   4.613
 8399TIP3   OH225081   5.801   2.083   5.457
 8399TIP3    H125082   5.899   2.078   5.463
 8399TIP3    H225083   5.777   1.998   5.499
 8400TIP3   OH225084   7.632   1.947   5.216
 8400TIP3    H125085   7.693   1.882   5.174
 8400TIP3    H225086   7.605   2.002   5.139
 8401TIP3   OH225087   7.061   1.789   3.971
 8401TIP3    H125088   7.110   1.773   4.054
 8401TIP3    H225089   7.001   1.712   3.969
 8402TIP3   OH225090   5.761   1.776   4.789
 8402TIP3    H125091   5.823   1.701   4.799
 8402TIP3    H225092   5.823   1.851   4.785
 8403TIP3   OH225093   5.564   2.048   4.864
 8403TIP3    H125094   5.613   2.044   4.779
 8403TIP3    H225095   5.586   2.137   4.894
 8404TIP3   OH225096   7.504   2.087   5.021
 8404TIP3    H125097   7.418   2.127   5.044
 8404TIP3    H225098   7.474   2.014   4.963
 8405TIP3   OH225099   7.141   1.723   3.604
 8405TIP3    H125100   7.182   1.652   3.550
 8405TIP3    H225101   7.207   1.795   3.599
 8406TIP3   OH225102   5.547   1.551   4.369
 8406TIP3    H125103   5.453   1.547   4.393
 8406TIP3    H225104   5.546   1.607   4.288
 8407TIP3   OH225105   6.690   3.272   3.865
 8407TIP3    H125106   6.750   3.232   3.798
 8407TIP3    H225107   6.756   3.303   3.930
 8408TIP3   OH225108   5.767   1.632   5.179
 8408TIP3    H125109   5.717   1.628   5.262
 8408TIP3    H225110   5.700   1.671   5.119
 8409TIP3   OH225111   5.807   3.057   5.254
 8409TIP3    H125112   5.714   3.033   5.240
 8409TIP3    H225113   5.817   3.045   5.349
 8410TIP3   OH225114   5.986   3.091   4.802
 8410TIP3    H125115   5.938   3.168   4.764
 8410TIP3    H225116   6.072   3.106   4.758
 8411TIP3   OH225117   6.429   3.335   4.939
 8411TIP3    H125118   6.470   3.337   5.028
 8411TIP3    H225119   6.495   3.387   4.888
 8412TIP3   OH225120   6.607   3.490   4.801
 8412TIP3    H125121   6.677   3.440   4.755
 8412TIP3    H225122   6.661   3.546   4.861
 8413TIP3   OH225123   7.404   1.850   4.900
 8413TIP3    H125124   7.313   1.841   4.866
 8413TIP3    H225125   7.437   1.757   4.889
 8414TIP3   OH225126   5.660   3.346   4.829
 8414TIP3    H125127   5.571   3.379   4.805
 8414TIP3    H225128   5.675   3.394   4.912
 8415TIP3   OH225129   5.897   3.326   4.685
 8415TIP3    H125130   5.810   3.340   4.729
 8415TIP3    H225131   5.878   3.361   4.596
 8416TIP3   OH225132   6.322   3.355   4.486
 8416TIP3    H125133   6.257   3.376   4.416
 8416TIP3    H225134   6.337   3.443   4.527
 8417TIP3   OH225135   6.594   3.294   4.539
 8417TIP3    H125136   6.501   3.310   4.517
 8417TIP3    H225137   6.639   3.364   4.489
 8418TIP3   OH225138   6.799   3.496   4.457
 8418TIP3    H125139   6.784   3.577   4.405
 8418TIP3    H225140   6.826   3.432   4.386
 8419TIP3   OH225141   5.572   3.141   4.569
 8419TIP3    H125142   5.598   3.117   4.661
 8419TIP3    H225143   5.646   3.099   4.520
 8420TIP3   OH225144   5.767   3.014   4.428
 8420TIP3    H125145   5.784   2.931   4.478
 8420TIP3    H225146   5.858   3.052   4.425
 8421TIP3   OH225147   6.031   3.110   4.433
 8421TIP3    H125148   6.066   3.021   4.418
 8421TIP3    H225149   6.078   3.132   4.516
 8422TIP3   OH225150   6.603   1.764   4.518
 8422TIP3    H125151   6.565   1.690   4.568
 8422TIP3    H225152   6.680   1.723   4.474
 8423TIP3   OH225153   7.129   1.645   4.423
 8423TIP3    H125154   7.168   1.696   4.348
 8423TIP3    H225155   7.035   1.668   4.416
 8424TIP3   OH225156   7.226   1.745   4.188
 8424TIP3    H125157   7.300   1.693   4.149
 8424TIP3    H225158   7.260   1.836   4.173
 8425TIP3   OH225159   5.857   1.474   4.536
 8425TIP3    H125160   5.765   1.441   4.537
 8425TIP3    H225161   5.906   1.389   4.532
 8426TIP3   OH225162   5.644   1.343   4.183
 8426TIP3    H125163   5.675   1.401   4.110
 8426TIP3    H225164   5.617   1.409   4.250
 8427TIP3   OH225165   6.300   1.507   4.417
 8427TIP3    H125166   6.357   1.554   4.353
 8427TIP3    H225167   6.332   1.543   4.501
 8428TIP3   OH225168   6.840   1.654   4.402
 8428TIP3    H125169   6.848   1.617   4.313
 8428TIP3    H225170   6.831   1.573   4.457
 8429TIP3   OH225171   6.878   1.576   3.962
 8429TIP3    H125172   6.791   1.619   3.974
 8429TIP3    H225173   6.863   1.491   4.008
 8430TIP3   OH225174   5.358   2.915   3.964
 8430TIP3    H125175   5.272   2.888   3.927
 8430TIP3    H225176   5.354   3.010   3.946
 8431TIP3   OH225177   5.762   1.502   3.947
 8431TIP3    H125178   5.810   1.440   3.889
 8431TIP3    H225179   5.835   1.556   3.982
 8432TIP3   OH225180   6.272   1.678   4.046
 8432TIP3    H125181   6.335   1.633   4.104
 8432TIP3    H225182   6.293   1.771   4.069
 8433TIP3   OH225183   6.133   3.103   3.545
 8433TIP3    H125184   6.222   3.124   3.510
 8433TIP3    H225185   6.111   3.027   3.486
 8434TIP3   OH225186   6.857   3.222   3.635
 8434TIP3    H125187   6.844   3.124   3.627
 8434TIP3    H225188   6.807   3.253   3.557
 8435TIP3   OH225189   6.065   1.756   5.426
 8435TIP3    H125190   6.030   1.685   5.483
 8435TIP3    H225191   6.160   1.755   5.454
 8436TIP3   OH225192   6.314   1.749   5.543
 8436TIP3    H125193   6.401   1.724   5.508
 8436TIP3    H225194   6.302   1.681   5.613
 8437TIP3   OH225195   5.435   2.935   3.601
 8437TIP3    H125196   5.442   2.968   3.692
 8437TIP3    H225197   5.525   2.896   3.587
 8438TIP3   OH225198   7.139   1.813   5.333
 8438TIP3    H125199   7.159   1.782   5.424
 8438TIP3    H225200   7.228   1.809   5.291
 8439TIP3   OH225201   7.075   3.366   4.827
 8439TIP3    H125202   6.997   3.336   4.777
 8439TIP3    H225203   7.057   3.462   4.830
 8440TIP3   OH225204   8.344   2.739   3.591
 8440TIP3    H125205   8.315   2.830   3.571
 8440TIP3    H225206   8.268   2.688   3.559
 8441TIP3   OH225207   8.345   2.738   3.973
 8441TIP3    H125208   8.377   2.712   4.062
 8441TIP3    H225209   8.302   2.656   3.943
 8442TIP3   OH225210   7.644   2.633   4.337
 8442TIP3    H125211   7.675   2.566   4.401
 8442TIP3    H225212   7.721   2.692   4.334
 8443TIP3   OH225213   8.588   3.042   3.655
 8443TIP3    H125214   8.570   2.971   3.718
 8443TIP3    H225215   8.615   3.115   3.713
 8444TIP3   OH225216   7.613   3.044   4.059
 8444TIP3    H125217   7.604   2.946   4.062
 8444TIP3    H225218   7.709   3.053   4.062
 8445TIP3   OH225219   7.321   2.244   3.847
 8445TIP3    H125220   7.275   2.328   3.864
 8445TIP3    H225221   7.249   2.194   3.804
 8446TIP3   OH225222   7.380   2.533   4.020
 8446TIP3    H125223   7.430   2.457   4.056
 8446TIP3    H225224   7.441   2.568   3.953
 8447TIP3   OH225225   8.244   3.511   3.672
 8447TIP3    H125226   8.285   3.435   3.625
 8447TIP3    H225227   8.226   3.472   3.759
 8448TIP3   OH225228   8.142   2.964   4.020
 8448TIP3    H125229   8.182   2.887   3.975
 8448TIP3    H225230   8.225   3.010   4.046
 8449TIP3   OH225231   9.092   2.303   4.033
 8449TIP3    H125232   9.148   2.364   4.085
 8449TIP3    H225233   9.129   2.315   3.944
 8450TIP3   OH225234   8.554   2.466   4.052
 8450TIP3    H125235   8.596   2.380   4.074
 8450TIP3    H225236   8.523   2.449   3.961
 8451TIP3   OH225237   7.893   2.125   4.018
 8451TIP3    H125238   7.873   2.198   3.955
 8451TIP3    H225239   7.844   2.052   3.974
 8452TIP3   OH225240   8.590   2.215   3.640
 8452TIP3    H125241   8.662   2.200   3.705
 8452TIP3    H225242   8.640   2.253   3.566
 8453TIP3   OH225243   7.525   2.326   4.126
 8453TIP3    H125244   7.609   2.308   4.173
 8453TIP3    H225245   7.540   2.271   4.046
 8454TIP3   OH225246   7.967   2.525   3.917
 8454TIP3    H125247   8.061   2.499   3.931
 8454TIP3    H225248   7.928   2.440   3.886
 8455TIP3   OH225249   9.224   2.487   4.186
 8455TIP3    H125250   9.142   2.541   4.183
 8455TIP3    H225251   9.269   2.524   4.265
 8456TIP3   OH225252   7.889   2.108   4.452
 8456TIP3    H125253   7.829   2.146   4.385
 8456TIP3    H225254   7.837   2.126   4.533
 8457TIP3   OH225255   8.238   2.961   3.459
 8457TIP3    H125256   8.193   2.938   3.376
 8457TIP3    H225257   8.191   3.043   3.484
 8458TIP3   OH225258   7.995   2.884   4.247
 8458TIP3    H125259   7.933   2.950   4.285
 8458TIP3    H225260   8.038   2.936   4.176
 8459TIP3   OH225261   8.801   2.216   3.815
 8459TIP3    H125262   8.779   2.176   3.900
 8459TIP3    H225263   8.848   2.297   3.843
 8460TIP3   OH225264   7.760   2.223   4.236
 8460TIP3    H125265   7.821   2.296   4.260
 8460TIP3    H225266   7.810   2.183   4.162
 8461TIP3   OH225267   7.822   3.077   4.342
 8461TIP3    H125268   7.798   3.166   4.307
 8461TIP3    H225269   7.745   3.063   4.401
 8462TIP3   OH225270   7.221   2.769   3.581
 8462TIP3    H125271   7.177   2.798   3.500
 8462TIP3    H225272   7.251   2.854   3.619
 8463TIP3   OH225273   8.658   3.283   3.821
 8463TIP3    H125274   8.570   3.271   3.863
 8463TIP3    H225275   8.646   3.370   3.780
 8464TIP3   OH225276   8.923   2.173   4.196
 8464TIP3    H125277   8.836   2.203   4.167
 8464TIP3    H225278   8.982   2.217   4.130
 8465TIP3   OH225279   8.244   1.826   4.167
 8465TIP3    H125280   8.231   1.732   4.187
 8465TIP3    H225281   8.167   1.865   4.214
 8466TIP3   OH225282   8.360   3.335   3.493
 8466TIP3    H125283   8.408   3.250   3.475
 8466TIP3    H225284   8.424   3.399   3.454
 8467TIP3   OH225285   8.501   3.117   3.404
 8467TIP3    H125286   8.458   3.038   3.368
 8467TIP3    H225287   8.538   3.081   3.488
 8468TIP3   OH225288   8.883   3.196   4.164
 8468TIP3    H125289   8.866   3.120   4.104
 8468TIP3    H225290   8.862   3.272   4.106
 8469TIP3   OH225291   8.175   2.590   3.423
 8469TIP3    H125292   8.095   2.641   3.401
 8469TIP3    H225293   8.221   2.587   3.337
 8470TIP3   OH225294   8.133   2.375   3.138
 8470TIP3    H125295   8.201   2.426   3.186
 8470TIP3    H225296   8.191   2.312   3.090
 8471TIP3   OH225297   9.076   2.836   4.015
 8471TIP3    H125298   8.992   2.886   4.017
 8471TIP3    H225299   9.106   2.853   3.923
 8472TIP3   OH225300   8.519   2.674   3.392
 8472TIP3    H125301   8.465   2.697   3.472
 8472TIP3    H225302   8.602   2.644   3.436
 8473TIP3   OH225303   8.756   2.712   4.307
 8473TIP3    H125304   8.754   2.794   4.359
 8473TIP3    H225305   8.669   2.717   4.262
 8474TIP3   OH225306   7.755   2.670   3.810
 8474TIP3    H125307   7.714   2.612   3.743
 8474TIP3    H225308   7.832   2.616   3.840
 8475TIP3   OH225309   7.888   3.087   3.956
 8475TIP3    H125310   7.865   3.040   3.874
 8475TIP3    H225311   7.976   3.050   3.976
 8476TIP3   OH225312   7.893   2.641   4.165
 8476TIP3    H125313   7.926   2.621   4.075
 8476TIP3    H225314   7.935   2.727   4.184
 8477TIP3   OH225315   8.419   3.275   3.941
 8477TIP3    H125316   8.403   3.357   3.992
 8477TIP3    H225317   8.401   3.204   4.006
 8478TIP3   OH225318   8.034   3.192   4.487
 8478TIP3    H125319   7.975   3.256   4.535
 8478TIP3    H225320   7.965   3.142   4.440
 8479TIP3   OH225321   8.362   2.530   3.219
 8479TIP3    H125322   8.421   2.589   3.271
 8479TIP3    H225323   8.388   2.553   3.127
 8480TIP3   OH225324   7.784   2.753   4.592
 8480TIP3    H125325   7.789   2.841   4.634
 8480TIP3    H225326   7.688   2.735   4.602
 8481TIP3   OH225327   8.109   3.207   3.492
 8481TIP3    H125328   8.186   3.264   3.511
 8481TIP3    H225329   8.044   3.269   3.456
 8482TIP3   OH225330   7.821   3.339   4.566
 8482TIP3    H125331   7.776   3.355   4.482
 8482TIP3    H225332   7.749   3.347   4.631
 8483TIP3   OH225333   8.890   1.788   3.300
 8483TIP3    H125334   8.800   1.804   3.334
 8483TIP3    H225335   8.895   1.853   3.227
 8484TIP3   OH225336   7.622   2.512   3.613
 8484TIP3    H125337   7.555   2.558   3.558
 8484TIP3    H225338   7.580   2.428   3.629
 8485TIP3   OH225339   8.679   3.139   2.817
 8485TIP3    H125340   8.686   3.236   2.802
 8485TIP3    H225341   8.771   3.111   2.796
 8486TIP3   OH225342   7.400   2.898   4.523
 8486TIP3    H125343   7.335   2.879   4.452
 8486TIP3    H225344   7.437   2.809   4.543
 8487TIP3   OH225345   7.262   3.087   4.162
 8487TIP3    H125346   7.357   3.090   4.148
 8487TIP3    H225347   7.245   3.170   4.209
 8488TIP3   OH225348   9.115   3.554   4.208
 8488TIP3    H125349   9.106   3.458   4.224
 8488TIP3    H225350   9.054   3.587   4.278
 8489TIP3   OH225351   8.224   3.329   4.344
 8489TIP3    H125352   8.224   3.421   4.379
 8489TIP3    H225353   8.156   3.288   4.402
 8490TIP3   OH225354   7.991   3.458   3.295
 8490TIP3    H125355   7.940   3.436   3.215
 8490TIP3    H225356   7.952   3.544   3.321
 8491TIP3   OH225357   7.426   3.305   3.682
 8491TIP3    H125358   7.472   3.296   3.769
 8491TIP3    H225359   7.370   3.226   3.684
 8492TIP3   OH225360   8.190   3.358   2.938
 8492TIP3    H125361   8.247   3.288   2.901
 8492TIP3    H225362   8.225   3.365   3.029
 8493TIP3   OH225363   8.242   3.407   3.211
 8493TIP3    H125364   8.152   3.418   3.247
 8493TIP3    H225365   8.283   3.352   3.280
 8494TIP3   OH225366   9.022   2.677   4.477
 8494TIP3    H125367   8.935   2.688   4.436
 8494TIP3    H225368   9.034   2.580   4.471
 8495TIP3   OH225369   7.607   3.078   4.509
 8495TIP3    H125370   7.657   3.066   4.592
 8495TIP3    H225371   7.532   3.015   4.520
 8496TIP3   OH225372   8.006   1.903   4.295
 8496TIP3    H125373   7.916   1.873   4.269
 8496TIP3    H225374   7.981   1.985   4.343
 8497TIP3   OH225375   8.541   2.017   4.490
 8497TIP3    H125376   8.610   1.990   4.554
 8497TIP3    H225377   8.458   1.997   4.538
 8498TIP3   OH225378   8.775   2.448   4.406
 8498TIP3    H125379   8.728   2.445   4.493
 8498TIP3    H225380   8.753   2.537   4.373
 8499TIP3   OH225381   8.439   2.578   2.964
 8499TIP3    H125382   8.405   2.553   2.876
 8499TIP3    H225383   8.523   2.622   2.941
 8500TIP3   OH225384   8.152   1.951   3.267
 8500TIP3    H125385   8.118   1.948   3.359
 8500TIP3    H225386   8.112   1.869   3.233
 8501TIP3   OH225387   7.937   2.418   4.314
 8501TIP3    H125388   7.888   2.440   4.395
 8501TIP3    H225389   7.922   2.500   4.260
 8502TIP3   OH225390   7.822   2.305   3.828
 8502TIP3    H125391   7.729   2.279   3.846
 8502TIP3    H225392   7.834   2.264   3.739
 8503TIP3   OH225393   8.313   2.390   3.555
 8503TIP3    H125394   8.260   2.462   3.514
 8503TIP3    H225395   8.368   2.360   3.480
 8504TIP3   OH225396   8.487   2.667   4.639
 8504TIP3    H125397   8.465   2.595   4.703
 8504TIP3    H225398   8.580   2.684   4.663
 8505TIP3   OH225399   8.469   2.418   3.794
 8505TIP3    H125400   8.409   2.449   3.724
 8505TIP3    H225401   8.502   2.337   3.750
 8506TIP3   OH225402   7.757   2.448   4.523
 8506TIP3    H125403   7.786   2.512   4.589
 8506TIP3    H225404   7.748   2.366   4.576
 8507TIP3   OH225405   7.807   1.925   3.233
 8507TIP3    H125406   7.798   1.924   3.330
 8507TIP3    H225407   7.729   1.978   3.207
 8508TIP3   OH225408   7.350   1.968   4.105
 8508TIP3    H125409   7.425   2.002   4.159
 8508TIP3    H225410   7.393   1.940   4.023
 8509TIP3   OH225411   7.320   1.950   3.622
 8509TIP3    H125412   7.366   1.989   3.544
 8509TIP3    H225413   7.260   2.024   3.644
 8510TIP3   OH225414   8.479   2.665   4.217
 8510TIP3    H125415   8.513   2.593   4.158
 8510TIP3    H225416   8.450   2.612   4.294
 8511TIP3   OH225417   8.150   2.125   3.889
 8511TIP3    H125418   8.068   2.125   3.942
 8511TIP3    H225419   8.218   2.125   3.957
 8512TIP3   OH225420   7.583   2.184   3.897
 8512TIP3    H125421   7.489   2.191   3.870
 8512TIP3    H225422   7.606   2.092   3.873
 8513TIP3   OH225423   7.852   2.177   3.586
 8513TIP3    H125424   7.945   2.195   3.565
 8513TIP3    H225425   7.805   2.201   3.503
 8514TIP3   OH225426   8.639   2.202   4.089
 8514TIP3    H125427   8.607   2.215   4.181
 8514TIP3    H225428   8.570   2.142   4.055
 8515TIP3   OH225429   7.696   2.212   3.364
 8515TIP3    H125430   7.624   2.168   3.316
 8515TIP3    H225431   7.748   2.249   3.290
 8516TIP3   OH225432   8.802   3.927   4.319
 8516TIP3    H125433   8.815   3.899   4.228
 8516TIP3    H225434   8.852   3.859   4.368
 8517TIP3   OH225435   7.768   2.998   4.732
 8517TIP3    H125436   7.848   3.032   4.777
 8517TIP3    H225437   7.704   3.003   4.806
 8518TIP3   OH225438   8.231   2.455   3.987
 8518TIP3    H125439   8.306   2.416   3.938
 8518TIP3    H225440   8.239   2.414   4.074
 8519TIP3   OH225441   7.753   1.943   3.866
 8519TIP3    H125442   7.719   1.864   3.913
 8519TIP3    H225443   7.803   1.903   3.793
 8520TIP3   OH225444   8.209   2.353   4.276
 8520TIP3    H125445   8.119   2.389   4.291
 8520TIP3    H225446   8.266   2.414   4.327
 8521TIP3   OH225447   7.946   2.743   3.371
 8521TIP3    H125448   7.873   2.677   3.360
 8521TIP3    H225449   7.927   2.776   3.462
 8522TIP3   OH225450   8.843   2.978   3.999
 8522TIP3    H125451   8.864   3.025   3.916
 8522TIP3    H225452   8.757   2.935   3.977
 8523TIP3   OH225453   8.404   2.054   3.237
 8523TIP3    H125454   8.307   2.038   3.243
 8523TIP3    H225455   8.413   2.149   3.258
 8524TIP3   OH225456   8.345   3.061   4.369
 8524TIP3    H125457   8.370   3.042   4.460
 8524TIP3    H225458   8.303   3.149   4.377
 8525TIP3   OH225459   8.474   2.303   3.338
 8525TIP3    H125460   8.571   2.310   3.350
 8525TIP3    H225461   8.455   2.382   3.283
 8526TIP3   OH225462   7.638   2.764   4.047
 8526TIP3    H125463   7.677   2.736   3.962
 8526TIP3    H225464   7.680   2.704   4.110
 8527TIP3   OH225465   8.090   2.892   3.193
 8527TIP3    H125466   8.043   2.978   3.199
 8527TIP3    H225467   8.036   2.837   3.253
 8528TIP3   OH225468   7.519   2.684   4.660
 8528TIP3    H125469   7.541   2.673   4.755
 8528TIP3    H225470   7.450   2.618   4.647
 8529TIP3   OH225471   8.245   2.798   4.681
 8529TIP3    H125472   8.186   2.740   4.630
 8529TIP3    H225473   8.333   2.766   4.652
 8530TIP3   OH225474   8.501   3.318   4.263
 8530TIP3    H125475   8.405   3.319   4.281
 8530TIP3    H225476   8.533   3.372   4.339
 8531TIP3   OH225477   8.908   2.384   3.187
 8531TIP3    H125478   8.851   2.340   3.119
 8531TIP3    H225479   8.919   2.469   3.139
 8532TIP3   OH225480   9.135   3.240   4.246
 8532TIP3    H125481   9.037   3.243   4.243
 8532TIP3    H225482   9.153   3.207   4.155
 8533TIP3   OH225483   8.607   3.214   3.078
 8533TIP3    H125484   8.594   3.142   3.141
 8533TIP3    H225485   8.631   3.168   2.996
 8534TIP3   OH225486   8.611   2.843   3.918
 8534TIP3    H125487   8.517   2.818   3.933
 8534TIP3    H225488   8.643   2.762   3.873
 8535TIP3   OH225489   7.737   3.067   3.668
 8535TIP3    H125490   7.734   3.150   3.617
 8535TIP3    H225491   7.644   3.052   3.686
 8536TIP3   OH225492   7.303   2.373   3.377
 8536TIP3    H125493   7.348   2.457   3.398
 8536TIP3    H225494   7.225   2.378   3.437
 8537TIP3   OH225495   7.877   2.834   3.615
 8537TIP3    H125496   7.840   2.923   3.633
 8537TIP3    H225497   7.841   2.784   3.691
 8538TIP3   OH225498   8.009   3.411   4.142
 8538TIP3    H125499   8.052   3.485   4.096
 8538TIP3    H225500   8.082   3.377   4.196
 8539TIP3   OH225501   7.657   3.308   3.523
 8539TIP3    H125502   7.572   3.314   3.571
 8539TIP3    H225503   7.687   3.401   3.527
 8540TIP3   OH225504   8.395   3.045   4.101
 8540TIP3    H125505   8.384   3.047   4.199
 8540TIP3    H225506   8.476   2.994   4.092
 8541TIP3   OH225507   8.370   2.940   2.983
 8541TIP3    H125508   8.422   2.915   3.062
 8541TIP3    H225509   8.282   2.911   3.010
 8542TIP3   OH225510   8.638   3.569   4.136
 8542TIP3    H125511   8.555   3.519   4.131
 8542TIP3    H225512   8.622   3.644   4.075
 8543TIP3   OH225513   8.707   3.415   2.802
 8543TIP3    H125514   8.745   3.489   2.752
 8543TIP3    H225515   8.626   3.459   2.836
 8544TIP3   OH225516   7.731   2.190   4.669
 8544TIP3    H125517   7.634   2.192   4.682
 8544TIP3    H225518   7.760   2.132   4.741
 8545TIP3   OH225519   8.527   2.874   3.203
 8545TIP3    H125520   8.512   2.805   3.271
 8545TIP3    H225521   8.623   2.875   3.199
 8546TIP3   OH225522   7.449   3.277   4.300
 8546TIP3    H125523   7.498   3.200   4.331
 8546TIP3    H225524   7.479   3.344   4.363
 8547TIP3   OH225525   7.736   2.920   2.982
 8547TIP3    H125526   7.750   2.828   2.954
 8547TIP3    H225527   7.717   2.909   3.077
 8548TIP3   OH225528   7.682   2.925   3.254
 8548TIP3    H125529   7.752   2.897   3.315
 8548TIP3    H225530   7.686   3.023   3.263
 8549TIP3   OH225531   7.417   2.618   3.458
 8549TIP3    H125532   7.351   2.663   3.515
 8549TIP3    H225533   7.430   2.687   3.391
 8550TIP3   OH225534   8.570   2.251   4.348
 8550TIP3    H125535   8.647   2.293   4.390
 8550TIP3    H225536   8.555   2.172   4.404
 8551TIP3   OH225537   8.448   2.005   3.516
 8551TIP3    H125538   8.432   2.029   3.422
 8551TIP3    H225539   8.486   2.088   3.552
 8552TIP3   OH225540   7.949   3.123   3.204
 8552TIP3    H125541   7.862   3.148   3.240
 8552TIP3    H225542   7.961   3.193   3.138
 8553TIP3   OH225543   8.136   2.186   3.617
 8553TIP3    H125544   8.200   2.258   3.600
 8553TIP3    H225545   8.141   2.178   3.715
 8554TIP3   OH225546   8.406   2.504   4.424
 8554TIP3    H125547   8.427   2.559   4.503
 8554TIP3    H225548   8.461   2.425   4.440
 8555TIP3   OH225549   8.280   1.911   3.719
 8555TIP3    H125550   8.273   1.987   3.780
 8555TIP3    H225551   8.341   1.947   3.651
 8556TIP3   OH225552   7.693   3.198   3.271
 8556TIP3    H125553   7.661   3.268   3.209
 8556TIP3    H225554   7.675   3.240   3.358
 8557TIP3   OH225555   7.792   1.911   3.509
 8557TIP3    H125556   7.789   2.002   3.546
 8557TIP3    H225557   7.888   1.894   3.517
 8558TIP3   OH225558   9.041   2.405   4.408
 8558TIP3    H125559   8.943   2.401   4.411
 8558TIP3    H225560   9.057   2.378   4.316
 8559TIP3   OH225561   8.688   2.604   3.794
 8559TIP3    H125562   8.614   2.542   3.807
 8559TIP3    H225563   8.762   2.559   3.842
 8560TIP3   OH225564   7.409   2.826   3.263
 8560TIP3    H125565   7.476   2.896   3.274
 8560TIP3    H225566   7.455   2.771   3.196
 8561TIP3   OH225567   7.353   2.103   3.397
 8561TIP3    H125568   7.354   2.201   3.394
 8561TIP3    H225569   7.270   2.082   3.353
 8562TIP3   OH225570   8.663   3.563   3.747
 8562TIP3    H125571   8.624   3.583   3.661
 8562TIP3    H225572   8.758   3.581   3.730
 8563TIP3   OH225573   7.741   1.823   4.270
 8563TIP3    H125574   7.710   1.789   4.184
 8563TIP3    H225575   7.731   1.745   4.328
 8564TIP3   OH225576   7.280   3.041   3.650
 8564TIP3    H125577   7.216   3.069   3.717
 8564TIP3    H225578   7.243   3.084   3.569
 8565TIP3   OH225579   7.434   3.578   4.724
 8565TIP3    H125580   7.524   3.562   4.756
 8565TIP3    H225581   7.401   3.487   4.719
 8566TIP3   OH225582   7.900   3.123   2.895
 8566TIP3    H125583   7.844   3.052   2.933
 8566TIP3    H225584   7.975   3.071   2.862
 8567TIP3   OH225585   8.562   3.453   4.496
 8567TIP3    H125586   8.555   3.386   4.567
 8567TIP3    H225587   8.653   3.484   4.506
 8568TIP3   OH225588   8.336   3.165   2.808
 8568TIP3    H125589   8.379   3.100   2.867
 8568TIP3    H225590   8.392   3.161   2.728
 8569TIP3   OH225591   7.566   2.989   4.923
 8569TIP3    H125592   7.583   2.893   4.926
 8569TIP3    H225593   7.479   2.992   4.878
 8570TIP3   OH225594   7.545   2.640   3.116
 8570TIP3    H125595   7.600   2.608   3.189
 8570TIP3    H225596   7.613   2.644   3.045
 8571TIP3   OH225597   8.175   3.074   4.696
 8571TIP3    H125598   8.133   3.094   4.610
 8571TIP3    H225599   8.205   2.981   4.685
 8572TIP3   OH225600   8.056   2.839   2.923
 8572TIP3    H125601   8.057   2.851   3.020
 8572TIP3    H225602   8.056   2.741   2.918
 8573TIP3   OH225603   8.667   3.084   4.301
 8573TIP3    H125604   8.741   3.132   4.260
 8573TIP3    H225605   8.595   3.149   4.291
 8574TIP3   OH225606   7.685   2.720   4.907
 8574TIP3    H125607   7.766   2.674   4.880
 8574TIP3    H225608   7.712   2.757   4.994
 8575TIP3   OH225609   7.753   2.545   3.338
 8575TIP3    H125610   7.725   2.505   3.421
 8575TIP3    H225611   7.789   2.468   3.288
 8576TIP3   OH225612   8.020   2.606   4.565
 8576TIP3    H125613   7.944   2.668   4.568
 8576TIP3    H225614   8.071   2.642   4.488
 8577TIP3   OH225615   7.854   2.338   3.179
 8577TIP3    H125616   7.828   2.342   3.084
 8577TIP3    H225617   7.951   2.343   3.171
 8578TIP3   OH225618   8.534   3.005   4.698
 8578TIP3    H125619   8.620   2.989   4.657
 8578TIP3    H225620   8.534   2.941   4.772
 8579TIP3   OH225621   8.674   2.674   2.846
 8579TIP3    H125622   8.655   2.624   2.764
 8579TIP3    H225623   8.640   2.763   2.818
 8580TIP3   OH225624   8.145   2.397   4.692
 8580TIP3    H125625   8.146   2.318   4.636
 8580TIP3    H225626   8.101   2.463   4.634
 8581TIP3   OH225627   8.147   2.184   4.500
 8581TIP3    H125628   8.175   2.225   4.415
 8581TIP3    H225629   8.054   2.161   4.481
 8582TIP3   OH225630   8.173   2.717   4.373
 8582TIP3    H125631   8.258   2.730   4.328
 8582TIP3    H225632   8.117   2.785   4.329
 8583TIP3   OH225633   8.757   2.686   4.754
 8583TIP3    H125634   8.807   2.603   4.764
 8583TIP3    H225635   8.825   2.748   4.724
 8584TIP3   OH225636   8.798   2.936   4.487
 8584TIP3    H125637   8.739   2.991   4.430
 8584TIP3    H225638   8.885   2.958   4.447
 8585TIP3   OH225639   8.023   2.507   4.924
 8585TIP3    H125640   7.954   2.439   4.937
 8585TIP3    H225641   8.057   2.482   4.836
 8586TIP3   OH225642   8.280   1.946   4.566
 8586TIP3    H125643   8.230   2.028   4.545
 8586TIP3    H225644   8.211   1.878   4.556
 8587TIP3   OH225645   8.406   2.450   4.783
 8587TIP3    H125646   8.394   2.438   4.879
 8587TIP3    H225647   8.316   2.426   4.753
 8588TIP3   OH225648   8.645   2.398   4.637
 8588TIP3    H125649   8.569   2.401   4.700
 8588TIP3    H225650   8.718   2.368   4.695
 8589TIP3   OH225651   8.877   2.343   4.789
 8589TIP3    H125652   8.886   2.246   4.806
 8589TIP3    H225653   8.870   2.380   4.880
 8590TIP3   OH225654   7.860   2.288   4.977
 8590TIP3    H125655   7.868   2.197   4.943
 8590TIP3    H225656   7.898   2.277   5.067
 8591TIP3   OH225657   8.371   1.958   4.826
 8591TIP3    H125658   8.441   1.890   4.823
 8591TIP3    H225659   8.334   1.949   4.736
 8592TIP3   OH225660   8.440   2.172   4.984
 8592TIP3    H125661   8.418   2.100   4.920
 8592TIP3    H225662   8.362   2.230   4.977
 8593TIP3   OH225663   7.662   3.403   3.085
 8593TIP3    H125664   7.757   3.396   3.064
 8593TIP3    H225665   7.631   3.451   3.005
 8594TIP3   OH225666   7.140   2.783   3.296
 8594TIP3    H125667   7.236   2.804   3.285
 8594TIP3    H225668   7.135   2.693   3.257
 8595TIP3   OH225669   7.056   3.395   3.714
 8595TIP3    H125670   6.988   3.333   3.680
 8595TIP3    H225671   7.100   3.337   3.780
 8596TIP3   OH225672   7.192   3.243   3.896
 8596TIP3    H125673   7.156   3.173   3.954
 8596TIP3    H225674   7.240   3.297   3.961
 8597TIP3   OH225675   8.913   3.656   3.700
 8597TIP3    H125676   8.946   3.675   3.790
 8597TIP3    H225677   8.987   3.686   3.645
 8598TIP3   OH225678   8.955   3.659   3.981
 8598TIP3    H125679   8.906   3.574   3.982
 8598TIP3    H225680   9.019   3.641   4.053
 8599TIP3   OH225681   8.996   3.358   4.561
 8599TIP3    H125682   8.924   3.363   4.627
 8599TIP3    H225683   8.985   3.444   4.516
 8600TIP3   OH225684   8.927   2.696   3.377
 8600TIP3    H125685   8.849   2.673   3.430
 8600TIP3    H225686   8.955   2.780   3.414
 8601TIP3   OH225687   8.992   3.108   3.804
 8601TIP3    H125688   9.028   3.055   3.732
 8601TIP3    H225689   8.979   3.193   3.760
 8602TIP3   OH225690   8.824   3.416   4.008
 8602TIP3    H125691   8.760   3.462   4.067
 8602TIP3    H225692   8.764   3.370   3.945
 8603TIP3   OH225693   8.885   2.629   3.032
 8603TIP3    H125694   8.805   2.654   2.981
 8603TIP3    H225695   8.911   2.713   3.075
 8604TIP3   OH225696   8.735   2.301   2.993
 8604TIP3    H125697   8.721   2.346   2.910
 8604TIP3    H225698   8.713   2.208   2.970
 8605TIP3   OH225699   8.735   2.578   3.527
 8605TIP3    H125700   8.755   2.483   3.520
 8605TIP3    H225701   8.727   2.591   3.624
 8606TIP3   OH225702   7.379   2.644   4.276
 8606TIP3    H125703   7.375   2.619   4.181
 8606TIP3    H225704   7.476   2.650   4.289
 8607TIP3   OH225705   9.042   3.005   4.382
 8607TIP3    H125706   9.117   2.942   4.373
 8607TIP3    H225707   9.068   3.077   4.322
 8608TIP3   OH225708   9.239   2.817   4.397
 8608TIP3    H125709   9.160   2.772   4.433
 8608TIP3    H225710   9.303   2.743   4.406
 8609TIP3   OH225711   8.687   2.033   2.960
 8609TIP3    H125712   8.759   2.003   3.019
 8609TIP3    H225713   8.610   1.979   2.986
 8610TIP3   OH225714   8.751   2.299   3.418
 8610TIP3    H125715   8.792   2.210   3.431
 8610TIP3    H225716   8.805   2.333   3.344
 8611TIP3   OH225717   8.899   2.481   3.908
 8611TIP3    H125718   8.981   2.518   3.869
 8611TIP3    H225719   8.916   2.499   4.003
 8612TIP3   OH225720   8.978   2.614   4.150
 8612TIP3    H125721   8.899   2.647   4.198
 8612TIP3    H225722   9.008   2.694   4.104
 8613TIP3   OH225723   7.593   2.337   4.942
 8613TIP3    H125724   7.691   2.334   4.947
 8613TIP3    H225725   7.571   2.253   4.985
 8614TIP3   OH225726   8.856   2.047   3.465
 8614TIP3    H125727   8.891   2.032   3.555
 8614TIP3    H225728   8.793   1.972   3.458
 8615TIP3   OH225729   7.556   2.032   4.279
 8615TIP3    H125730   7.619   1.957   4.288
 8615TIP3    H225731   7.618   2.107   4.271
 8616TIP3   OH225732   7.358   2.305   4.350
 8616TIP3    H125733   7.409   2.300   4.266
 8616TIP3    H225734   7.383   2.393   4.381
 8617TIP3   OH225735   9.289   2.331   4.527
 8617TIP3    H125736   9.213   2.386   4.554
 8617TIP3    H225737   9.245   2.274   4.460
 8618TIP3   OH225738   8.934   1.962   3.082
 8618TIP3    H125739   8.979   1.879   3.059
 8618TIP3    H225740   8.989   2.026   3.031
 8619TIP3   OH225741   7.343   1.806   3.849
 8619TIP3    H125742   7.250   1.805   3.877
 8619TIP3    H225743   7.340   1.866   3.772
 8620TIP3   OH225744   8.517   3.523   3.366
 8620TIP3    H125745   8.534   3.489   3.276
 8620TIP3    H225746   8.597   3.575   3.376
 8621TIP3   OH225747   7.563   1.890   4.666
 8621TIP3    H125748   7.513   1.884   4.748
 8621TIP3    H225749   7.496   1.927   4.605
 8622TIP3   OH225750   7.598   3.325   4.740
 8622TIP3    H125751   7.507   3.292   4.733
 8622TIP3    H225752   7.621   3.306   4.832
 8623TIP3   OH225753   7.776   3.344   4.279
 8623TIP3    H125754   7.732   3.425   4.244
 8623TIP3    H225755   7.865   3.360   4.242
 8624TIP3   OH225756   8.228   3.596   4.423
 8624TIP3    H125757   8.265   3.595   4.514
 8624TIP3    H225758   8.298   3.646   4.376
 8625TIP3   OH225759   8.417   3.743   4.280
 8625TIP3    H125760   8.493   3.685   4.262
 8625TIP3    H225761   8.457   3.804   4.345
 8626TIP3   OH225762   9.190   2.109   4.386
 8626TIP3    H125763   9.101   2.110   4.348
 8626TIP3    H225764   9.220   2.019   4.363
 8627TIP3   OH225765   7.458   3.610   4.310
 8627TIP3    H125766   7.368   3.642   4.291
 8627TIP3    H225767   7.470   3.643   4.400
 8628TIP3   OH225768   7.695   3.587   4.171
 8628TIP3    H125769   7.608   3.598   4.217
 8628TIP3    H225770   7.673   3.617   4.081
 8629TIP3   OH225771   8.120   3.616   3.966
 8629TIP3    H125772   8.045   3.635   3.907
 8629TIP3    H225773   8.130   3.702   4.013
 8630TIP3   OH225774   8.384   3.549   4.010
 8630TIP3    H125775   8.288   3.562   3.996
 8630TIP3    H225776   8.416   3.640   4.002
 8631TIP3   OH225777   8.606   3.756   3.935
 8631TIP3    H125778   8.559   3.813   3.874
 8631TIP3    H225779   8.630   3.680   3.877
 8632TIP3   OH225780   7.372   3.402   4.059
 8632TIP3    H125781   7.398   3.374   4.150
 8632TIP3    H225782   7.442   3.356   4.008
 8633TIP3   OH225783   7.564   3.271   3.915
 8633TIP3    H125784   7.577   3.187   3.965
 8633TIP3    H225785   7.656   3.307   3.913
 8634TIP3   OH225786   7.833   3.366   3.919
 8634TIP3    H125787   7.861   3.273   3.910
 8634TIP3    H225788   7.876   3.387   4.004
 8635TIP3   OH225789   8.403   2.021   4.004
 8635TIP3    H125790   8.361   1.952   4.058
 8635TIP3    H225791   8.478   1.974   3.963
 8636TIP3   OH225792   8.928   1.905   3.930
 8636TIP3    H125793   8.958   1.958   3.854
 8636TIP3    H225794   8.831   1.919   3.927
 8637TIP3   OH225795   9.019   1.999   3.691
 8637TIP3    H125796   9.104   1.957   3.670
 8637TIP3    H225797   9.042   2.094   3.679
 8638TIP3   OH225798   7.654   1.730   4.021
 8638TIP3    H125799   7.561   1.697   4.023
 8638TIP3    H225800   7.703   1.645   4.018
 8639TIP3   OH225801   7.440   1.600   3.670
 8639TIP3    H125802   7.470   1.658   3.597
 8639TIP3    H225803   7.412   1.666   3.736
 8640TIP3   OH225804   8.098   1.762   3.903
 8640TIP3    H125805   8.155   1.813   3.844
 8640TIP3    H225806   8.121   1.799   3.989
 8641TIP3   OH225807   8.643   1.911   3.890
 8641TIP3    H125808   8.647   1.873   3.801
 8641TIP3    H225809   8.629   1.829   3.944
 8642TIP3   OH225810   8.666   1.838   3.454
 8642TIP3    H125811   8.581   1.883   3.469
 8642TIP3    H225812   8.649   1.751   3.497
 8643TIP3   OH225813   7.159   3.170   3.446
 8643TIP3    H125814   7.073   3.137   3.414
 8643TIP3    H225815   7.146   3.265   3.434
 8644TIP3   OH225816   7.557   1.758   3.434
 8644TIP3    H125817   7.606   1.697   3.376
 8644TIP3    H225818   7.630   1.813   3.470
 8645TIP3   OH225819   8.069   1.935   3.532
 8645TIP3    H125820   8.130   1.890   3.594
 8645TIP3    H225821   8.089   2.028   3.556
 8646TIP3   OH225822   7.929   3.359   3.030
 8646TIP3    H125823   8.018   3.381   2.994
 8646TIP3    H225824   7.907   3.284   2.971
 8647TIP3   OH225825   8.642   3.478   3.125
 8647TIP3    H125826   8.636   3.380   3.111
 8647TIP3    H225827   8.601   3.510   3.042
 8648TIP3   OH225828   7.861   2.010   4.912
 8648TIP3    H125829   7.827   1.940   4.970
 8648TIP3    H225830   7.955   2.011   4.939
 8649TIP3   OH225831   8.110   2.009   5.031
 8649TIP3    H125832   8.195   1.985   4.990
 8649TIP3    H225833   8.100   1.938   5.097
 8650TIP3   OH225834   7.234   3.198   3.088
 8650TIP3    H125835   7.231   3.216   3.183
 8650TIP3    H225836   7.322   3.156   3.077
 8651TIP3   OH225837   8.932   2.071   4.821
 8651TIP3    H125838   8.952   2.038   4.912
 8651TIP3    H225839   9.020   2.066   4.778
 8652TIP3   OH225840   9.099   2.491   3.356
 8652TIP3    H125841   9.038   2.568   3.360
 8652TIP3    H225842   9.049   2.436   3.293
 8653TIP3   OH225843   9.159   2.802   3.507
 8653TIP3    H125844   9.191   2.711   3.504
 8653TIP3    H225845   9.158   2.823   3.412
 8654TIP3   OH225846   9.197   3.138   3.996
 8654TIP3    H125847   9.124   3.110   3.938
 8654TIP3    H225848   9.230   3.053   4.033
 8655TIP3   OH225849   9.057   3.345   3.649
 8655TIP3    H125850   9.153   3.350   3.639
 8655TIP3    H225851   9.039   3.426   3.699
 8656TIP3   OH225852   9.196   3.580   3.191
 8656TIP3    H125853   9.247   3.565   3.272
 8656TIP3    H225854   9.152   3.493   3.179
 8657TIP3   OH225855   9.346   3.361   4.017
 8657TIP3    H125856   9.358   3.358   4.114
 8657TIP3    H225857   9.283   3.287   4.004
 8658TIP3   OH225858   9.122   2.239   3.614
 8658TIP3    H125859   9.172   2.297   3.674
 8658TIP3    H225860   9.112   2.294   3.535
 8659TIP3   OH225861   9.300   2.930   4.147
 8659TIP3    H125862   9.310   2.902   4.240
 8659TIP3    H225863   9.228   2.871   4.118
 8660TIP3   OH225864   9.067   2.700   2.840
 8660TIP3    H125865   9.108   2.756   2.909
 8660TIP3    H225866   8.996   2.663   2.895
 8661TIP3   OH225867   9.242   3.536   3.793
 8661TIP3    H125868   9.282   3.463   3.844
 8661TIP3    H225869   9.259   3.611   3.852
 8662TIP3   OH225870   9.087   3.334   3.158
 8662TIP3    H125871   9.012   3.282   3.191
 8662TIP3    H225872   9.067   3.336   3.062
 8663TIP3   OH225873   9.226   3.830   4.196
 8663TIP3    H125874   9.306   3.816   4.248
 8663TIP3    H225875   9.184   3.742   4.203
 8664TIP3   OH225876   9.366   3.271   4.395
 8664TIP3    H125877   9.387   3.188   4.441
 8664TIP3    H225878   9.280   3.252   4.353
 8665TIP3   OH225879   8.933   3.052   2.753
 8665TIP3    H125880   8.990   3.038   2.831
 8665TIP3    H225881   8.931   2.963   2.713
 8666TIP3   OH225882   8.843   3.652   3.202
 8666TIP3    H125883   8.784   3.584   3.164
 8666TIP3    H225884   8.893   3.598   3.267
 8667TIP3   OH225885   8.966   3.518   3.403
 8667TIP3    H125886   8.977   3.429   3.439
 8667TIP3    H225887   9.033   3.567   3.455
 8668TIP3   OH225888   9.204   2.889   3.762
 8668TIP3    H125889   9.176   2.860   3.671
 8668TIP3    H225890   9.278   2.948   3.740
 8669TIP3   OH225891   9.375   2.582   4.410
 8669TIP3    H125892   9.466   2.617   4.423
 8669TIP3    H225893   9.373   2.508   4.472
 8670TIP3   OH225894   9.138   2.583   3.815
 8670TIP3    H125895   9.213   2.522   3.807
 8670TIP3    H225896   9.180   2.669   3.832
 8671TIP3   OH225897   9.103   2.117   3.321
 8671TIP3    H125898   9.008   2.103   3.337
 8671TIP3    H225899   9.102   2.150   3.229
 8672TIP3   OH225900   9.394   3.571   4.253
 8672TIP3    H125901   9.304   3.554   4.221
 8672TIP3    H225902   9.388   3.543   4.345
 8673TIP3   OH225903   9.248   3.857   3.800
 8673TIP3    H125904   9.163   3.897   3.776
 8673TIP3    H225905   9.256   3.887   3.891
 8674TIP3   OH225906   9.507   3.882   3.684
 8674TIP3    H125907   9.416   3.864   3.713
 8674TIP3    H225908   9.495   3.893   3.588
 8675TIP3   OH225909   9.167   3.652   3.547
 8675TIP3    H125910   9.197   3.631   3.638
 8675TIP3    H225911   9.243   3.616   3.496
 8676TIP3   OH225912   9.374   3.538   3.397
 8676TIP3    H125913   9.400   3.445   3.383
 8676TIP3    H225914   9.462   3.581   3.402
 8677TIP3   OH225915   8.958   3.420   2.923
 8677TIP3    H125916   8.870   3.387   2.895
 8677TIP3    H225917   8.944   3.515   2.918
 8678TIP3   OH225918   9.058   3.472   2.592
 8678TIP3    H125919   9.021   3.487   2.680
 8678TIP3    H225920   9.105   3.388   2.605
 8679TIP3   OH225921   0.798   3.509   5.281
 8679TIP3    H125922   0.769   3.602   5.278
 8679TIP3    H225923   0.722   3.467   5.235
 8680TIP3   OH225924   0.815   3.503   5.658
 8680TIP3    H125925   0.835   3.506   5.754
 8680TIP3    H225926   0.760   3.424   5.652
 8681TIP3   OH225927   0.098   3.427   6.013
 8681TIP3    H125928   0.111   3.348   6.070
 8681TIP3    H225929   0.159   3.488   6.057
 8682TIP3   OH225930   1.039   3.823   5.348
 8682TIP3    H125931   1.029   3.762   5.423
 8682TIP3    H225932   1.066   3.905   5.393
 8683TIP3   OH225933   0.101   3.828   5.743
 8683TIP3    H125934   0.058   3.742   5.751
 8683TIP3    H225935   0.150   3.833   5.827
 8684TIP3   OH225936  -0.254   3.031   5.545
 8684TIP3    H125937  -0.288   3.119   5.567
 8684TIP3    H225938  -0.274   2.981   5.626
 8685TIP3   OH225939  -0.135   3.338   5.707
 8685TIP3    H125940  -0.103   3.254   5.748
 8685TIP3    H225941  -0.125   3.320   5.614
 8686TIP3   OH225942   0.688   4.291   5.361
 8686TIP3    H125943   0.732   4.219   5.311
 8686TIP3    H225944   0.686   4.255   5.450
 8687TIP3   OH225945   1.607   3.072   5.707
 8687TIP3    H125946   1.636   3.155   5.751
 8687TIP3    H225947   1.635   3.089   5.615
 8688TIP3   OH225948   1.025   3.260   5.739
 8688TIP3    H125949   1.061   3.176   5.774
 8688TIP3    H225950   0.957   3.228   5.680
 8689TIP3   OH225951   0.351   2.916   5.702
 8689TIP3    H125952   0.321   2.988   5.643
 8689TIP3    H225953   0.301   2.840   5.663
 8690TIP3   OH225954   1.022   3.076   5.328
 8690TIP3    H125955   1.072   3.047   5.408
 8690TIP3    H225956   1.096   3.068   5.264
 8691TIP3   OH225957  -0.020   3.113   5.800
 8691TIP3    H125958   0.049   3.097   5.868
 8691TIP3    H225959   0.005   3.048   5.732
 8692TIP3   OH225960   0.432   3.312   5.607
 8692TIP3    H125961   0.525   3.284   5.621
 8692TIP3    H225962   0.389   3.228   5.581
 8693TIP3   OH225963   1.680   3.279   5.879
 8693TIP3    H125964   1.596   3.327   5.861
 8693TIP3    H225965   1.699   3.309   5.969
 8694TIP3   OH225966   0.341   2.895   6.143
 8694TIP3    H125967   0.280   2.933   6.077
 8694TIP3    H225968   0.290   2.912   6.225
 8695TIP3   OH225969   0.670   3.733   5.159
 8695TIP3    H125970   0.654   3.732   5.063
 8695TIP3    H225971   0.640   3.824   5.181
 8696TIP3   OH225972   0.449   3.683   5.916
 8696TIP3    H125973   0.371   3.726   5.959
 8696TIP3    H225974   0.510   3.758   5.915
 8697TIP3   OH225975   1.226   3.016   5.497
 8697TIP3    H125976   1.233   2.955   5.571
 8697TIP3    H225977   1.294   3.083   5.520
 8698TIP3   OH225978   0.212   3.010   5.926
 8698TIP3    H125979   0.272   3.083   5.953
 8698TIP3    H225980   0.264   2.970   5.853
 8699TIP3   OH225981   0.261   3.858   6.010
 8699TIP3    H125982   0.252   3.955   5.997
 8699TIP3    H225983   0.195   3.846   6.082
 8700TIP3   OH225984  -0.281   3.567   5.222
 8700TIP3    H125985  -0.363   3.604   5.183
 8700TIP3    H225986  -0.261   3.635   5.289
 8701TIP3   OH225987   1.108   4.071   5.509
 8701TIP3    H125988   1.018   4.062   5.549
 8701TIP3    H225989   1.100   4.158   5.466
 8702TIP3   OH225990   1.403   2.970   5.873
 8702TIP3    H125991   1.318   3.007   5.845
 8702TIP3    H225992   1.464   3.003   5.803
 8703TIP3   OH225993   0.697   2.617   5.856
 8703TIP3    H125994   0.684   2.522   5.875
 8703TIP3    H225995   0.619   2.655   5.904
 8704TIP3   OH225996   0.809   4.118   5.183
 8704TIP3    H125997   0.858   4.035   5.162
 8704TIP3    H225998   0.871   4.183   5.145
 8705TIP3   OH225999   0.946   3.897   5.096
 8705TIP3    H126000   0.940   3.818   5.040
 8705TIP3    H226001   0.984   3.861   5.179
 8706TIP3   OH226002   1.337   3.985   5.855
 8706TIP3    H126003   1.324   3.907   5.797
 8706TIP3    H226004   1.317   4.059   5.794
 8707TIP3   OH226005   0.633   3.369   5.115
 8707TIP3    H126006   0.554   3.421   5.089
 8707TIP3    H226007   0.680   3.360   5.031
 8708TIP3   OH226008   0.588   3.158   4.836
 8708TIP3    H126009   0.656   3.216   4.875
 8708TIP3    H226010   0.645   3.098   4.785
 8709TIP3   OH226011   1.531   3.621   5.700
 8709TIP3    H126012   1.448   3.673   5.705
 8709TIP3    H226013   1.561   3.645   5.609
 8710TIP3   OH226014   0.974   3.454   5.083
 8710TIP3    H126015   0.923   3.488   5.161
 8710TIP3    H226016   1.062   3.438   5.124
 8711TIP3   OH226017   1.209   3.501   5.998
 8711TIP3    H126018   1.209   3.582   6.053
 8711TIP3    H226019   1.124   3.511   5.952
 8712TIP3   OH226020   0.239   3.466   5.474
 8712TIP3    H126021   0.176   3.418   5.413
 8712TIP3    H226022   0.289   3.389   5.508
 8713TIP3   OH226023   0.373   3.419   5.861
 8713TIP3    H126024   0.398   3.400   5.769
 8713TIP3    H226025   0.402   3.511   5.875
 8714TIP3   OH226026   0.866   4.067   5.630
 8714TIP3    H126027   0.856   4.146   5.686
 8714TIP3    H226028   0.856   3.993   5.694
 8715TIP3   OH226029   0.472   3.989   6.172
 8715TIP3    H126030   0.418   4.055   6.221
 8715TIP3    H226031   0.402   3.936   6.130
 8716TIP3   OH226032   0.814   3.313   4.909
 8716TIP3    H126033   0.872   3.376   4.957
 8716TIP3    H226034   0.838   3.335   4.816
 8717TIP3   OH226035   0.242   3.548   6.260
 8717TIP3    H126036   0.248   3.633   6.309
 8717TIP3    H226037   0.152   3.520   6.288
 8718TIP3   OH226038   0.559   3.995   5.192
 8718TIP3    H126039   0.638   4.051   5.199
 8718TIP3    H226040   0.496   4.054   5.147
 8719TIP3   OH226041   0.280   4.157   6.268
 8719TIP3    H126042   0.237   4.154   6.180
 8719TIP3    H226043   0.209   4.120   6.326
 8720TIP3   OH226044   1.333   2.560   4.959
 8720TIP3    H126045   1.251   2.582   5.007
 8720TIP3    H226046   1.347   2.641   4.905
 8721TIP3   OH226047   0.073   3.314   5.318
 8721TIP3    H126048   0.012   3.350   5.250
 8721TIP3    H226049   0.036   3.226   5.332
 8722TIP3   OH226050   1.130   3.927   4.509
 8722TIP3    H126051   1.139   4.023   4.491
 8722TIP3    H226052   1.223   3.897   4.495
 8723TIP3   OH226053  -0.142   3.703   6.202
 8723TIP3    H126054  -0.205   3.664   6.139
 8723TIP3    H226055  -0.119   3.622   6.253
 8724TIP3   OH226056   1.574   4.331   5.899
 8724TIP3    H126057   1.574   4.235   5.915
 8724TIP3    H226058   1.491   4.356   5.946
 8725TIP3   OH226059   0.674   4.114   6.031
 8725TIP3    H126060   0.676   4.206   6.067
 8725TIP3    H226061   0.606   4.073   6.090
 8726TIP3   OH226062   0.444   4.244   4.988
 8726TIP3    H126063   0.395   4.226   4.906
 8726TIP3    H226064   0.409   4.330   5.016
 8727TIP3   OH226065  -0.077   4.057   5.332
 8727TIP3    H126066  -0.073   4.053   5.429
 8727TIP3    H226067  -0.173   4.052   5.314
 8728TIP3   OH226068   0.642   4.146   4.626
 8728TIP3    H126069   0.701   4.076   4.590
 8728TIP3    H226070   0.677   4.155   4.717
 8729TIP3   OH226071   0.694   4.193   4.896
 8729TIP3    H126072   0.605   4.205   4.936
 8729TIP3    H226073   0.743   4.157   4.971
 8730TIP3   OH226074   1.466   3.461   6.176
 8730TIP3    H126075   1.381   3.473   6.130
 8730TIP3    H226076   1.479   3.364   6.167
 8731TIP3   OH226077   0.072   3.868   6.196
 8731TIP3    H126078   0.107   3.871   6.288
 8731TIP3    H226079  -0.004   3.808   6.207
 8732TIP3   OH226080   0.460   2.694   5.986
 8732TIP3    H126081   0.372   2.659   5.960
 8732TIP3    H226082   0.431   2.773   6.035
 8733TIP3   OH226083   0.992   2.804   6.180
 8733TIP3    H126084   1.061   2.779   6.245
 8733TIP3    H226085   0.909   2.786   6.229
 8734TIP3   OH226086   1.230   3.236   6.097
 8734TIP3    H126087   1.181   3.231   6.183
 8734TIP3    H226088   1.206   3.325   6.064
 8735TIP3   OH226089   0.891   3.366   4.657
 8735TIP3    H126090   0.856   3.341   4.570
 8735TIP3    H226091   0.974   3.410   4.631
 8736TIP3   OH226092   0.606   2.746   4.956
 8736TIP3    H126093   0.569   2.734   5.045
 8736TIP3    H226094   0.568   2.668   4.910
 8737TIP3   OH226095   0.394   3.198   6.011
 8737TIP3    H126096   0.341   3.219   6.091
 8737TIP3    H226097   0.382   3.282   5.960
 8738TIP3   OH226098   0.271   3.102   5.517
 8738TIP3    H126099   0.179   3.073   5.536
 8738TIP3    H226100   0.286   3.056   5.431
 8739TIP3   OH226101   0.937   3.455   6.328
 8739TIP3    H126102   0.914   3.387   6.394
 8739TIP3    H226103   1.029   3.475   6.354
 8740TIP3   OH226104   0.214   3.235   6.212
 8740TIP3    H126105   0.209   3.302   6.281
 8740TIP3    H226106   0.192   3.153   6.261
 8741TIP3   OH226107   0.252   2.709   4.927
 8741TIP3    H126108   0.250   2.713   5.025
 8741TIP3    H226109   0.158   2.698   4.907
 8742TIP3   OH226110  -0.196   2.783   5.750
 8742TIP3    H126111  -0.141   2.803   5.830
 8742TIP3    H226112  -0.156   2.700   5.722
 8743TIP3   OH226113  -0.207   2.770   5.325
 8743TIP3    H126114  -0.172   2.794   5.238
 8743TIP3    H226115  -0.267   2.844   5.342
 8744TIP3   OH226116   0.925   3.455   5.908
 8744TIP3    H126117   0.965   3.386   5.850
 8744TIP3    H226118   0.900   3.401   5.986
 8745TIP3   OH226119   0.605   2.937   5.580
 8745TIP3    H126120   0.521   2.926   5.628
 8745TIP3    H226121   0.669   2.898   5.643
 8746TIP3   OH226122   0.036   2.969   5.570
 8746TIP3    H126123  -0.059   2.964   5.548
 8746TIP3    H226124   0.064   2.876   5.565
 8747TIP3   OH226125   0.310   2.967   5.279
 8747TIP3    H126126   0.399   2.998   5.254
 8747TIP3    H226127   0.256   2.989   5.200
 8748TIP3   OH226128   1.088   2.992   5.778
 8748TIP3    H126129   1.060   3.001   5.872
 8748TIP3    H226130   1.030   2.921   5.748
 8749TIP3   OH226131   0.149   3.009   5.065
 8749TIP3    H126132   0.064   2.970   5.040
 8749TIP3    H226133   0.190   3.032   4.979
 8750TIP3   OH226134   1.264   4.682   6.000
 8750TIP3    H126135   1.265   4.701   5.904
 8750TIP3    H226136   1.346   4.726   6.030
 8751TIP3   OH226137   0.234   3.781   6.419
 8751TIP3    H126138   0.308   3.825   6.463
 8751TIP3    H226139   0.164   3.787   6.488
 8752TIP3   OH226140   0.699   3.231   5.686
 8752TIP3    H126141   0.714   3.139   5.662
 8752TIP3    H226142   0.687   3.221   5.783
 8753TIP3   OH226143   0.207   2.729   5.559
 8753TIP3    H126144   0.168   2.654   5.610
 8753TIP3    H226145   0.252   2.682   5.487
 8754TIP3   OH226146   0.663   3.158   5.951
 8754TIP3    H126147   0.571   3.181   5.979
 8754TIP3    H226148   0.718   3.208   6.014
 8755TIP3   OH226149   0.403   3.524   5.057
 8755TIP3    H126150   0.332   3.458   5.039
 8755TIP3    H226151   0.375   3.562   5.141
 8756TIP3   OH226152   1.299   3.767   5.690
 8756TIP3    H126153   1.324   3.818   5.609
 8756TIP3    H226154   1.212   3.729   5.665
 8757TIP3   OH226155   0.858   2.839   4.943
 8757TIP3    H126156   0.762   2.816   4.932
 8757TIP3    H226157   0.859   2.932   4.918
 8758TIP3   OH226158   0.792   3.846   6.063
 8758TIP3    H126159   0.791   3.827   6.159
 8758TIP3    H226160   0.754   3.936   6.065
 8759TIP3   OH226161   0.925   3.118   5.063
 8759TIP3    H126162   1.019   3.099   5.042
 8759TIP3    H226163   0.895   3.172   4.987
 8760TIP3   OH226164   0.139   3.551   5.726
 8760TIP3    H126165   0.084   3.489   5.674
 8760TIP3    H226166   0.126   3.511   5.815
 8761TIP3   OH226167   0.547   3.683   4.882
 8761TIP3    H126168   0.499   3.769   4.888
 8761TIP3    H226169   0.494   3.627   4.942
 8762TIP3   OH226170   0.001   3.463   6.350
 8762TIP3    H126171   0.004   3.460   6.447
 8762TIP3    H226172  -0.092   3.437   6.331
 8763TIP3   OH226173   0.690   3.583   6.376
 8763TIP3    H126174   0.629   3.517   6.337
 8763TIP3    H226175   0.777   3.552   6.344
 8764TIP3   OH226176   0.958   4.113   5.952
 8764TIP3    H126177   0.861   4.106   5.965
 8764TIP3    H226178   0.984   4.161   6.033
 8765TIP3   OH226179   1.364   3.183   4.865
 8765TIP3    H126180   1.303   3.138   4.802
 8765TIP3    H226181   1.363   3.271   4.822
 8766TIP3   OH226182   1.587   4.040   5.943
 8766TIP3    H126183   1.489   4.034   5.936
 8766TIP3    H226184   1.611   4.009   5.853
 8767TIP3   OH226185   1.069   3.999   4.771
 8767TIP3    H126186   1.042   3.926   4.827
 8767TIP3    H226187   1.083   3.957   4.684
 8768TIP3   OH226188   1.063   3.632   5.604
 8768TIP3    H126189   0.970   3.606   5.620
 8768TIP3    H226190   1.097   3.551   5.562
 8769TIP3   OH226191   0.195   3.842   5.372
 8769TIP3    H126192   0.211   3.919   5.313
 8769TIP3    H226193   0.099   3.851   5.382
 8770TIP3   OH226194  -0.246   3.164   5.077
 8770TIP3    H126195  -0.185   3.241   5.081
 8770TIP3    H226196  -0.316   3.195   5.137
 8771TIP3   OH226197   0.463   4.198   5.823
 8771TIP3    H126198   0.506   4.274   5.778
 8771TIP3    H226199   0.536   4.166   5.879
 8772TIP3   OH226200   0.156   4.090   5.205
 8772TIP3    H126201   0.067   4.091   5.246
 8772TIP3    H226202   0.178   4.186   5.207
 8773TIP3   OH226203   0.864   3.843   5.797
 8773TIP3    H126204   0.843   3.836   5.892
 8773TIP3    H226205   0.940   3.784   5.789
 8774TIP3   OH226206   0.825   3.726   4.675
 8774TIP3    H126207   0.875   3.703   4.755
 8774TIP3    H226208   0.735   3.703   4.702
 8775TIP3   OH226209   1.098   4.369   5.840
 8775TIP3    H126210   1.019   4.310   5.836
 8775TIP3    H226211   1.079   4.431   5.767
 8776TIP3   OH226212   1.162   4.202   4.492
 8776TIP3    H126213   1.199   4.273   4.437
 8776TIP3    H226214   1.082   4.248   4.526
 8777TIP3   OH226215   0.189   2.971   6.365
 8777TIP3    H126216   0.102   2.995   6.400
 8777TIP3    H226217   0.221   2.912   6.435
 8778TIP3   OH226218   0.984   3.669   4.899
 8778TIP3    H126219   0.975   3.594   4.961
 8778TIP3    H226220   1.080   3.663   4.879
 8779TIP3   OH226221  -0.059   4.087   5.982
 8779TIP3    H126222  -0.042   3.996   6.011
 8779TIP3    H226223  -0.086   4.128   6.065
 8780TIP3   OH226224   0.192   3.710   4.670
 8780TIP3    H126225   0.198   3.617   4.642
 8780TIP3    H226226   0.173   3.700   4.765
 8781TIP3   OH226227   0.141   3.713   4.940
 8781TIP3    H126228   0.204   3.698   5.012
 8781TIP3    H226229   0.136   3.812   4.940
 8782TIP3   OH226230  -0.102   3.396   5.125
 8782TIP3    H126231  -0.171   3.446   5.175
 8782TIP3    H226232  -0.091   3.461   5.053
 8783TIP3   OH226233   1.024   3.036   6.036
 8783TIP3    H126234   1.096   3.082   6.082
 8783TIP3    H226235   1.008   2.958   6.094
 8784TIP3   OH226236   0.862   2.839   5.215
 8784TIP3    H126237   0.856   2.824   5.118
 8784TIP3    H226238   0.951   2.876   5.222
 8785TIP3   OH226239   0.402   3.911   4.895
 8785TIP3    H126240   0.313   3.936   4.927
 8785TIP3    H226241   0.418   3.983   4.833
 8786TIP3   OH226242   0.602   2.976   5.303
 8786TIP3    H126243   0.684   2.930   5.280
 8786TIP3    H226244   0.600   2.971   5.401
 8787TIP3   OH226245   0.861   3.292   6.116
 8787TIP3    H126246   0.877   3.351   6.193
 8787TIP3    H226247   0.914   3.214   6.140
 8788TIP3   OH226248   0.729   2.703   5.413
 8788TIP3    H126249   0.754   2.758   5.490
 8788TIP3    H226250   0.787   2.742   5.344
 8789TIP3   OH226251   0.143   3.981   4.955
 8789TIP3    H126252   0.113   4.052   4.893
 8789TIP3    H226253   0.139   4.028   5.041
 8790TIP3   OH226254   0.244   2.699   5.202
 8790TIP3    H126255   0.244   2.788   5.243
 8790TIP3    H226256   0.340   2.678   5.211
 8791TIP3   OH226257   1.497   3.193   6.097
 8791TIP3    H126258   1.399   3.191   6.103
 8791TIP3    H226259   1.509   3.153   6.010
 8792TIP3   OH226260   1.155   3.380   5.484
 8792TIP3    H126261   1.095   3.327   5.539
 8792TIP3    H226262   1.240   3.354   5.524
 8793TIP3   OH226263  -0.126   3.617   4.952
 8793TIP3    H126264  -0.067   3.693   4.955
 8793TIP3    H226265  -0.084   3.567   4.878
 8794TIP3   OH226266  -0.176   2.899   5.081
 8794TIP3    H126267  -0.201   2.993   5.090
 8794TIP3    H226268  -0.251   2.862   5.032
 8795TIP3   OH226269   1.118   4.343   5.433
 8795TIP3    H126270   1.075   4.390   5.359
 8795TIP3    H226271   1.212   4.360   5.412
 8796TIP3   OH226272   0.200   2.606   5.959
 8796TIP3    H126273   0.163   2.575   5.874
 8796TIP3    H226274   0.182   2.529   6.018
 8797TIP3   OH226275  -0.246   3.792   5.370
 8797TIP3    H126276  -0.335   3.830   5.372
 8797TIP3    H226277  -0.208   3.846   5.298
 8798TIP3   OH226278   0.369   4.350   6.452
 8798TIP3    H126279   0.457   4.318   6.478
 8798TIP3    H226280   0.345   4.283   6.384
 8799TIP3   OH226281   0.354   3.914   4.584
 8799TIP3    H126282   0.298   3.841   4.620
 8799TIP3    H226283   0.428   3.862   4.545
 8800TIP3   OH226284   1.014   4.241   6.187
 8800TIP3    H126285   1.003   4.172   6.257
 8800TIP3    H226286   1.088   4.293   6.222
 8801TIP3   OH226287   0.788   3.951   4.496
 8801TIP3    H126288   0.837   3.889   4.553
 8801TIP3    H226289   0.842   3.952   4.414
 8802TIP3   OH226290   0.038   3.761   6.614
 8802TIP3    H126291   0.071   3.669   6.618
 8802TIP3    H226292  -0.058   3.743   6.603
 8803TIP3   OH226293   0.001   3.427   4.804
 8803TIP3    H126294   0.059   3.402   4.878
 8803TIP3    H226295   0.066   3.426   4.730
 8804TIP3   OH226296   0.682   3.871   6.326
 8804TIP3    H126297   0.589   3.882   6.299
 8804TIP3    H226298   0.680   3.787   6.376
 8805TIP3   OH226299   0.511   3.626   4.615
 8805TIP3    H126300   0.511   3.643   4.711
 8805TIP3    H226301   0.511   3.528   4.613
 8806TIP3   OH226302   1.121   3.869   5.991
 8806TIP3    H126303   1.194   3.918   5.948
 8806TIP3    H226304   1.047   3.931   5.980
 8807TIP3   OH226305   0.132   3.497   6.609
 8807TIP3    H126306   0.211   3.450   6.581
 8807TIP3    H226307   0.159   3.531   6.697
 8808TIP3   OH226308   0.213   3.328   5.029
 8808TIP3    H126309   0.172   3.284   5.105
 8808TIP3    H226310   0.243   3.252   4.976
 8809TIP3   OH226311   0.484   3.401   6.256
 8809TIP3    H126312   0.401   3.453   6.256
 8809TIP3    H226313   0.526   3.430   6.172
 8810TIP3   OH226314   0.313   3.118   4.864
 8810TIP3    H126315   0.311   3.092   4.771
 8810TIP3    H226316   0.409   3.134   4.873
 8811TIP3   OH226317   0.997   3.799   6.392
 8811TIP3    H126318   1.079   3.771   6.350
 8811TIP3    H226319   0.987   3.734   6.464
 8812TIP3   OH226320   1.126   3.455   4.535
 8812TIP3    H126321   1.108   3.410   4.450
 8812TIP3    H226322   1.095   3.546   4.511
 8813TIP3   OH226323   0.599   3.186   6.382
 8813TIP3    H126324   0.595   3.107   6.325
 8813TIP3    H226325   0.555   3.254   6.327
 8814TIP3   OH226326   0.600   2.970   6.183
 8814TIP3    H126327   0.623   3.011   6.098
 8814TIP3    H226328   0.505   2.949   6.170
 8815TIP3   OH226329   0.626   3.499   6.045
 8815TIP3    H126330   0.717   3.516   6.018
 8815TIP3    H226331   0.578   3.574   6.007
 8816TIP3   OH226332   1.208   3.471   6.442
 8816TIP3    H126333   1.259   3.390   6.458
 8816TIP3    H226334   1.276   3.532   6.410
 8817TIP3   OH226335   1.252   3.724   6.177
 8817TIP3    H126336   1.192   3.778   6.121
 8817TIP3    H226337   1.338   3.748   6.136
 8818TIP3   OH226338   0.471   3.298   6.611
 8818TIP3    H126339   0.406   3.226   6.627
 8818TIP3    H226340   0.508   3.272   6.525
 8819TIP3   OH226341   0.731   2.734   6.256
 8819TIP3    H126342   0.682   2.817   6.234
 8819TIP3    H226343   0.660   2.667   6.246
 8820TIP3   OH226344   0.861   3.237   6.472
 8820TIP3    H126345   0.848   3.237   6.568
 8820TIP3    H226346   0.770   3.214   6.444
 8821TIP3   OH226347   1.095   3.180   6.324
 8821TIP3    H126348   1.020   3.190   6.387
 8821TIP3    H226349   1.168   3.155   6.383
 8822TIP3   OH226350   1.328   3.130   6.477
 8822TIP3    H126351   1.339   3.034   6.496
 8822TIP3    H226352   1.321   3.169   6.566
 8823TIP3   OH226353   0.316   3.076   6.667
 8823TIP3    H126354   0.321   2.985   6.634
 8823TIP3    H226355   0.352   3.066   6.758
 8824TIP3   OH226356   0.826   2.743   6.514
 8824TIP3    H126357   0.894   2.673   6.508
 8824TIP3    H226358   0.786   2.738   6.426
 8825TIP3   OH226359   0.891   2.959   6.675
 8825TIP3    H126360   0.869   2.890   6.609
 8825TIP3    H226361   0.814   3.020   6.668
 8826TIP3   OH226362   0.113   4.182   4.771
 8826TIP3    H126363   0.209   4.183   4.751
 8826TIP3    H226364   0.081   4.237   4.698
 8827TIP3   OH226365  -0.394   3.590   4.927
 8827TIP3    H126366  -0.300   3.598   4.955
 8827TIP3    H226367  -0.403   3.493   4.917
 8828TIP3   OH226368   1.373   4.428   5.391
 8828TIP3    H126369   1.397   4.467   5.477
 8828TIP3    H226370   1.429   4.478   5.330
 8829TIP3   OH226371   1.400   4.454   5.674
 8829TIP3    H126372   1.355   4.367   5.667
 8829TIP3    H226373   1.473   4.429   5.733
 8830TIP3   OH226374   1.447   4.130   6.245
 8830TIP3    H126375   1.374   4.139   6.309
 8830TIP3    H226376   1.488   4.219   6.250
 8831TIP3   OH226377   1.261   3.644   4.865
 8831TIP3    H126378   1.327   3.709   4.833
 8831TIP3    H226379   1.308   3.606   4.943
 8832TIP3   OH226380   1.390   3.512   5.068
 8832TIP3    H126381   1.325   3.473   5.130
 8832TIP3    H226382   1.458   3.549   5.129
 8833TIP3   OH226383   1.446   3.903   5.501
 8833TIP3    H126384   1.498   3.838   5.450
 8833TIP3    H226385   1.441   3.978   5.438
 8834TIP3   OH226386   1.275   4.203   5.695
 8834TIP3    H126387   1.203   4.246   5.747
 8834TIP3    H226388   1.224   4.156   5.625
 8835TIP3   OH226389   1.328   3.419   4.717
 8835TIP3    H126390   1.257   3.420   4.648
 8835TIP3    H226391   1.300   3.496   4.769
 8836TIP3   OH226392   1.193   3.096   4.675
 8836TIP3    H126393   1.163   3.131   4.590
 8836TIP3    H226394   1.170   3.001   4.666
 8837TIP3   OH226395   1.201   3.367   5.214
 8837TIP3    H126396   1.227   3.273   5.208
 8837TIP3    H226397   1.190   3.379   5.311
 8838TIP3   OH226398  -0.161   3.495   5.930
 8838TIP3    H126399  -0.167   3.435   5.854
 8838TIP3    H226400  -0.080   3.464   5.974
 8839TIP3   OH226401   1.495   3.793   6.071
 8839TIP3    H126402   1.567   3.727   6.061
 8839TIP3    H226403   1.521   3.862   6.009
 8840TIP3   OH226404   1.680   3.597   6.085
 8840TIP3    H126405   1.605   3.549   6.125
 8840TIP3    H226406   1.752   3.533   6.100
 8841TIP3   OH226407   1.139   2.831   4.667
 8841TIP3    H126408   1.217   2.792   4.710
 8841TIP3    H226409   1.071   2.762   4.674
 8842TIP3   OH226410   1.202   3.082   5.112
 8842TIP3    H126411   1.246   2.994   5.128
 8842TIP3    H226412   1.260   3.115   5.041
 8843TIP3   OH226413   1.366   3.262   5.604
 8843TIP3    H126414   1.454   3.285   5.566
 8843TIP3    H226415   1.379   3.297   5.695
 8844TIP3   OH226416   1.430   3.402   5.837
 8844TIP3    H126417   1.353   3.436   5.887
 8844TIP3    H226418   1.463   3.483   5.793
 8845TIP3   OH226419   0.046   3.100   6.626
 8845TIP3    H126420   0.142   3.114   6.631
 8845TIP3    H226421   0.030   3.051   6.708
 8846TIP3   OH226422   1.883   2.993   6.393
 8846TIP3    H126423   1.942   2.927   6.350
 8846TIP3    H226424   1.854   3.047   6.316
 8847TIP3   OH226425   1.304   2.833   5.153
 8847TIP3    H126426   1.359   2.816   5.233
 8847TIP3    H226427   1.249   2.752   5.151
 8848TIP3   OH226428   0.005   2.807   5.943
 8848TIP3    H126429   0.074   2.742   5.965
 8848TIP3    H226430   0.050   2.890   5.966
 8849TIP3   OH226431  -0.133   3.111   6.064
 8849TIP3    H126432  -0.139   3.096   5.969
 8849TIP3    H226433  -0.200   3.179   6.080
 8850TIP3   OH226434   1.753   3.132   6.198
 8850TIP3    H126435   1.667   3.173   6.221
 8850TIP3    H226436   1.722   3.060   6.140
 8851TIP3   OH226437   1.390   2.766   4.781
 8851TIP3    H126438   1.429   2.695   4.725
 8851TIP3    H226439   1.457   2.837   4.773
 8852TIP3   OH226440  -0.211   2.581   5.517
 8852TIP3    H126441  -0.290   2.613   5.562
 8852TIP3    H226442  -0.200   2.650   5.448
 8853TIP3   OH226443   0.958   4.298   5.049
 8853TIP3    H126444   1.006   4.286   4.965
 8853TIP3    H226445   1.008   4.370   5.090
 8854TIP3   OH226446   0.011   2.679   6.370
 8854TIP3    H126447  -0.051   2.676   6.443
 8854TIP3    H226448  -0.041   2.724   6.302
 8855TIP3   OH226449   0.086   4.066   6.432
 8855TIP3    H126450   0.005   4.121   6.425
 8855TIP3    H226451   0.091   4.056   6.529
 8856TIP3   OH226452   0.246   4.127   5.981
 8856TIP3    H126453   0.179   4.189   5.948
 8856TIP3    H226454   0.324   4.160   5.932
 8857TIP3   OH226455   0.679   4.380   6.117
 8857TIP3    H126456   0.718   4.378   6.207
 8857TIP3    H226457   0.746   4.432   6.068
 8858TIP3   OH226458   0.859   4.536   5.977
 8858TIP3    H126459   0.929   4.481   5.938
 8858TIP3    H226460   0.910   4.593   6.038
 8859TIP3   OH226461   1.652   2.894   6.077
 8859TIP3    H126462   1.561   2.886   6.044
 8859TIP3    H226463   1.685   2.802   6.066
 8860TIP3   OH226464   0.145   4.372   5.866
 8860TIP3    H126465   0.058   4.380   5.909
 8860TIP3    H226466   0.126   4.408   5.777
 8861TIP3   OH226467   0.574   4.401   5.659
 8861TIP3    H126468   0.504   4.421   5.593
 8861TIP3    H226469   0.585   4.488   5.702
 8862TIP3   OH226470   0.842   4.341   5.710
 8862TIP3    H126471   0.747   4.357   5.691
 8862TIP3    H226472   0.883   4.417   5.666
 8863TIP3   OH226473   1.050   4.534   5.624
 8863TIP3    H126474   1.032   4.618   5.576
 8863TIP3    H226475   1.074   4.473   5.552
 8864TIP3   OH226476  -0.130   4.213   5.734
 8864TIP3    H126477  -0.108   4.175   5.822
 8864TIP3    H226478  -0.078   4.151   5.678
 8865TIP3   OH226479   0.023   4.041   5.591
 8865TIP3    H126480   0.044   3.962   5.645
 8865TIP3    H226481   0.109   4.087   5.591
 8866TIP3   OH226482   0.278   4.164   5.610
 8866TIP3    H126483   0.332   4.097   5.567
 8866TIP3    H226484   0.327   4.179   5.693
 8867TIP3   OH226485   0.841   2.797   5.673
 8867TIP3    H126486   0.810   2.735   5.742
 8867TIP3    H226487   0.927   2.757   5.647
 8868TIP3   OH226488   1.379   2.693   5.603
 8868TIP3    H126489   1.417   2.741   5.527
 8868TIP3    H226490   1.284   2.710   5.592
 8869TIP3   OH226491   1.473   2.791   5.367
 8869TIP3    H126492   1.545   2.737   5.328
 8869TIP3    H226493   1.510   2.881   5.350
 8870TIP3   OH226494   0.106   2.519   5.708
 8870TIP3    H126495   0.014   2.483   5.710
 8870TIP3    H226496   0.156   2.435   5.707
 8871TIP3   OH226497  -0.088   2.384   5.365
 8871TIP3    H126498  -0.081   2.443   5.289
 8871TIP3    H226499  -0.130   2.444   5.430
 8872TIP3   OH226500   0.548   2.551   5.591
 8872TIP3    H126501   0.610   2.600   5.535
 8872TIP3    H226502   0.568   2.586   5.679
 8873TIP3   OH226503   1.090   2.695   5.572
 8873TIP3    H126504   1.107   2.649   5.489
 8873TIP3    H226505   1.080   2.619   5.634
 8874TIP3   OH226506   1.126   2.619   5.141
 8874TIP3    H126507   1.032   2.629   5.120
 8874TIP3    H226508   1.122   2.534   5.191
 8875TIP3   OH226509   0.020   2.545   5.114
 8875TIP3    H126510   0.073   2.476   5.071
 8875TIP3    H226511   0.088   2.596   5.162
 8876TIP3   OH226512   0.519   2.723   5.221
 8876TIP3    H126513   0.579   2.681   5.284
 8876TIP3    H226514   0.523   2.816   5.252
 8877TIP3   OH226515   0.384   4.147   4.723
 8877TIP3    H126516   0.471   4.171   4.685
 8877TIP3    H226517   0.360   4.073   4.662
 8878TIP3   OH226518   1.100   4.267   4.815
 8878TIP3    H126519   1.092   4.169   4.802
 8878TIP3    H226520   1.055   4.300   4.735
 8879TIP3   OH226521   0.313   2.801   6.600
 8879TIP3    H126522   0.277   2.727   6.654
 8879TIP3    H226523   0.406   2.800   6.631
 8880TIP3   OH226524   0.562   2.794   6.723
 8880TIP3    H126525   0.648   2.772   6.683
 8880TIP3    H226526   0.550   2.720   6.786
 8881TIP3   OH226527  -0.297   3.994   4.831
 8881TIP3    H126528  -0.286   4.092   4.833
 8881TIP3    H226529  -0.215   3.962   4.789
 8882TIP3   OH226530   1.388   2.858   6.509
 8882TIP3    H126531   1.406   2.828   6.601
 8882TIP3    H226532   1.477   2.854   6.468
 8883TIP3   OH226533   1.328   4.411   6.001
 8883TIP3    H126534   1.249   4.378   5.953
 8883TIP3    H226535   1.306   4.506   6.006
 8884TIP3   OH226536   2.591   3.782   4.770
 8884TIP3    H126537   2.563   3.873   4.747
 8884TIP3    H226538   2.517   3.732   4.732
 8885TIP3   OH226539   2.587   3.787   5.154
 8885TIP3    H126540   2.622   3.750   5.236
 8885TIP3    H226541   2.551   3.708   5.110
 8886TIP3   OH226542   1.890   3.677   5.516
 8886TIP3    H126543   1.921   3.609   5.579
 8886TIP3    H226544   1.971   3.729   5.504
 8887TIP3   OH226545   2.835   4.084   4.829
 8887TIP3    H126546   2.827   4.018   4.898
 8887TIP3    H226547   2.863   4.164   4.879
 8888TIP3   OH226548   1.868   4.088   5.241
 8888TIP3    H126549   1.855   3.991   5.243
 8888TIP3    H226550   1.964   4.093   5.228
 8889TIP3   OH226551   1.567   3.288   5.025
 8889TIP3    H126552   1.520   3.373   5.037
 8889TIP3    H226553   1.498   3.237   4.979
 8890TIP3   OH226554   1.628   3.577   5.196
 8890TIP3    H126555   1.678   3.500   5.232
 8890TIP3    H226556   1.688   3.609   5.127
 8891TIP3   OH226557   2.476   4.549   4.842
 8891TIP3    H126558   2.525   4.474   4.802
 8891TIP3    H226559   2.479   4.529   4.937
 8892TIP3   OH226560   2.390   4.009   5.199
 8892TIP3    H126561   2.427   3.931   5.154
 8892TIP3    H226562   2.475   4.055   5.218
 8893TIP3   OH226563   3.403   3.328   5.194
 8893TIP3    H126564   3.434   3.411   5.236
 8893TIP3    H226565   3.429   3.344   5.102
 8894TIP3   OH226566   2.801   3.511   5.230
 8894TIP3    H126567   2.845   3.426   5.250
 8894TIP3    H226568   2.771   3.495   5.138
 8895TIP3   OH226569   2.140   3.170   5.195
 8895TIP3    H126570   2.122   3.242   5.132
 8895TIP3    H226571   2.094   3.096   5.151
 8896TIP3   OH226572   2.835   3.262   4.816
 8896TIP3    H126573   2.906   3.247   4.882
 8896TIP3    H226574   2.888   3.296   4.741
 8897TIP3   OH226575   1.775   3.371   5.302
 8897TIP3    H126576   1.858   3.351   5.349
 8897TIP3    H226577   1.788   3.316   5.222
 8898TIP3   OH226578   2.215   3.569   5.099
 8898TIP3    H126579   2.309   3.544   5.109
 8898TIP3    H226580   2.176   3.485   5.065
 8899TIP3   OH226581   3.478   3.535   5.367
 8899TIP3    H126582   3.395   3.583   5.346
 8899TIP3    H226583   3.498   3.569   5.455
 8900TIP3   OH226584   2.138   3.153   5.629
 8900TIP3    H126585   2.078   3.189   5.561
 8900TIP3    H226586   2.085   3.171   5.710
 8901TIP3   OH226587   2.480   4.001   4.640
 8901TIP3    H126588   2.444   3.986   4.551
 8901TIP3    H226589   2.438   4.087   4.663
 8902TIP3   OH226590   2.247   3.928   5.423
 8902TIP3    H126591   2.180   3.992   5.456
 8902TIP3    H226592   2.286   3.977   5.347
 8903TIP3   OH226593   3.042   3.266   4.990
 8903TIP3    H126594   3.042   3.211   5.069
 8903TIP3    H226595   3.099   3.341   5.016
 8904TIP3   OH226596   2.008   3.268   5.413
 8904TIP3    H126597   2.071   3.340   5.436
 8904TIP3    H226598   2.057   3.227   5.338
 8905TIP3   OH226599   2.066   4.116   5.518
 8905TIP3    H126600   2.035   4.200   5.480
 8905TIP3    H226601   1.989   4.097   5.576
 8906TIP3   OH226602   1.463   3.812   4.758
 8906TIP3    H126603   1.426   3.838   4.672
 8906TIP3    H226604   1.495   3.898   4.792
 8907TIP3   OH226605   2.892   4.310   4.980
 8907TIP3    H126606   2.809   4.320   5.031
 8907TIP3    H226607   2.909   4.403   4.956
 8908TIP3   OH226608   3.197   3.229   5.361
 8908TIP3    H126609   3.110   3.257   5.328
 8908TIP3    H226610   3.257   3.260   5.291
 8909TIP3   OH226611   2.492   2.871   5.341
 8909TIP3    H126612   2.481   2.776   5.359
 8909TIP3    H226613   2.415   2.907   5.389
 8910TIP3   OH226614   2.605   4.373   4.671
 8910TIP3    H126615   2.656   4.291   4.650
 8910TIP3    H226616   2.666   4.440   4.632
 8911TIP3   OH226617   2.748   4.159   4.579
 8911TIP3    H126618   2.720   4.077   4.536
 8911TIP3    H226619   2.785   4.125   4.663
 8912TIP3   OH226620   2.424   3.636   4.600
 8912TIP3    H126621   2.344   3.688   4.577
 8912TIP3    H226622   2.470   3.631   4.514
 8913TIP3   OH226623   2.382   3.419   4.316
 8913TIP3    H126624   2.451   3.471   4.362
 8913TIP3    H226625   2.439   3.355   4.267
 8914TIP3   OH226626   3.323   3.876   5.186
 8914TIP3    H126627   3.244   3.933   5.193
 8914TIP3    H226628   3.356   3.903   5.097
 8915TIP3   OH226629   2.770   3.718   4.571
 8915TIP3    H126630   2.717   3.742   4.650
 8915TIP3    H226631   2.854   3.692   4.614
 8916TIP3   OH226632   3.003   3.756   5.482
 8916TIP3    H126633   2.987   3.838   5.531
 8916TIP3    H226634   2.919   3.751   5.431
 8917TIP3   OH226635   2.003   3.715   4.989
 8917TIP3    H126636   1.960   3.658   4.922
 8917TIP3    H226637   2.079   3.661   5.017
 8918TIP3   OH226638   2.134   4.126   5.138
 8918TIP3    H126639   2.110   4.092   5.051
 8918TIP3    H226640   2.223   4.087   5.151
 8919TIP3   OH226641   2.137   3.686   5.343
 8919TIP3    H126642   2.170   3.660   5.254
 8919TIP3    H226643   2.183   3.771   5.359
 8920TIP3   OH226644   2.667   4.333   5.135
 8920TIP3    H126645   2.616   4.394   5.189
 8920TIP3    H226646   2.653   4.247   5.179
 8921TIP3   OH226647   2.252   4.243   5.672
 8921TIP3    H126648   2.220   4.211   5.758
 8921TIP3    H226649   2.198   4.188   5.610
 8922TIP3   OH226650   2.610   3.576   4.397
 8922TIP3    H126651   2.670   3.635   4.448
 8922TIP3    H226652   2.637   3.598   4.304
 8923TIP3   OH226653   2.033   3.801   5.767
 8923TIP3    H126654   2.035   3.887   5.814
 8923TIP3    H226655   1.938   3.779   5.776
 8924TIP3   OH226656   2.354   4.256   4.677
 8924TIP3    H126657   2.436   4.308   4.686
 8924TIP3    H226658   2.296   4.319   4.631
 8925TIP3   OH226659   3.124   2.815   4.442
 8925TIP3    H126660   3.045   2.837   4.496
 8925TIP3    H226661   3.139   2.899   4.394
 8926TIP3   OH226662   1.867   3.559   4.797
 8926TIP3    H126663   1.802   3.603   4.738
 8926TIP3    H226664   1.831   3.469   4.800
 8927TIP3   OH226665   2.926   4.183   3.994
 8927TIP3    H126666   2.935   4.280   3.979
 8927TIP3    H226667   3.019   4.153   3.981
 8928TIP3   OH226668   1.650   3.941   5.699
 8928TIP3    H126669   1.584   3.919   5.631
 8928TIP3    H226670   1.687   3.854   5.723
 8929TIP3   OH226671   1.504   4.132   5.336
 8929TIP3    H126672   1.600   4.133   5.325
 8929TIP3    H226673   1.488   4.215   5.384
 8930TIP3   OH226674   2.236   4.499   4.475
 8930TIP3    H126675   2.191   4.481   4.391
 8930TIP3    H226676   2.204   4.588   4.499
 8931TIP3   OH226677   1.673   4.349   4.858
 8931TIP3    H126678   1.719   4.339   4.944
 8931TIP3    H226679   1.616   4.270   4.858
 8932TIP3   OH226680   2.437   4.402   4.114
 8932TIP3    H126681   2.496   4.332   4.078
 8932TIP3    H226682   2.472   4.411   4.205
 8933TIP3   OH226683   2.488   4.450   4.384
 8933TIP3    H126684   2.400   4.459   4.427
 8933TIP3    H226685   2.540   4.412   4.456
 8934TIP3   OH226686   3.248   3.718   5.654
 8934TIP3    H126687   3.170   3.713   5.596
 8934TIP3    H226688   3.276   3.624   5.655
 8935TIP3   OH226689   1.855   4.123   5.688
 8935TIP3    H126690   1.902   4.108   5.773
 8935TIP3    H226691   1.780   4.059   5.695
 8936TIP3   OH226692   2.254   2.947   5.473
 8936TIP3    H126693   2.165   2.917   5.445
 8936TIP3    H226694   2.229   3.029   5.519
 8937TIP3   OH226695   2.789   3.064   5.667
 8937TIP3    H126696   2.858   3.034   5.729
 8937TIP3    H226697   2.706   3.042   5.713
 8938TIP3   OH226698   3.027   3.491   5.585
 8938TIP3    H126699   2.978   3.487   5.670
 8938TIP3    H226700   3.001   3.577   5.549
 8939TIP3   OH226701   2.688   3.622   4.142
 8939TIP3    H126702   2.653   3.597   4.054
 8939TIP3    H226703   2.771   3.667   4.116
 8940TIP3   OH226704   2.400   2.996   4.444
 8940TIP3    H126705   2.366   2.993   4.535
 8940TIP3    H226706   2.361   2.914   4.409
 8941TIP3   OH226707   2.186   3.464   5.491
 8941TIP3    H126708   2.135   3.484   5.572
 8941TIP3    H226709   2.169   3.544   5.438
 8942TIP3   OH226710   2.070   3.350   5.005
 8942TIP3    H126711   1.978   3.324   5.022
 8942TIP3    H226712   2.084   3.310   4.916
 8943TIP3   OH226713   2.561   3.435   4.733
 8943TIP3    H126714   2.509   3.507   4.689
 8943TIP3    H226715   2.616   3.403   4.659
 8944TIP3   OH226716   2.737   3.713   5.819
 8944TIP3    H126717   2.714   3.640   5.880
 8944TIP3    H226718   2.831   3.725   5.841
 8945TIP3   OH226719   2.717   3.464   4.971
 8945TIP3    H126720   2.657   3.491   4.898
 8945TIP3    H226721   2.753   3.383   4.929
 8946TIP3   OH226722   2.006   3.492   5.700
 8946TIP3    H126723   2.035   3.554   5.769
 8946TIP3    H226724   1.994   3.409   5.750
 8947TIP3   OH226725   2.056   2.970   4.409
 8947TIP3    H126726   2.046   2.968   4.506
 8947TIP3    H226727   1.977   3.022   4.383
 8948TIP3   OH226728   1.597   3.015   5.283
 8948TIP3    H126729   1.674   3.047   5.335
 8948TIP3    H226730   1.636   2.984   5.200
 8949TIP3   OH226731   1.569   2.995   4.801
 8949TIP3    H126732   1.613   3.031   4.722
 8949TIP3    H226733   1.508   3.069   4.820
 8950TIP3   OH226734   2.730   3.710   5.396
 8950TIP3    H126735   2.761   3.638   5.335
 8950TIP3    H226736   2.700   3.655   5.472
 8951TIP3   OH226737   2.399   3.176   5.067
 8951TIP3    H126738   2.319   3.170   5.121
 8951TIP3    H226739   2.470   3.166   5.133
 8952TIP3   OH226740   1.831   3.227   5.075
 8952TIP3    H126741   1.737   3.232   5.046
 8952TIP3    H226742   1.857   3.136   5.050
 8953TIP3   OH226743   2.100   3.225   4.763
 8953TIP3    H126744   2.194   3.238   4.742
 8953TIP3    H226745   2.054   3.246   4.679
 8954TIP3   OH226746   2.890   3.250   5.272
 8954TIP3    H126747   2.851   3.260   5.362
 8954TIP3    H226748   2.828   3.187   5.232
 8955TIP3   OH226749   1.944   3.259   4.540
 8955TIP3    H126750   1.874   3.212   4.491
 8955TIP3    H226751   1.996   3.296   4.466
 8956TIP3   OH226752   2.021   4.051   5.910
 8956TIP3    H126753   2.099   4.074   5.965
 8956TIP3    H226754   1.952   4.046   5.979
 8957TIP3   OH226755   2.481   3.501   5.164
 8957TIP3    H126756   2.552   3.461   5.111
 8957TIP3    H226757   2.490   3.454   5.249
 8958TIP3   OH226758   2.002   2.988   5.042
 8958TIP3    H126759   1.970   2.908   5.089
 8958TIP3    H226760   2.054   2.950   4.970
 8959TIP3   OH226761   2.457   3.396   5.453
 8959TIP3    H126762   2.367   3.432   5.467
 8959TIP3    H226763   2.514   3.457   5.504
 8960TIP3   OH226764   2.193   3.788   4.548
 8960TIP3    H126765   2.121   3.722   4.537
 8960TIP3    H226766   2.174   3.821   4.639
 8961TIP3   OH226767   3.088   4.024   5.192
 8961TIP3    H126768   3.120   4.082   5.119
 8961TIP3    H226769   3.008   3.984   5.152
 8962TIP3   OH226770   2.652   3.098   4.413
 8962TIP3    H126771   2.556   3.081   4.420
 8962TIP3    H226772   2.661   3.193   4.435
 8963TIP3   OH226773   2.613   4.112   5.549
 8963TIP3    H126774   2.631   4.072   5.636
 8963TIP3    H226775   2.567   4.193   5.572
 8964TIP3   OH226776   2.721   3.348   4.515
 8964TIP3    H126777   2.817   3.353   4.529
 8964TIP3    H226778   2.703   3.427   4.461
 8965TIP3   OH226779   1.887   3.810   5.224
 8965TIP3    H126780   1.923   3.782   5.137
 8965TIP3    H226781   1.929   3.747   5.284
 8966TIP3   OH226782   2.340   3.937   4.371
 8966TIP3    H126783   2.292   4.023   4.376
 8966TIP3    H226784   2.285   3.882   4.431
 8967TIP3   OH226785   1.768   3.730   5.837
 8967TIP3    H126786   1.787   3.716   5.932
 8967TIP3    H226787   1.699   3.663   5.821
 8968TIP3   OH226788   2.496   3.841   5.857
 8968TIP3    H126789   2.436   3.782   5.808
 8968TIP3    H226790   2.583   3.806   5.830
 8969TIP3   OH226791   3.162   3.439   4.350
 8969TIP3    H126792   3.100   3.393   4.288
 8969TIP3    H226793   3.159   3.528   4.309
 8970TIP3   OH226794   2.864   4.257   4.258
 8970TIP3    H126795   2.839   4.186   4.319
 8970TIP3    H226796   2.877   4.210   4.173
 8971TIP3   OH226797   2.855   3.885   5.100
 8971TIP3    H126798   2.761   3.856   5.105
 8971TIP3    H226799   2.894   3.808   5.053
 8972TIP3   OH226800   1.989   4.117   4.857
 8972TIP3    H126801   1.991   4.195   4.799
 8972TIP3    H226802   1.895   4.095   4.855
 8973TIP3   OH226803   1.553   3.417   4.554
 8973TIP3    H126804   1.598   3.502   4.574
 8973TIP3    H226805   1.475   3.423   4.614
 8974TIP3   OH226806   2.123   3.879   4.794
 8974TIP3    H126807   2.091   3.969   4.813
 8974TIP3    H226808   2.086   3.829   4.868
 8975TIP3   OH226809   1.908   4.351   4.703
 8975TIP3    H126810   1.821   4.361   4.747
 8975TIP3    H226811   1.941   4.444   4.704
 8976TIP3   OH226812   2.650   4.094   5.276
 8976TIP3    H126813   2.640   4.084   5.373
 8976TIP3    H226814   2.716   4.027   5.254
 8977TIP3   OH226815   2.620   3.985   4.160
 8977TIP3    H126816   2.673   3.960   4.239
 8977TIP3    H226817   2.532   3.957   4.188
 8978TIP3   OH226818   2.959   4.459   3.979
 8978TIP3    H126819   2.997   4.532   3.927
 8978TIP3    H226820   2.878   4.504   4.013
 8979TIP3   OH226821   1.978   3.236   5.845
 8979TIP3    H126822   1.882   3.238   5.858
 8979TIP3    H226823   2.007   3.177   5.916
 8980TIP3   OH226824   2.780   3.920   4.378
 8980TIP3    H126825   2.770   3.852   4.448
 8980TIP3    H226826   2.877   3.916   4.364
 8981TIP3   OH226827   1.701   4.320   5.476
 8981TIP3    H126828   1.747   4.243   5.514
 8981TIP3    H226829   1.719   4.388   5.542
 8982TIP3   OH226830   1.985   3.965   4.160
 8982TIP3    H126831   1.998   3.873   4.130
 8982TIP3    H226832   1.964   3.952   4.254
 8983TIP3   OH226833   1.929   3.969   4.433
 8983TIP3    H126834   2.006   3.943   4.486
 8983TIP3    H226835   1.934   4.067   4.439
 8984TIP3   OH226836   1.665   3.663   4.635
 8984TIP3    H126837   1.599   3.709   4.691
 8984TIP3    H226838   1.680   3.731   4.567
 8985TIP3   OH226839   2.811   3.304   5.532
 8985TIP3    H126840   2.897   3.337   5.564
 8985TIP3    H226841   2.800   3.221   5.583
 8986TIP3   OH226842   2.695   3.051   4.693
 8986TIP3    H126843   2.682   3.073   4.599
 8986TIP3    H226844   2.735   3.133   4.728
 8987TIP3   OH226845   2.196   4.166   4.381
 8987TIP3    H126846   2.109   4.194   4.416
 8987TIP3    H226847   2.213   4.237   4.317
 8988TIP3   OH226848   2.383   3.232   4.794
 8988TIP3    H126849   2.448   3.302   4.776
 8988TIP3    H226850   2.390   3.224   4.892
 8989TIP3   OH226851   2.654   3.548   5.601
 8989TIP3    H126852   2.679   3.597   5.682
 8989TIP3    H226853   2.707   3.467   5.608
 8990TIP3   OH226854   2.528   2.956   4.895
 8990TIP3    H126855   2.525   3.032   4.956
 8990TIP3    H226856   2.589   2.990   4.826
 8991TIP3   OH226857   1.940   4.242   4.448
 8991TIP3    H126858   1.911   4.312   4.385
 8991TIP3    H226859   1.924   4.287   4.534
 8992TIP3   OH226860   2.039   2.956   4.686
 8992TIP3    H126861   2.038   3.047   4.722
 8992TIP3    H226862   2.135   2.937   4.693
 8993TIP3   OH226863   3.295   3.451   5.586
 8993TIP3    H126864   3.197   3.447   5.590
 8993TIP3    H226865   3.310   3.410   5.499
 8994TIP3   OH226866   2.944   3.645   4.973
 8994TIP3    H126867   2.870   3.583   4.981
 8994TIP3    H226868   3.017   3.598   5.018
 8995TIP3   OH226869   1.658   3.871   4.440
 8995TIP3    H126870   1.726   3.940   4.448
 8995TIP3    H226871   1.702   3.815   4.373
 8996TIP3   OH226872   1.599   3.146   4.578
 8996TIP3    H126873   1.600   3.244   4.572
 8996TIP3    H226874   1.527   3.123   4.518
 8997TIP3   OH226875   2.918   4.594   4.921
 8997TIP3    H126876   2.876   4.642   4.846
 8997TIP3    H226877   3.012   4.613   4.905
 8998TIP3   OH226878   1.988   2.869   5.448
 8998TIP3    H126879   1.959   2.835   5.360
 8998TIP3    H226880   1.978   2.789   5.504
 8999TIP3   OH226881   1.528   4.085   4.827
 8999TIP3    H126882   1.457   4.117   4.885
 8999TIP3    H226883   1.501   4.126   4.741
 9000TIP3   OH226884   1.686   4.627   5.899
 9000TIP3    H126885   1.771   4.623   5.947
 9000TIP3    H226886   1.662   4.533   5.896
 9001TIP3   OH226887   2.171   4.589   5.950
 9001TIP3    H126888   2.260   4.603   5.987
 9001TIP3    H226889   2.156   4.496   5.970
 9002TIP3   OH226890   2.149   4.168   4.072
 9002TIP3    H126891   2.093   4.096   4.109
 9002TIP3    H226892   2.224   4.117   4.037
 9003TIP3   OH226893   2.584   4.208   3.983
 9003TIP3    H126894   2.628   4.144   4.042
 9003TIP3    H226895   2.641   4.207   3.904
 9004TIP3   OH226896   1.818   4.035   6.097
 9004TIP3    H126897   1.832   3.939   6.106
 9004TIP3    H226898   1.729   4.037   6.055
 9005TIP3   OH226899   1.793   3.685   4.294
 9005TIP3    H126900   1.850   3.652   4.365
 9005TIP3    H226901   1.858   3.689   4.221
 9006TIP3   OH226902   2.413   4.104   5.868
 9006TIP3    H126903   2.400   4.116   5.773
 9006TIP3    H226904   2.455   4.015   5.872
 9007TIP3   OH226905   2.304   3.884   4.101
 9007TIP3    H126906   2.307   3.896   4.198
 9007TIP3    H226907   2.305   3.786   4.095
 9008TIP3   OH226908   2.931   4.120   5.479
 9008TIP3    H126909   2.963   4.135   5.389
 9008TIP3    H226910   2.843   4.159   5.479
 9009TIP3   OH226911   1.937   3.771   6.080
 9009TIP3    H126912   2.010   3.711   6.061
 9009TIP3    H226913   1.962   3.802   6.170
 9010TIP3   OH226914   2.002   3.588   4.515
 9010TIP3    H126915   1.976   3.543   4.596
 9010TIP3    H226916   2.039   3.515   4.461
 9011TIP3   OH226917   2.269   3.653   5.743
 9011TIP3    H126918   2.192   3.713   5.744
 9011TIP3    H226919   2.320   3.688   5.666
 9012TIP3   OH226920   2.103   3.384   4.355
 9012TIP3    H126921   2.076   3.387   4.261
 9012TIP3    H226922   2.200   3.387   4.347
 9013TIP3   OH226923   2.787   4.055   5.874
 9013TIP3    H126924   2.870   4.033   5.831
 9013TIP3    H226925   2.783   3.991   5.947
 9014TIP3   OH226926   2.923   3.713   4.020
 9014TIP3    H126927   2.903   3.667   3.936
 9014TIP3    H226928   2.890   3.803   3.996
 9015TIP3   OH226929   2.393   3.441   5.869
 9015TIP3    H126930   2.394   3.361   5.813
 9015TIP3    H226931   2.349   3.507   5.811
 9016TIP3   OH226932   2.396   3.229   5.678
 9016TIP3    H126933   2.425   3.268   5.593
 9016TIP3    H226934   2.303   3.205   5.658
 9017TIP3   OH226935   2.424   3.766   5.554
 9017TIP3    H126936   2.505   3.765   5.502
 9017TIP3    H226937   2.367   3.829   5.504
 9018TIP3   OH226938   3.006   3.731   5.931
 9018TIP3    H126939   3.049   3.645   5.940
 9018TIP3    H226940   3.080   3.785   5.898
 9019TIP3   OH226941   3.055   3.985   5.676
 9019TIP3    H126942   3.007   4.044   5.613
 9019TIP3    H226943   3.131   3.958   5.622
 9020TIP3   OH226944   2.271   3.553   6.100
 9020TIP3    H126945   2.203   3.484   6.115
 9020TIP3    H226946   2.306   3.526   6.012
 9021TIP3   OH226947   2.529   2.992   5.745
 9021TIP3    H126948   2.479   3.074   5.722
 9021TIP3    H226949   2.460   2.923   5.732
 9022TIP3   OH226950   2.653   3.497   5.960
 9022TIP3    H126951   2.642   3.482   6.056
 9022TIP3    H226952   2.564   3.471   5.929
 9023TIP3   OH226953   2.895   3.449   5.816
 9023TIP3    H126954   2.819   3.446   5.878
 9023TIP3    H226955   2.968   3.416   5.872
 9024TIP3   OH226956   3.121   3.386   5.965
 9024TIP3    H126957   3.135   3.290   5.982
 9024TIP3    H226958   3.119   3.424   6.056
 9025TIP3   OH226959   2.111   3.333   6.153
 9025TIP3    H126960   2.116   3.241   6.119
 9025TIP3    H226961   2.147   3.320   6.243
 9026TIP3   OH226962   2.622   3.001   6.003
 9026TIP3    H126963   2.689   2.930   5.996
 9026TIP3    H226964   2.583   2.996   5.913
 9027TIP3   OH226965   2.688   3.216   6.161
 9027TIP3    H126966   2.667   3.144   6.097
 9027TIP3    H226967   2.610   3.274   6.153
 9028TIP3   OH226968   1.910   4.444   4.261
 9028TIP3    H126969   2.005   4.440   4.241
 9028TIP3    H226970   1.880   4.494   4.182
 9029TIP3   OH226971   1.390   3.824   4.479
 9029TIP3    H126972   1.484   3.847   4.462
 9029TIP3    H226973   1.383   3.737   4.436
 9030TIP3   OH226974   1.304   4.438   4.890
 9030TIP3    H126975   1.237   4.377   4.853
 9030TIP3    H226976   1.348   4.380   4.955
 9031TIP3   OH226977   1.440   4.289   5.076
 9031TIP3    H126978   1.426   4.216   5.139
 9031TIP3    H226979   1.490   4.351   5.131
 9032TIP3   OH226980   3.176   4.689   4.884
 9032TIP3    H126981   3.189   4.752   4.956
 9032TIP3    H226982   3.207   4.741   4.809
 9033TIP3   OH226983   3.058   3.900   4.352
 9033TIP3    H126984   3.126   3.964   4.322
 9033TIP3    H226985   3.102   3.861   4.431
 9034TIP3   OH226986   3.186   3.768   4.556
 9034TIP3    H126987   3.121   3.726   4.615
 9034TIP3    H226988   3.252   3.805   4.618
 9035TIP3   OH226989   3.233   4.151   4.989
 9035TIP3    H126990   3.290   4.088   4.941
 9035TIP3    H226991   3.218   4.221   4.924
 9036TIP3   OH226992   3.124   3.676   4.202
 9036TIP3    H126993   3.053   3.678   4.135
 9036TIP3    H226994   3.096   3.752   4.257
 9037TIP3   OH226995   2.994   3.349   4.157
 9037TIP3    H126996   2.953   3.386   4.078
 9037TIP3    H226997   2.970   3.254   4.148
 9038TIP3   OH226998   2.999   3.625   4.702
 9038TIP3    H126999   3.009   3.528   4.695
 9038TIP3    H227000   2.986   3.638   4.798
 9039TIP3   OH227001   1.626   3.696   5.449
 9039TIP3    H127002   1.625   3.666   5.356
 9039TIP3    H227003   1.723   3.699   5.465
 9040TIP3   OH227004   3.463   3.873   5.594
 9040TIP3    H127005   3.386   3.816   5.615
 9040TIP3    H227006   3.536   3.809   5.599
 9041TIP3   OH227007   2.939   3.083   4.141
 9041TIP3    H127008   3.015   3.052   4.194
 9041TIP3    H227009   2.867   3.023   4.166
 9042TIP3   OH227010   2.997   3.341   4.596
 9042TIP3    H127011   3.037   3.252   4.611
 9042TIP3    H227012   3.055   3.373   4.525
 9043TIP3   OH227013   3.158   3.515   5.091
 9043TIP3    H127014   3.244   3.540   5.050
 9043TIP3    H227015   3.174   3.550   5.181
 9044TIP3   OH227016   3.228   3.658   5.324
 9044TIP3    H127017   3.149   3.695   5.367
 9044TIP3    H227018   3.262   3.737   5.275
 9045TIP3   OH227019   1.844   3.383   6.121
 9045TIP3    H127020   1.942   3.377   6.125
 9045TIP3    H227021   1.820   3.298   6.163
 9046TIP3   OH227022   3.678   3.249   5.879
 9046TIP3    H127023   3.738   3.184   5.837
 9046TIP3    H227024   3.650   3.304   5.803
 9047TIP3   OH227025   3.104   3.091   4.635
 9047TIP3    H127026   3.154   3.074   4.717
 9047TIP3    H227027   3.045   3.013   4.634
 9048TIP3   OH227028   1.804   3.077   5.458
 9048TIP3    H127029   1.866   3.002   5.465
 9048TIP3    H227030   1.867   3.151   5.448
 9049TIP3   OH227031   1.609   3.351   5.525
 9049TIP3    H127032   1.659   3.345   5.441
 9049TIP3    H227033   1.639   3.436   5.559
 9050TIP3   OH227034   3.549   3.389   5.685
 9050TIP3    H127035   3.461   3.428   5.699
 9050TIP3    H227036   3.523   3.315   5.626
 9051TIP3   OH227037   3.184   3.026   4.266
 9051TIP3    H127038   3.231   2.953   4.221
 9051TIP3    H227039   3.253   3.096   4.265
 9052TIP3   OH227040   1.592   2.858   5.031
 9052TIP3    H127041   1.497   2.851   5.051
 9052TIP3    H227042   1.592   2.914   4.951
 9053TIP3   OH227043   2.749   4.557   4.534
 9053TIP3    H127044   2.802   4.544   4.452
 9053TIP3    H227045   2.802   4.622   4.582
 9054TIP3   OH227046   1.812   2.936   5.843
 9054TIP3    H127047   1.761   2.929   5.925
 9054TIP3    H227048   1.745   2.971   5.782
 9055TIP3   OH227049   1.854   4.367   5.937
 9055TIP3    H127050   1.768   4.337   5.904
 9055TIP3    H227051   1.852   4.336   6.029
 9056TIP3   OH227052   2.036   4.390   5.450
 9056TIP3    H127053   1.976   4.461   5.418
 9056TIP3    H227054   2.090   4.376   5.372
 9057TIP3   OH227055   3.448   3.151   5.564
 9057TIP3    H127056   3.357   3.142   5.529
 9057TIP3    H227057   3.481   3.059   5.552
 9058TIP3   OH227058   1.709   4.651   5.494
 9058TIP3    H127059   1.620   4.681   5.464
 9058TIP3    H227060   1.712   4.694   5.580
 9059TIP3   OH227061   1.942   4.625   5.347
 9059TIP3    H127062   1.856   4.640   5.393
 9059TIP3    H227063   1.923   4.662   5.259
 9060TIP3   OH227064   2.375   4.660   5.122
 9060TIP3    H127065   2.302   4.684   5.063
 9060TIP3    H227066   2.365   4.722   5.194
 9061TIP3   OH227067   2.844   4.804   5.104
 9061TIP3    H127068   2.834   4.885   5.052
 9061TIP3    H227069   2.866   4.736   5.038
 9062TIP3   OH227070   1.617   4.444   5.236
 9062TIP3    H127071   1.644   4.417   5.326
 9062TIP3    H227072   1.687   4.400   5.183
 9063TIP3   OH227073   1.807   4.313   5.093
 9063TIP3    H127074   1.826   4.230   5.142
 9063TIP3    H227075   1.897   4.350   5.083
 9064TIP3   OH227076   2.069   4.408   5.087
 9064TIP3    H127077   2.107   4.320   5.073
 9064TIP3    H227078   2.133   4.447   5.148
 9065TIP3   OH227079   2.650   3.065   5.180
 9065TIP3    H127080   2.610   2.994   5.232
 9065TIP3    H227081   2.725   3.020   5.137
 9066TIP3   OH227082   3.174   2.951   5.088
 9066TIP3    H127083   3.211   2.999   5.011
 9066TIP3    H227084   3.078   2.966   5.078
 9067TIP3   OH227085   3.268   3.049   4.852
 9067TIP3    H127086   3.341   2.994   4.814
 9067TIP3    H227087   3.305   3.139   4.836
 9068TIP3   OH227088   1.901   2.775   5.200
 9068TIP3    H127089   1.809   2.742   5.200
 9068TIP3    H227090   1.950   2.690   5.196
 9069TIP3   OH227091   1.691   2.645   4.847
 9069TIP3    H127092   1.721   2.700   4.773
 9069TIP3    H227093   1.664   2.712   4.912
 9070TIP3   OH227094   2.343   2.810   5.080
 9070TIP3    H127095   2.402   2.855   5.017
 9070TIP3    H227096   2.376   2.844   5.165
 9071TIP3   OH227097   2.890   2.956   5.062
 9071TIP3    H127098   2.892   2.914   4.975
 9071TIP3    H227099   2.882   2.877   5.121
 9072TIP3   OH227100   2.923   2.876   4.626
 9072TIP3    H127101   2.836   2.918   4.638
 9072TIP3    H227102   2.909   2.791   4.673
 9073TIP3   OH227103   1.405   4.218   4.627
 9073TIP3    H127104   1.320   4.185   4.593
 9073TIP3    H227105   1.396   4.312   4.604
 9074TIP3   OH227106   1.806   2.802   4.612
 9074TIP3    H127107   1.854   2.740   4.553
 9074TIP3    H227108   1.880   2.857   4.646
 9075TIP3   OH227109   2.317   2.981   4.709
 9075TIP3    H127110   2.377   2.933   4.768
 9075TIP3    H227111   2.339   3.073   4.734
 9076TIP3   OH227112   2.178   4.404   4.209
 9076TIP3    H127113   2.266   4.426   4.172
 9076TIP3    H227114   2.156   4.329   4.149
 9077TIP3   OH227115   2.897   4.524   4.302
 9077TIP3    H127116   2.889   4.426   4.290
 9077TIP3    H227117   2.851   4.555   4.221
 9078TIP3   OH227118   2.109   3.057   6.090
 9078TIP3    H127119   2.075   2.986   6.147
 9078TIP3    H227120   2.204   3.057   6.117
 9079TIP3   OH227121   2.359   3.054   6.209
 9079TIP3    H127122   2.444   3.029   6.168
 9079TIP3    H227123   2.347   2.982   6.275
 9080TIP3   OH227124   1.482   4.240   4.264
 9080TIP3    H127125   1.484   4.267   4.356
 9080TIP3    H227126   1.570   4.198   4.251
 9081TIP3   OH227127   3.185   3.116   5.996
 9081TIP3    H127128   3.204   3.084   6.087
 9081TIP3    H227129   3.273   3.111   5.954
 9082TIP3   OH227130   4.389   4.039   4.255
 9082TIP3    H127131   4.362   4.131   4.235
 9082TIP3    H227132   4.312   3.990   4.220
 9083TIP3   OH227133   4.384   4.040   4.638
 9083TIP3    H127134   4.419   4.013   4.725
 9083TIP3    H227135   4.345   3.957   4.606
 9084TIP3   OH227136   3.688   3.932   4.998
 9084TIP3    H127137   3.718   3.865   5.062
 9084TIP3    H227138   3.760   3.996   5.003
 9085TIP3   OH227139   4.631   4.340   4.315
 9085TIP3    H127140   4.623   4.275   4.386
 9085TIP3    H227141   4.658   4.420   4.366
 9086TIP3   OH227142   3.665   4.347   4.726
 9086TIP3    H127143   3.652   4.250   4.728
 9086TIP3    H227144   3.761   4.352   4.715
 9087TIP3   OH227145   3.365   3.548   4.510
 9087TIP3    H127146   3.316   3.630   4.525
 9087TIP3    H227147   3.296   3.493   4.470
 9088TIP3   OH227148   3.425   3.834   4.684
 9088TIP3    H127149   3.473   3.757   4.719
 9088TIP3    H227150   3.484   3.863   4.613
 9089TIP3   OH227151   4.274   4.808   4.329
 9089TIP3    H127152   4.323   4.731   4.294
 9089TIP3    H227153   4.268   4.790   4.424
 9090TIP3   OH227154   4.189   4.261   4.669
 9090TIP3    H127155   4.233   4.184   4.631
 9090TIP3    H227156   4.267   4.309   4.702
 9091TIP3   OH227157   5.200   3.585   4.683
 9091TIP3    H127158   5.228   3.667   4.729
 9091TIP3    H227159   5.221   3.608   4.590
 9092TIP3   OH227160   4.598   3.768   4.717
 9092TIP3    H127161   4.642   3.683   4.737
 9092TIP3    H227162   4.567   3.751   4.626
 9093TIP3   OH227163   3.938   3.426   4.681
 9093TIP3    H127164   3.917   3.498   4.618
 9093TIP3    H227165   3.891   3.351   4.637
 9094TIP3   OH227166   4.633   3.518   4.304
 9094TIP3    H127167   4.705   3.503   4.369
 9094TIP3    H227168   4.684   3.553   4.229
 9095TIP3   OH227169   3.570   3.627   4.789
 9095TIP3    H127170   3.654   3.608   4.836
 9095TIP3    H227171   3.583   3.572   4.709
 9096TIP3   OH227172   4.010   3.824   4.586
 9096TIP3    H127173   4.104   3.800   4.596
 9096TIP3    H227174   3.971   3.741   4.552
 9097TIP3   OH227175   5.271   3.790   4.857
 9097TIP3    H127176   5.190   3.842   4.837
 9097TIP3    H227177   5.302   3.834   4.938
 9098TIP3   OH227178   3.934   3.410   5.116
 9098TIP3    H127179   3.874   3.446   5.048
 9098TIP3    H227180   3.881   3.429   5.197
 9099TIP3   OH227181   4.280   4.261   4.123
 9099TIP3    H127182   4.237   4.242   4.039
 9099TIP3    H227183   4.236   4.344   4.149
 9100TIP3   OH227184   4.842   3.520   4.478
 9100TIP3    H127185   4.827   3.477   4.563
 9100TIP3    H227186   4.894   3.598   4.504
 9101TIP3   OH227187   3.805   3.524   4.900
 9101TIP3    H127188   3.867   3.597   4.922
 9101TIP3    H227189   3.854   3.483   4.825
 9102TIP3   OH227190   3.262   4.069   4.245
 9102TIP3    H127191   3.221   4.096   4.160
 9102TIP3    H227192   3.293   4.155   4.280
 9103TIP3   OH227193   4.685   4.567   4.464
 9103TIP3    H127194   4.607   4.576   4.523
 9103TIP3    H227195   4.700   4.660   4.440
 9104TIP3   OH227196   4.993   3.479   4.845
 9104TIP3    H127197   4.908   3.515   4.818
 9104TIP3    H227198   5.054   3.516   4.777
 9105TIP3   OH227199   4.290   3.127   4.831
 9105TIP3    H127200   4.274   3.032   4.848
 9105TIP3    H227201   4.212   3.166   4.876
 9106TIP3   OH227202   4.402   4.630   4.157
 9106TIP3    H127203   4.454   4.548   4.138
 9106TIP3    H227204   4.463   4.696   4.118
 9107TIP3   OH227205   4.548   4.416   4.065
 9107TIP3    H127206   4.507   4.336   4.030
 9107TIP3    H227207   4.584   4.383   4.150
 9108TIP3   OH227208   4.219   3.891   4.086
 9108TIP3    H127209   4.139   3.943   4.064
 9108TIP3    H227210   4.266   3.888   4.000
 9109TIP3   OH227211   4.178   3.677   3.801
 9109TIP3    H127212   4.245   3.727   3.850
 9109TIP3    H227213   4.235   3.613   3.754
 9110TIP3   OH227214   5.119   4.125   4.668
 9110TIP3    H127215   5.040   4.182   4.680
 9110TIP3    H227216   5.153   4.160   4.583
 9111TIP3   OH227217   4.567   3.974   4.057
 9111TIP3    H127218   4.513   3.999   4.136
 9111TIP3    H227219   4.651   3.949   4.101
 9112TIP3   OH227220   4.803   4.010   4.972
 9112TIP3    H127221   4.808   4.094   5.021
 9112TIP3    H227222   4.719   4.023   4.924
 9113TIP3   OH227223   3.799   3.971   4.476
 9113TIP3    H127224   3.757   3.914   4.408
 9113TIP3    H227225   3.875   3.917   4.504
 9114TIP3   OH227226   3.932   4.385   4.625
 9114TIP3    H127227   3.914   4.346   4.539
 9114TIP3    H227228   4.019   4.345   4.647
 9115TIP3   OH227229   3.944   3.949   4.825
 9115TIP3    H127230   3.968   3.913   4.737
 9115TIP3    H227231   3.995   4.031   4.828
 9116TIP3   OH227232   4.467   4.592   4.631
 9116TIP3    H127233   4.416   4.648   4.690
 9116TIP3    H227234   4.453   4.503   4.669
 9117TIP3   OH227235   4.407   3.832   3.884
 9117TIP3    H127236   4.466   3.891   3.935
 9117TIP3    H227237   4.434   3.855   3.791
 9118TIP3   OH227238   3.828   4.053   5.250
 9118TIP3    H127239   3.836   4.140   5.296
 9118TIP3    H227240   3.732   4.037   5.262
 9119TIP3   OH227241   4.151   4.511   4.159
 9119TIP3    H127242   4.233   4.563   4.173
 9119TIP3    H227243   4.091   4.576   4.120
 9120TIP3   OH227244   4.923   3.072   3.932
 9120TIP3    H127245   4.841   3.094   3.982
 9120TIP3    H227246   4.937   3.155   3.882
 9121TIP3   OH227247   3.665   3.815   4.280
 9121TIP3    H127248   3.598   3.858   4.223
 9121TIP3    H227249   3.628   3.727   4.290
 9122TIP3   OH227250   4.722   4.439   3.480
 9122TIP3    H127251   4.731   4.536   3.466
 9122TIP3    H227252   4.815   4.410   3.467
 9123TIP3   OH227253   3.427   4.197   5.202
 9123TIP3    H127254   3.375   4.172   5.125
 9123TIP3    H227255   3.484   4.120   5.218
 9124TIP3   OH227256   3.300   4.397   4.808
 9124TIP3    H127257   3.392   4.376   4.827
 9124TIP3    H227258   3.275   4.459   4.878
 9125TIP3   OH227259   4.032   4.757   3.961
 9125TIP3    H127260   3.986   4.739   3.877
 9125TIP3    H227261   3.999   4.845   3.985
 9126TIP3   OH227262   3.469   4.606   4.346
 9126TIP3    H127263   3.517   4.596   4.431
 9126TIP3    H227264   3.416   4.524   4.345
 9127TIP3   OH227265   4.233   4.659   3.601
 9127TIP3    H127266   4.292   4.589   3.565
 9127TIP3    H227267   4.267   4.668   3.692
 9128TIP3   OH227268   4.284   4.707   3.871
 9128TIP3    H127269   4.196   4.716   3.913
 9128TIP3    H227270   4.335   4.667   3.944
 9129TIP3   OH227271   5.051   3.966   5.159
 9129TIP3    H127272   4.978   3.986   5.099
 9129TIP3    H227273   5.067   3.871   5.142
 9130TIP3   OH227274   4.051   3.204   4.960
 9130TIP3    H127275   3.963   3.172   4.931
 9130TIP3    H227276   4.025   3.286   5.006
 9131TIP3   OH227277   4.585   3.319   5.153
 9131TIP3    H127278   4.654   3.293   5.218
 9131TIP3    H227279   4.502   3.300   5.200
 9132TIP3   OH227280   4.819   3.745   5.067
 9132TIP3    H127281   4.774   3.745   5.155
 9132TIP3    H227282   4.803   3.836   5.035
 9133TIP3   OH227283   4.484   3.878   3.628
 9133TIP3    H127284   4.450   3.853   3.540
 9133TIP3    H227285   4.566   3.925   3.604
 9134TIP3   OH227286   4.198   3.253   3.930
 9134TIP3    H127287   4.163   3.250   4.021
 9134TIP3    H227288   4.157   3.171   3.895
 9135TIP3   OH227289   3.982   3.723   4.976
 9135TIP3    H127290   3.930   3.742   5.057
 9135TIP3    H227291   3.968   3.806   4.925
 9136TIP3   OH227292   3.866   3.607   4.492
 9136TIP3    H127293   3.774   3.579   4.509
 9136TIP3    H227294   3.880   3.566   4.403
 9137TIP3   OH227295   4.358   3.692   4.220
 9137TIP3    H127296   4.305   3.764   4.177
 9137TIP3    H227297   4.412   3.661   4.145
 9138TIP3   OH227298   4.532   3.967   5.303
 9138TIP3    H127299   4.513   3.895   5.367
 9138TIP3    H227300   4.625   3.986   5.325
 9139TIP3   OH227301   4.513   3.719   4.459
 9139TIP3    H127302   4.454   3.750   4.387
 9139TIP3    H227303   4.547   3.638   4.415
 9140TIP3   OH227304   3.804   3.749   5.186
 9140TIP3    H127305   3.821   3.816   5.254
 9140TIP3    H227306   3.793   3.668   5.239
 9141TIP3   OH227307   3.850   3.224   3.895
 9141TIP3    H127308   3.843   3.223   3.993
 9141TIP3    H227309   3.773   3.278   3.872
 9142TIP3   OH227310   3.394   3.272   4.768
 9142TIP3    H127311   3.472   3.302   4.820
 9142TIP3    H227312   3.433   3.237   4.687
 9143TIP3   OH227313   3.365   3.251   4.286
 9143TIP3    H127314   3.411   3.288   4.208
 9143TIP3    H227315   3.305   3.325   4.306
 9144TIP3   OH227316   4.514   3.966   4.878
 9144TIP3    H127317   4.553   3.896   4.821
 9144TIP3    H227318   4.494   3.913   4.958
 9145TIP3   OH227319   4.196   3.429   4.553
 9145TIP3    H127320   4.114   3.425   4.605
 9145TIP3    H227321   4.264   3.426   4.623
 9146TIP3   OH227322   3.628   3.484   4.561
 9146TIP3    H127323   3.534   3.490   4.533
 9146TIP3    H227324   3.652   3.392   4.538
 9147TIP3   OH227325   3.897   3.482   4.250
 9147TIP3    H127326   3.991   3.493   4.227
 9147TIP3    H227327   3.850   3.503   4.166
 9148TIP3   OH227328   4.684   3.504   4.754
 9148TIP3    H127329   4.651   3.517   4.846
 9148TIP3    H227330   4.616   3.443   4.720
 9149TIP3   OH227331   3.740   3.516   4.028
 9149TIP3    H127332   3.668   3.470   3.981
 9149TIP3    H227333   3.791   3.551   3.953
 9150TIP3   OH227334   4.861   5.270   4.975
 9150TIP3    H127335   4.856   5.199   4.909
 9150TIP3    H227336   4.921   5.234   5.040
 9151TIP3   OH227337   3.835   4.286   5.399
 9151TIP3    H127338   3.906   4.324   5.455
 9151TIP3    H227339   3.756   4.319   5.445
 9152TIP3   OH227340   4.277   3.757   4.649
 9152TIP3    H127341   4.350   3.718   4.598
 9152TIP3    H227342   4.286   3.713   4.735
 9153TIP3   OH227343   3.800   3.243   4.529
 9153TIP3    H127344   3.764   3.166   4.577
 9153TIP3    H227345   3.851   3.201   4.459
 9154TIP3   OH227346   4.252   3.652   4.941
 9154TIP3    H127347   4.163   3.689   4.954
 9154TIP3    H227348   4.310   3.713   4.991
 9155TIP3   OH227349   3.989   4.044   4.034
 9155TIP3    H127350   3.917   3.978   4.023
 9155TIP3    H227351   3.971   4.078   4.125
 9156TIP3   OH227352   4.887   4.274   4.671
 9156TIP3    H127353   4.916   4.334   4.599
 9156TIP3    H227354   4.803   4.239   4.637
 9157TIP3   OH227355   4.448   3.355   3.898
 9157TIP3    H127356   4.351   3.337   3.907
 9157TIP3    H227357   4.456   3.450   3.922
 9158TIP3   OH227358   4.420   4.353   5.046
 9158TIP3    H127359   4.456   4.321   5.130
 9158TIP3    H227360   4.415   4.448   5.062
 9159TIP3   OH227361   4.517   3.603   4.001
 9159TIP3    H127362   4.613   3.610   4.017
 9159TIP3    H227363   4.498   3.684   3.949
 9160TIP3   OH227364   3.682   4.069   4.711
 9160TIP3    H127365   3.721   4.039   4.626
 9160TIP3    H227366   3.719   4.006   4.774
 9161TIP3   OH227367   4.135   4.193   3.856
 9161TIP3    H127368   4.087   4.279   3.862
 9161TIP3    H227369   4.081   4.138   3.916
 9162TIP3   OH227370   3.567   3.982   5.324
 9162TIP3    H127371   3.579   3.975   5.421
 9162TIP3    H227372   3.490   3.925   5.309
 9163TIP3   OH227373   4.291   4.092   5.349
 9163TIP3    H127374   4.228   4.031   5.306
 9163TIP3    H227375   4.377   4.058   5.317
 9164TIP3   OH227376   4.959   3.694   3.837
 9164TIP3    H127377   4.897   3.650   3.774
 9164TIP3    H227378   4.956   3.784   3.796
 9165TIP3   OH227379   4.661   4.514   3.745
 9165TIP3    H127380   4.634   4.445   3.808
 9165TIP3    H227381   4.672   4.464   3.662
 9166TIP3   OH227382   4.648   4.144   4.582
 9166TIP3    H127383   4.555   4.114   4.590
 9166TIP3    H227384   4.688   4.066   4.538
 9167TIP3   OH227385   3.784   4.371   4.338
 9167TIP3    H127386   3.784   4.452   4.283
 9167TIP3    H227387   3.689   4.352   4.342
 9168TIP3   OH227388   3.347   3.674   4.040
 9168TIP3    H127389   3.393   3.758   4.061
 9168TIP3    H227390   3.270   3.679   4.101
 9169TIP3   OH227391   3.919   4.135   4.279
 9169TIP3    H127392   3.887   4.225   4.299
 9169TIP3    H227393   3.884   4.085   4.355
 9170TIP3   OH227394   3.702   4.610   4.188
 9170TIP3    H127395   3.616   4.618   4.234
 9170TIP3    H227396   3.734   4.702   4.191
 9171TIP3   OH227397   4.444   4.348   4.765
 9171TIP3    H127398   4.440   4.334   4.862
 9171TIP3    H227399   4.518   4.291   4.740
 9172TIP3   OH227400   4.416   4.242   3.646
 9172TIP3    H127401   4.470   4.217   3.725
 9172TIP3    H227402   4.328   4.214   3.675
 9173TIP3   OH227403   4.755   4.715   3.465
 9173TIP3    H127404   4.793   4.790   3.415
 9173TIP3    H227405   4.674   4.759   3.500
 9174TIP3   OH227406   3.774   3.493   5.332
 9174TIP3    H127407   3.677   3.493   5.343
 9174TIP3    H227408   3.801   3.432   5.403
 9175TIP3   OH227409   4.576   4.173   3.861
 9175TIP3    H127410   4.566   4.108   3.933
 9175TIP3    H227411   4.674   4.171   3.850
 9176TIP3   OH227412   3.780   4.221   3.646
 9176TIP3    H127413   3.795   4.129   3.618
 9176TIP3    H227414   3.761   4.209   3.741
 9177TIP3   OH227415   3.726   4.226   3.919
 9177TIP3    H127416   3.799   4.198   3.975
 9177TIP3    H227417   3.731   4.324   3.926
 9178TIP3   OH227418   3.461   3.919   4.122
 9178TIP3    H127419   3.395   3.964   4.178
 9178TIP3    H227420   3.476   3.988   4.054
 9179TIP3   OH227421   4.609   3.558   5.014
 9179TIP3    H127422   4.690   3.598   5.050
 9179TIP3    H227423   4.599   3.477   5.069
 9180TIP3   OH227424   4.496   3.305   4.179
 9180TIP3    H127425   4.478   3.329   4.086
 9180TIP3    H227426   4.532   3.389   4.215
 9181TIP3   OH227427   3.992   4.423   3.866
 9181TIP3    H127428   3.906   4.450   3.903
 9181TIP3    H227429   4.009   4.496   3.806
 9182TIP3   OH227430   4.182   3.487   4.282
 9182TIP3    H127431   4.246   3.560   4.265
 9182TIP3    H227432   4.186   3.481   4.380
 9183TIP3   OH227433   4.446   3.807   5.090
 9183TIP3    H127434   4.475   3.858   5.168
 9183TIP3    H227435   4.502   3.727   5.097
 9184TIP3   OH227436   4.328   3.215   4.386
 9184TIP3    H127437   4.316   3.295   4.441
 9184TIP3    H227438   4.387   3.249   4.315
 9185TIP3   OH227439   3.737   4.499   3.935
 9185TIP3    H127440   3.706   4.569   3.872
 9185TIP3    H227441   3.720   4.543   4.022
 9186TIP3   OH227442   3.835   3.214   4.171
 9186TIP3    H127443   3.837   3.303   4.210
 9186TIP3    H227444   3.929   3.189   4.180
 9187TIP3   OH227445   5.088   3.703   5.075
 9187TIP3    H127446   4.990   3.698   5.074
 9187TIP3    H227447   5.109   3.681   4.983
 9188TIP3   OH227448   4.741   3.901   4.457
 9188TIP3    H127449   4.666   3.840   4.471
 9188TIP3    H227450   4.814   3.855   4.506
 9189TIP3   OH227451   3.454   4.128   3.927
 9189TIP3    H127452   3.523   4.197   3.936
 9189TIP3    H227453   3.499   4.071   3.860
 9190TIP3   OH227454   3.398   3.404   4.061
 9190TIP3    H127455   3.398   3.502   4.057
 9190TIP3    H227456   3.316   3.382   4.016
 9191TIP3   OH227457   4.712   4.843   4.400
 9191TIP3    H127458   4.670   4.893   4.326
 9191TIP3    H227459   4.806   4.865   4.385
 9192TIP3   OH227460   3.785   3.125   4.933
 9192TIP3    H127461   3.755   3.092   4.846
 9192TIP3    H227462   3.775   3.046   4.990
 9193TIP3   OH227463   3.326   4.346   4.313
 9193TIP3    H127464   3.256   4.374   4.374
 9193TIP3    H227465   3.295   4.385   4.229
 9194TIP3   OH227466   3.944   4.424   3.558
 9194TIP3    H127467   3.888   4.353   3.597
 9194TIP3    H227468   4.020   4.372   3.526
 9195TIP3   OH227469   4.381   4.465   3.471
 9195TIP3    H127470   4.422   4.399   3.530
 9195TIP3    H227471   4.439   4.462   3.392
 9196TIP3   OH227472   3.610   4.280   5.586
 9196TIP3    H127473   3.646   4.190   5.582
 9196TIP3    H227474   3.546   4.279   5.515
 9197TIP3   OH227475   3.589   3.941   3.780
 9197TIP3    H127476   3.645   3.908   3.853
 9197TIP3    H227477   3.656   3.946   3.708
 9198TIP3   OH227478   4.201   4.355   5.342
 9198TIP3    H127479   4.199   4.338   5.247
 9198TIP3    H227480   4.252   4.277   5.371
 9199TIP3   OH227481   4.100   4.141   3.587
 9199TIP3    H127482   4.103   4.153   3.684
 9199TIP3    H227483   4.101   4.042   3.581
 9200TIP3   OH227484   4.717   4.373   4.964
 9200TIP3    H127485   4.776   4.399   4.892
 9200TIP3    H227486   4.647   4.438   4.960
 9201TIP3   OH227487   3.732   4.021   5.572
 9201TIP3    H127488   3.812   3.978   5.541
 9201TIP3    H227489   3.760   4.056   5.659
 9202TIP3   OH227490   3.797   3.846   4.001
 9202TIP3    H127491   3.771   3.803   4.084
 9202TIP3    H227492   3.834   3.770   3.950
 9203TIP3   OH227493   4.075   3.918   5.227
 9203TIP3    H127494   3.992   3.970   5.232
 9203TIP3    H227495   4.112   3.952   5.142
 9204TIP3   OH227496   3.898   3.640   3.842
 9204TIP3    H127497   3.873   3.644   3.747
 9204TIP3    H227498   3.996   3.644   3.834
 9205TIP3   OH227499   4.580   4.305   5.355
 9205TIP3    H127500   4.670   4.298   5.322
 9205TIP3    H227501   4.582   4.245   5.432
 9206TIP3   OH227502   4.720   3.970   3.506
 9206TIP3    H127503   4.698   3.924   3.422
 9206TIP3    H227504   4.687   4.060   3.483
 9207TIP3   OH227505   4.188   3.699   5.356
 9207TIP3    H127506   4.190   3.619   5.299
 9207TIP3    H227507   4.148   3.766   5.296
 9208TIP3   OH227508   4.193   3.485   5.164
 9208TIP3    H127509   4.221   3.525   5.080
 9208TIP3    H227510   4.099   3.461   5.145
 9209TIP3   OH227511   4.207   4.035   5.016
 9209TIP3    H127512   4.296   4.010   4.986
 9209TIP3    H227513   4.203   4.128   4.989
 9210TIP3   OH227514   4.802   3.988   5.417
 9210TIP3    H127515   4.853   3.906   5.422
 9210TIP3    H227516   4.868   4.049   5.380
 9211TIP3   OH227517   4.855   4.235   5.148
 9211TIP3    H127518   4.796   4.290   5.092
 9211TIP3    H227519   4.942   4.261   5.109
 9212TIP3   OH227520   4.067   3.808   5.588
 9212TIP3    H127521   3.998   3.740   5.601
 9212TIP3    H227522   4.102   3.783   5.500
 9213TIP3   OH227523   4.324   3.248   5.231
 9213TIP3    H127524   4.276   3.330   5.208
 9213TIP3    H227525   4.255   3.180   5.219
 9214TIP3   OH227526   4.451   3.751   5.447
 9214TIP3    H127527   4.440   3.740   5.543
 9214TIP3    H227528   4.361   3.727   5.418
 9215TIP3   OH227529   4.690   3.701   5.301
 9215TIP3    H127530   4.615   3.703   5.364
 9215TIP3    H227531   4.764   3.672   5.358
 9216TIP3   OH227532   4.915   3.642   5.453
 9216TIP3    H127533   4.930   3.547   5.471
 9216TIP3    H227534   4.913   3.681   5.543
 9217TIP3   OH227535   3.902   3.590   5.641
 9217TIP3    H127536   3.909   3.500   5.605
 9217TIP3    H227537   3.940   3.578   5.730
 9218TIP3   OH227538   4.417   3.256   5.489
 9218TIP3    H127539   4.485   3.186   5.482
 9218TIP3    H227540   4.378   3.252   5.400
 9219TIP3   OH227541   4.483   3.471   5.649
 9219TIP3    H127542   4.462   3.401   5.584
 9219TIP3    H227543   4.406   3.531   5.641
 9220TIP3   OH227544   3.706   4.703   3.747
 9220TIP3    H127545   3.801   4.696   3.728
 9220TIP3    H227546   3.677   4.752   3.668
 9221TIP3   OH227547   3.185   4.083   3.963
 9221TIP3    H127548   3.280   4.105   3.949
 9221TIP3    H227549   3.180   3.994   3.922
 9222TIP3   OH227550   3.101   4.695   4.377
 9222TIP3    H127551   3.033   4.634   4.340
 9222TIP3    H227552   3.144   4.636   4.443
 9223TIP3   OH227553   3.233   4.545   4.565
 9223TIP3    H127554   3.228   4.471   4.629
 9223TIP3    H227555   3.286   4.607   4.617
 9224TIP3   OH227556   4.965   4.947   4.370
 9224TIP3    H127557   4.985   5.014   4.437
 9224TIP3    H227558   5.013   4.981   4.293
 9225TIP3   OH227559   4.856   4.156   3.838
 9225TIP3    H127560   4.924   4.220   3.810
 9225TIP3    H227561   4.898   4.117   3.918
 9226TIP3   OH227562   4.982   4.024   4.042
 9226TIP3    H127563   4.917   3.983   4.102
 9226TIP3    H227564   5.049   4.061   4.104
 9227TIP3   OH227565   5.025   4.408   4.473
 9227TIP3    H127566   5.090   4.346   4.432
 9227TIP3    H227567   5.013   4.474   4.403
 9228TIP3   OH227568   4.921   3.932   3.689
 9228TIP3    H127569   4.849   3.935   3.622
 9228TIP3    H227570   4.893   4.007   3.745
 9229TIP3   OH227571   4.792   3.604   3.642
 9229TIP3    H127572   4.748   3.643   3.565
 9229TIP3    H227573   4.767   3.510   3.633
 9230TIP3   OH227574   4.795   3.881   4.188
 9230TIP3    H127575   4.805   3.785   4.184
 9230TIP3    H227576   4.782   3.897   4.284
 9231TIP3   OH227577   3.422   3.952   4.936
 9231TIP3    H127578   3.420   3.921   4.843
 9231TIP3    H227579   3.519   3.954   4.952
 9232TIP3   OH227580   5.089   4.322   5.038
 9232TIP3    H127581   5.158   4.252   5.038
 9232TIP3    H227582   5.143   4.398   5.070
 9233TIP3   OH227583   5.261   4.110   5.066
 9233TIP3    H127584   5.193   4.055   5.110
 9233TIP3    H227585   5.340   4.055   5.075
 9234TIP3   OH227586   4.735   3.338   3.627
 9234TIP3    H127587   4.808   3.307   3.684
 9234TIP3    H227588   4.661   3.281   3.652
 9235TIP3   OH227589   4.792   3.597   4.083
 9235TIP3    H127590   4.834   3.508   4.097
 9235TIP3    H227591   4.851   3.631   4.013
 9236TIP3   OH227592   4.953   3.770   4.579
 9236TIP3    H127593   5.039   3.795   4.538
 9236TIP3    H227594   4.967   3.809   4.667
 9237TIP3   OH227595   5.022   3.913   4.811
 9237TIP3    H127596   4.946   3.950   4.859
 9237TIP3    H227597   5.056   3.993   4.764
 9238TIP3   OH227598   3.632   3.647   5.610
 9238TIP3    H127599   3.730   3.642   5.609
 9238TIP3    H227600   3.611   3.560   5.651
 9239TIP3   OH227601   5.475   3.505   5.368
 9239TIP3    H127602   5.535   3.441   5.323
 9239TIP3    H227603   5.444   3.560   5.292
 9240TIP3   OH227604   4.902   3.347   4.120
 9240TIP3    H127605   4.950   3.332   4.204
 9240TIP3    H227606   4.840   3.271   4.120
 9241TIP3   OH227607   3.601   3.333   4.945
 9241TIP3    H127608   3.663   3.257   4.951
 9241TIP3    H227609   3.664   3.407   4.935
 9242TIP3   OH227610   3.404   3.607   5.014
 9242TIP3    H127611   3.453   3.599   4.930
 9242TIP3    H227612   3.432   3.694   5.044
 9243TIP3   OH227613   5.344   3.642   5.176
 9243TIP3    H127614   5.259   3.687   5.196
 9243TIP3    H227615   5.312   3.574   5.114
 9244TIP3   OH227616   4.982   3.280   3.755
 9244TIP3    H127617   5.023   3.210   3.700
 9244TIP3    H227618   5.048   3.352   3.750
 9245TIP3   OH227619   3.389   3.116   4.519
 9245TIP3    H127620   3.294   3.108   4.541
 9245TIP3    H227621   3.386   3.170   4.437
 9246TIP3   OH227622   4.546   4.815   4.020
 9246TIP3    H127623   4.598   4.800   3.938
 9246TIP3    H227624   4.602   4.878   4.068
 9247TIP3   OH227625   3.609   3.193   5.331
 9247TIP3    H127626   3.556   3.185   5.412
 9247TIP3    H227627   3.543   3.228   5.268
 9248TIP3   OH227628   5.245   3.409   5.050
 9248TIP3    H127629   5.154   3.406   5.014
 9248TIP3    H227630   5.274   3.316   5.037
 9249TIP3   OH227631   3.751   4.924   4.810
 9249TIP3    H127632   3.666   4.941   4.851
 9249TIP3    H227633   3.733   4.948   4.717
 9250TIP3   OH227634   4.181   4.922   4.599
 9250TIP3    H127635   4.097   4.946   4.557
 9250TIP3    H227636   4.197   4.996   4.659
 9251TIP3   OH227637   4.686   5.056   4.574
 9251TIP3    H127638   4.644   5.131   4.528
 9251TIP3    H227639   4.677   4.983   4.509
 9252TIP3   OH227640   3.416   4.706   4.712
 9252TIP3    H127641   3.431   4.679   4.804
 9252TIP3    H227642   3.487   4.657   4.665
 9253TIP3   OH227643   3.607   4.570   4.579
 9253TIP3    H127644   3.624   4.485   4.625
 9253TIP3    H227645   3.698   4.605   4.569
 9254TIP3   OH227646   3.869   4.666   4.578
 9254TIP3    H127647   3.906   4.576   4.571
 9254TIP3    H227648   3.913   4.699   4.657
 9255TIP3   OH227649   4.450   3.324   4.672
 9255TIP3    H127650   4.405   3.254   4.723
 9255TIP3    H227651   4.520   3.276   4.626
 9256TIP3   OH227652   4.972   3.198   4.571
 9256TIP3    H127653   5.009   3.254   4.500
 9256TIP3    H227654   4.877   3.223   4.569
 9257TIP3   OH227655   5.067   3.302   4.337
 9257TIP3    H127656   5.142   3.252   4.298
 9257TIP3    H227657   5.100   3.394   4.324
 9258TIP3   OH227658   3.695   3.036   4.686
 9258TIP3    H127659   3.603   3.001   4.687
 9258TIP3    H227660   3.744   2.951   4.682
 9259TIP3   OH227661   3.456   2.900   4.324
 9259TIP3    H127662   3.513   2.951   4.264
 9259TIP3    H227663   3.450   2.959   4.401
 9260TIP3   OH227664   4.141   3.071   4.559
 9260TIP3    H127665   4.203   3.122   4.504
 9260TIP3    H227666   4.164   3.100   4.648
 9261TIP3   OH227667   4.688   3.212   4.550
 9261TIP3    H127668   4.681   3.177   4.461
 9261TIP3    H227669   4.675   3.130   4.605
 9262TIP3   OH227670   4.718   3.134   4.112
 9262TIP3    H127671   4.633   3.179   4.126
 9262TIP3    H227672   4.701   3.049   4.158
 9263TIP3   OH227673   3.202   4.473   4.112
 9263TIP3    H127674   3.116   4.440   4.078
 9263TIP3    H227675   3.191   4.568   4.092
 9264TIP3   OH227676   3.603   3.065   4.090
 9264TIP3    H127677   3.654   2.995   4.045
 9264TIP3    H227678   3.676   3.117   4.131
 9265TIP3   OH227679   4.113   3.240   4.192
 9265TIP3    H127680   4.163   3.183   4.252
 9265TIP3    H227681   4.140   3.329   4.223
 9266TIP3   OH227682   3.973   4.660   3.694
 9266TIP3    H127683   4.062   4.682   3.659
 9266TIP3    H227684   3.952   4.585   3.635
 9267TIP3   OH227685   4.694   4.780   3.788
 9267TIP3    H127686   4.686   4.682   3.777
 9267TIP3    H227687   4.648   4.811   3.708
 9268TIP3   OH227688   3.905   3.313   5.577
 9268TIP3    H127689   3.871   3.242   5.634
 9268TIP3    H227690   3.999   3.314   5.603
 9269TIP3   OH227691   4.154   3.310   5.695
 9269TIP3    H127692   4.240   3.288   5.654
 9269TIP3    H227693   4.144   3.238   5.761
 9270TIP3   OH227694   3.278   4.498   3.751
 9270TIP3    H127695   3.279   4.521   3.845
 9270TIP3    H227696   3.366   4.456   3.738
 9271TIP3   OH227697   4.981   3.371   5.483
 9271TIP3    H127698   5.000   3.341   5.574
 9271TIP3    H227699   5.069   3.368   5.441
 9272TIP3   OH227700   6.186   4.297   3.740
 9272TIP3    H127701   6.158   4.389   3.720
 9272TIP3    H227702   6.109   4.247   3.709
 9273TIP3   OH227703   6.182   4.297   4.126
 9273TIP3    H127704   6.216   4.266   4.212
 9273TIP3    H227705   6.141   4.217   4.091
 9274TIP3   OH227706   5.484   4.190   4.481
 9274TIP3    H127707   5.511   4.122   4.546
 9274TIP3    H227708   5.547   4.260   4.501
 9275TIP3   OH227709   6.426   4.601   3.798
 9275TIP3    H127710   6.417   4.533   3.866
 9275TIP3    H227711   6.453   4.678   3.852
 9276TIP3   OH227712   5.463   4.603   4.214
 9276TIP3    H127713   5.446   4.507   4.217
 9276TIP3    H227714   5.559   4.604   4.201
 9277TIP3   OH227715   5.162   3.803   3.995
 9277TIP3    H127716   5.116   3.886   4.014
 9277TIP3    H227717   5.090   3.751   3.956
 9278TIP3   OH227718   5.221   4.089   4.167
 9278TIP3    H127719   5.269   4.013   4.207
 9278TIP3    H227720   5.285   4.123   4.104
 9279TIP3   OH227721   6.069   5.064   3.814
 9279TIP3    H127722   6.120   4.986   3.787
 9279TIP3    H227723   6.061   5.054   3.910
 9280TIP3   OH227724   5.987   4.529   4.164
 9280TIP3    H127725   6.019   4.445   4.127
 9280TIP3    H227726   6.073   4.570   4.185
 9281TIP3   OH227727   6.996   3.842   4.168
 9281TIP3    H127728   7.026   3.924   4.212
 9281TIP3    H227729   7.019   3.861   4.075
 9282TIP3   OH227730   6.395   4.026   4.203
 9282TIP3    H127731   6.438   3.941   4.225
 9282TIP3    H227732   6.364   4.008   4.112
 9283TIP3   OH227733   5.734   3.683   4.168
 9283TIP3    H127734   5.714   3.756   4.106
 9283TIP3    H227735   5.685   3.610   4.124
 9284TIP3   OH227736   6.427   3.774   3.789
 9284TIP3    H127737   6.497   3.758   3.856
 9284TIP3    H227738   6.481   3.808   3.716
 9285TIP3   OH227739   5.366   3.885   4.275
 9285TIP3    H127740   5.449   3.868   4.324
 9285TIP3    H227741   5.382   3.829   4.197
 9286TIP3   OH227742   5.811   4.083   4.061
 9286TIP3    H127743   5.903   4.056   4.079
 9286TIP3    H227744   5.770   3.998   4.034
 9287TIP3   OH227745   7.070   4.049   4.338
 9287TIP3    H127746   6.986   4.096   4.320
 9287TIP3    H227747   7.087   4.077   4.429
 9288TIP3   OH227748   5.729   3.665   4.603
 9288TIP3    H127749   5.670   3.705   4.536
 9288TIP3    H227750   5.678   3.684   4.684
 9289TIP3   OH227751   6.083   4.523   3.606
 9289TIP3    H127752   6.032   4.496   3.529
 9289TIP3    H227753   6.035   4.604   3.633
 9290TIP3   OH227754   5.840   4.428   4.391
 9290TIP3    H127755   5.774   4.482   4.440
 9290TIP3    H227756   5.886   4.495   4.339
 9291TIP3   OH227757   6.634   3.779   3.963
 9291TIP3    H127758   6.634   3.723   4.041
 9291TIP3    H227759   6.690   3.854   3.991
 9292TIP3   OH227760   5.600   3.781   4.387
 9292TIP3    H127761   5.661   3.855   4.412
 9292TIP3    H227762   5.651   3.742   4.313
 9293TIP3   OH227763   5.641   4.580   4.498
 9293TIP3    H127764   5.568   4.628   4.457
 9293TIP3    H227765   5.609   4.570   4.589
 9294TIP3   OH227766   5.059   4.326   3.731
 9294TIP3    H127767   5.017   4.354   3.648
 9294TIP3    H227768   5.090   4.411   3.768
 9295TIP3   OH227769   6.483   4.822   3.952
 9295TIP3    H127770   6.403   4.832   4.008
 9295TIP3    H227771   6.499   4.915   3.927
 9296TIP3   OH227772   6.789   3.746   4.336
 9296TIP3    H127773   6.702   3.771   4.302
 9296TIP3    H227774   6.849   3.774   4.264
 9297TIP3   OH227775   6.084   3.385   4.314
 9297TIP3    H127776   6.073   3.290   4.334
 9297TIP3    H227777   6.008   3.423   4.363
 9298TIP3   OH227778   6.200   4.885   3.641
 9298TIP3    H127779   6.253   4.804   3.625
 9298TIP3    H227780   6.260   4.952   3.604
 9299TIP3   OH227781   6.350   4.672   3.544
 9299TIP3    H127782   6.293   4.596   3.524
 9299TIP3    H227783   6.386   4.643   3.631
 9300TIP3   OH227784   6.016   4.148   3.572
 9300TIP3    H127785   5.935   4.199   3.550
 9300TIP3    H227786   6.062   4.144   3.487
 9301TIP3   OH227787   5.974   3.934   3.287
 9301TIP3    H127788   6.042   3.983   3.337
 9301TIP3    H227789   6.030   3.870   3.240
 9302TIP3   OH227790   6.918   4.387   4.158
 9302TIP3    H127791   6.837   4.442   4.168
 9302TIP3    H227792   6.948   4.416   4.069
 9303TIP3   OH227793   6.364   4.232   3.542
 9303TIP3    H127794   6.309   4.256   3.621
 9303TIP3    H227795   6.447   4.205   3.586
 9304TIP3   OH227796   6.599   4.268   4.458
 9304TIP3    H127797   6.597   4.351   4.509
 9304TIP3    H227798   6.513   4.272   4.413
 9305TIP3   OH227799   5.598   4.228   3.959
 9305TIP3    H127800   5.556   4.169   3.893
 9305TIP3    H227801   5.674   4.174   3.989
 9306TIP3   OH227802   5.730   4.644   4.110
 9306TIP3    H127803   5.707   4.601   4.027
 9306TIP3    H227804   5.819   4.606   4.128
 9307TIP3   OH227805   5.735   4.191   4.308
 9307TIP3    H127806   5.769   4.174   4.218
 9307TIP3    H227807   5.776   4.277   4.331
 9308TIP3   OH227808   6.261   4.847   4.110
 9308TIP3    H127809   6.232   4.913   4.175
 9308TIP3    H227810   6.247   4.763   4.158
 9309TIP3   OH227811   6.203   4.090   3.370
 9309TIP3    H127812   6.263   4.148   3.422
 9309TIP3    H227813   6.230   4.114   3.278
 9310TIP3   OH227814   5.620   4.311   4.729
 9310TIP3    H127815   5.629   4.393   4.783
 9310TIP3    H227816   5.526   4.291   4.748
 9311TIP3   OH227817   5.948   4.767   3.644
 9311TIP3    H127818   6.028   4.820   3.661
 9311TIP3    H227819   5.886   4.832   3.610
 9312TIP3   OH227820   6.718   3.328   3.417
 9312TIP3    H127821   6.638   3.347   3.469
 9312TIP3    H227822   6.731   3.413   3.369
 9313TIP3   OH227823   5.464   4.071   3.763
 9313TIP3    H127824   5.394   4.114   3.709
 9313TIP3    H227825   5.424   3.985   3.780
 9314TIP3   OH227826   6.553   4.743   2.906
 9314TIP3    H127827   6.519   4.776   2.991
 9314TIP3    H227828   6.624   4.681   2.936
 9315TIP3   OH227829   5.257   4.454   4.645
 9315TIP3    H127830   5.172   4.422   4.613
 9315TIP3    H227831   5.288   4.384   4.705
 9316TIP3   OH227832   5.101   4.658   4.290
 9316TIP3    H127833   5.189   4.627   4.314
 9316TIP3    H227834   5.076   4.712   4.366
 9317TIP3   OH227835   5.830   5.015   3.445
 9317TIP3    H127836   5.779   4.997   3.364
 9317TIP3    H227837   5.796   5.103   3.473
 9318TIP3   OH227838   5.266   4.862   3.832
 9318TIP3    H127839   5.312   4.852   3.918
 9318TIP3    H227840   5.213   4.780   3.831
 9319TIP3   OH227841   6.029   4.917   3.089
 9319TIP3    H127842   6.090   4.847   3.055
 9319TIP3    H227843   6.061   4.927   3.181
 9320TIP3   OH227844   6.081   4.961   3.358
 9320TIP3    H127845   5.991   4.973   3.398
 9320TIP3    H227846   6.129   4.925   3.434
 9321TIP3   OH227847   6.846   4.226   4.639
 9321TIP3    H127848   6.768   4.238   4.583
 9321TIP3    H227849   6.864   4.130   4.626
 9322TIP3   OH227850   5.847   3.461   4.447
 9322TIP3    H127851   5.758   3.431   4.420
 9322TIP3    H227852   5.823   3.543   4.494
 9323TIP3   OH227853   6.382   3.576   4.640
 9323TIP3    H127854   6.451   3.548   4.704
 9323TIP3    H227855   6.299   3.556   4.688
 9324TIP3   OH227856   6.618   4.003   4.558
 9324TIP3    H127857   6.569   4.001   4.644
 9324TIP3    H227858   6.595   4.091   4.523
 9325TIP3   OH227859   6.280   4.140   3.115
 9325TIP3    H127860   6.246   4.110   3.029
 9325TIP3    H227861   6.366   4.178   3.090
 9326TIP3   OH227862   5.992   3.511   3.417
 9326TIP3    H127863   5.960   3.507   3.509
 9326TIP3    H227864   5.954   3.427   3.384
 9327TIP3   OH227865   5.778   3.975   4.466
 9327TIP3    H127866   5.728   3.999   4.547
 9327TIP3    H227867   5.761   4.055   4.411
 9328TIP3   OH227868   5.662   3.863   3.978
 9328TIP3    H127869   5.570   3.836   3.997
 9328TIP3    H227870   5.675   3.821   3.890
 9329TIP3   OH227871   6.154   3.949   3.707
 9329TIP3    H127872   6.101   4.020   3.664
 9329TIP3    H227873   6.208   3.916   3.633
 9330TIP3   OH227874   6.331   4.226   4.789
 9330TIP3    H127875   6.303   4.156   4.853
 9330TIP3    H227876   6.424   4.237   4.815
 9331TIP3   OH227877   6.310   3.976   3.944
 9331TIP3    H127878   6.249   4.003   3.873
 9331TIP3    H227879   6.346   3.895   3.903
 9332TIP3   OH227880   5.596   4.006   4.673
 9332TIP3    H127881   5.612   4.075   4.739
 9332TIP3    H227882   5.588   3.926   4.729
 9333TIP3   OH227883   5.647   3.483   3.382
 9333TIP3    H127884   5.640   3.481   3.480
 9333TIP3    H227885   5.569   3.536   3.359
 9334TIP3   OH227886   5.191   3.525   4.253
 9334TIP3    H127887   5.264   3.560   4.309
 9334TIP3    H227888   5.237   3.497   4.173
 9335TIP3   OH227889   5.161   3.508   3.773
 9335TIP3    H127890   5.207   3.546   3.695
 9335TIP3    H227891   5.101   3.582   3.794
 9336TIP3   OH227892   6.320   4.226   4.367
 9336TIP3    H127893   6.354   4.154   4.309
 9336TIP3    H227894   6.292   4.173   4.445
 9337TIP3   OH227895   5.990   3.688   4.039
 9337TIP3    H127896   5.910   3.685   4.095
 9337TIP3    H227897   6.061   3.680   4.105
 9338TIP3   OH227898   5.425   3.741   4.047
 9338TIP3    H127899   5.330   3.748   4.020
 9338TIP3    H227900   5.448   3.650   4.024
 9339TIP3   OH227901   5.692   3.735   3.737
 9339TIP3    H127902   5.786   3.751   3.717
 9339TIP3    H227903   5.646   3.759   3.653
 9340TIP3   OH227904   6.482   3.764   4.243
 9340TIP3    H127905   6.447   3.774   4.334
 9340TIP3    H227906   6.419   3.700   4.205
 9341TIP3   OH227907   5.536   3.772   3.514
 9341TIP3    H127908   5.464   3.727   3.466
 9341TIP3    H227909   5.588   3.807   3.439
 9342TIP3   OH227910   5.613   4.532   4.890
 9342TIP3    H127911   5.676   4.588   4.940
 9342TIP3    H227912   5.531   4.550   4.936
 9343TIP3   OH227913   6.073   4.015   4.138
 9343TIP3    H127914   6.145   3.973   4.089
 9343TIP3    H227915   6.079   3.971   4.225
 9344TIP3   OH227916   5.594   3.501   4.016
 9344TIP3    H127917   5.561   3.422   4.064
 9344TIP3    H227918   5.648   3.462   3.946
 9345TIP3   OH227919   6.049   3.912   4.426
 9345TIP3    H127920   5.959   3.947   4.442
 9345TIP3    H227921   6.106   3.972   4.477
 9346TIP3   OH227922   5.786   4.301   3.520
 9346TIP3    H127923   5.714   4.235   3.510
 9346TIP3    H227924   5.767   4.334   3.611
 9347TIP3   OH227925   6.685   4.535   4.160
 9347TIP3    H127926   6.712   4.595   4.087
 9347TIP3    H227927   6.601   4.497   4.126
 9348TIP3   OH227928   6.243   3.614   3.381
 9348TIP3    H127929   6.147   3.595   3.394
 9348TIP3    H227930   6.252   3.707   3.410
 9349TIP3   OH227931   6.313   3.860   3.488
 9349TIP3    H127932   6.409   3.864   3.505
 9349TIP3    H227933   6.297   3.940   3.435
 9350TIP3   OH227934   5.478   4.325   4.197
 9350TIP3    H127935   5.520   4.291   4.116
 9350TIP3    H227936   5.515   4.266   4.266
 9351TIP3   OH227937   5.930   4.450   3.342
 9351TIP3    H127938   5.882   4.536   3.348
 9351TIP3    H227939   5.876   4.394   3.402
 9352TIP3   OH227940   5.363   4.244   4.810
 9352TIP3    H127941   5.392   4.241   4.903
 9352TIP3    H227942   5.286   4.187   4.811
 9353TIP3   OH227943   6.083   4.346   4.842
 9353TIP3    H127944   6.020   4.301   4.784
 9353TIP3    H227945   6.168   4.322   4.801
 9354TIP3   OH227946   6.755   3.950   3.323
 9354TIP3    H127947   6.692   3.906   3.261
 9354TIP3    H227948   6.753   4.039   3.283
 9355TIP3   OH227949   6.981   4.789   4.412
 9355TIP3    H127950   6.886   4.803   4.403
 9355TIP3    H227951   7.008   4.764   4.321
 9356TIP3   OH227952   6.462   4.749   3.211
 9356TIP3    H127953   6.443   4.739   3.306
 9356TIP3    H227954   6.435   4.661   3.180
 9357TIP3   OH227955   6.444   4.401   4.070
 9357TIP3    H127956   6.353   4.368   4.080
 9357TIP3    H227957   6.486   4.324   4.027
 9358TIP3   OH227958   5.580   4.627   3.824
 9358TIP3    H127959   5.578   4.709   3.770
 9358TIP3    H227960   5.486   4.608   3.833
 9359TIP3   OH227961   5.143   3.930   3.527
 9359TIP3    H127962   5.189   4.014   3.548
 9359TIP3    H227963   5.066   3.935   3.588
 9360TIP3   OH227964   5.717   4.393   3.765
 9360TIP3    H127965   5.682   4.482   3.786
 9360TIP3    H227966   5.683   4.341   3.840
 9361TIP3   OH227967   5.498   4.867   3.674
 9361TIP3    H127968   5.412   4.874   3.721
 9361TIP3    H227969   5.529   4.959   3.678
 9362TIP3   OH227970   6.250   4.601   4.250
 9362TIP3    H127971   6.254   4.568   4.340
 9362TIP3    H227972   6.320   4.548   4.207
 9363TIP3   OH227973   6.216   4.504   3.130
 9363TIP3    H127974   6.267   4.474   3.209
 9363TIP3    H227975   6.127   4.473   3.155
 9364TIP3   OH227976   5.572   3.745   4.819
 9364TIP3    H127977   5.476   3.753   4.836
 9364TIP3    H227978   5.600   3.689   4.894
 9365TIP3   OH227979   6.374   4.427   3.340
 9365TIP3    H127980   6.359   4.366   3.416
 9365TIP3    H227981   6.471   4.426   3.337
 9366TIP3   OH227982   5.578   4.478   3.133
 9366TIP3    H127983   5.590   4.385   3.105
 9366TIP3    H227984   5.558   4.467   3.228
 9367TIP3   OH227985   5.522   4.483   3.404
 9367TIP3    H127986   5.593   4.454   3.463
 9367TIP3    H227987   5.527   4.581   3.414
 9368TIP3   OH227988   5.257   4.175   3.608
 9368TIP3    H127989   5.191   4.219   3.666
 9368TIP3    H227990   5.271   4.245   3.542
 9369TIP3   OH227991   6.407   3.813   4.502
 9369TIP3    H127992   6.489   3.850   4.538
 9369TIP3    H227993   6.395   3.732   4.556
 9370TIP3   OH227994   6.286   3.564   3.666
 9370TIP3    H127995   6.277   3.588   3.572
 9370TIP3    H227996   6.328   3.645   3.704
 9371TIP3   OH227997   5.788   4.680   3.352
 9371TIP3    H127998   5.702   4.705   3.391
 9371TIP3    H227999   5.804   4.756   3.294
 9372TIP3   OH228000   5.974   3.745   3.768
 9372TIP3    H128001   6.040   3.816   3.752
 9372TIP3    H228002   5.981   3.735   3.865
 9373TIP3   OH228003   6.248   4.062   4.572
 9373TIP3    H128004   6.267   4.115   4.653
 9373TIP3    H228005   6.301   3.982   4.587
 9374TIP3   OH228006   6.120   3.468   3.868
 9374TIP3    H128007   6.121   3.541   3.932
 9374TIP3    H228008   6.181   3.503   3.800
 9375TIP3   OH228009   5.533   4.756   3.422
 9375TIP3    H128010   5.502   4.826   3.360
 9375TIP3    H228011   5.516   4.799   3.509
 9376TIP3   OH228012   5.633   3.469   3.659
 9376TIP3    H128013   5.630   3.559   3.697
 9376TIP3    H228014   5.729   3.451   3.667
 9377TIP3   OH228015   6.885   3.963   4.556
 9377TIP3    H128016   6.787   3.960   4.562
 9377TIP3    H228017   6.898   3.917   4.472
 9378TIP3   OH228018   6.537   4.159   3.944
 9378TIP3    H128019   6.462   4.098   3.957
 9378TIP3    H228020   6.609   4.112   3.992
 9379TIP3   OH228021   5.251   4.384   3.413
 9379TIP3    H128022   5.319   4.453   3.423
 9379TIP3    H228023   5.295   4.328   3.346
 9380TIP3   OH228024   5.194   3.660   3.547
 9380TIP3    H128025   5.194   3.758   3.544
 9380TIP3    H228026   5.111   3.639   3.504
 9381TIP3   OH228027   6.520   5.092   3.895
 9381TIP3    H128028   6.466   5.148   3.836
 9381TIP3    H228029   6.609   5.127   3.876
 9382TIP3   OH228030   5.582   3.381   4.420
 9382TIP3    H128031   5.552   3.348   4.333
 9382TIP3    H228032   5.572   3.302   4.478
 9383TIP3   OH228033   5.123   4.604   3.800
 9383TIP3    H128034   5.054   4.630   3.863
 9383TIP3    H228035   5.089   4.643   3.716
 9384TIP3   OH228036   5.740   4.680   3.044
 9384TIP3    H128037   5.682   4.612   3.085
 9384TIP3    H228038   5.815   4.624   3.016
 9385TIP3   OH228039   6.178   4.723   2.965
 9385TIP3    H128040   6.206   4.645   3.019
 9385TIP3    H228041   6.227   4.714   2.881
 9386TIP3   OH228042   5.386   4.198   3.267
 9386TIP3    H128043   5.441   4.164   3.340
 9386TIP3    H228044   5.454   4.202   3.196
 9387TIP3   OH228045   5.900   4.398   3.073
 9387TIP3    H128046   5.899   4.410   3.170
 9387TIP3    H228047   5.899   4.300   3.067
 9388TIP3   OH228048   6.509   4.640   4.449
 9388TIP3    H128049   6.565   4.657   4.372
 9388TIP3    H228050   6.453   4.718   4.453
 9389TIP3   OH228051   5.538   4.237   5.048
 9389TIP3    H128052   5.633   4.224   5.054
 9389TIP3    H228053   5.524   4.309   5.112
 9390TIP3   OH228054   5.593   4.103   3.488
 9390TIP3    H128055   5.566   4.063   3.572
 9390TIP3    H228056   5.629   4.026   3.439
 9391TIP3   OH228057   5.860   4.165   4.718
 9391TIP3    H128058   5.782   4.224   4.718
 9391TIP3    H228059   5.911   4.201   4.641
 9392TIP3   OH228060   5.694   3.896   3.328
 9392TIP3    H128061   5.669   3.900   3.234
 9392TIP3    H228062   5.792   3.901   3.321
 9393TIP3   OH228063   6.390   4.570   4.858
 9393TIP3    H128064   6.464   4.537   4.807
 9393TIP3    H228065   6.377   4.499   4.924
 9394TIP3   OH228066   6.515   4.228   2.993
 9394TIP3    H128067   6.496   4.179   2.910
 9394TIP3    H228068   6.482   4.317   2.968
 9395TIP3   OH228069   5.987   3.956   4.841
 9395TIP3    H128070   5.985   3.877   4.783
 9395TIP3    H228071   5.942   4.023   4.785
 9396TIP3   OH228072   5.989   3.740   4.648
 9396TIP3    H128073   6.016   3.783   4.565
 9396TIP3    H228074   5.894   3.719   4.631
 9397TIP3   OH228075   6.018   4.274   4.528
 9397TIP3    H128076   6.097   4.277   4.474
 9397TIP3    H228077   5.960   4.340   4.485
 9398TIP3   OH228078   6.603   4.242   4.907
 9398TIP3    H128079   6.647   4.156   4.907
 9398TIP3    H228080   6.670   4.299   4.866
 9399TIP3   OH228081   6.641   4.496   4.640
 9399TIP3    H128082   6.584   4.551   4.581
 9399TIP3    H228083   6.729   4.515   4.601
 9400TIP3   OH228084   5.866   4.063   5.077
 9400TIP3    H128085   5.795   3.998   5.088
 9400TIP3    H228086   5.898   4.043   4.986
 9401TIP3   OH228087   6.121   3.505   4.719
 9401TIP3    H128088   6.072   3.587   4.695
 9401TIP3    H228089   6.051   3.437   4.706
 9402TIP3   OH228090   6.246   4.010   4.933
 9402TIP3    H128091   6.232   3.997   5.028
 9402TIP3    H228092   6.157   3.987   4.900
 9403TIP3   OH228093   6.487   3.961   4.790
 9403TIP3    H128094   6.410   3.962   4.851
 9403TIP3    H228095   6.559   3.928   4.848
 9404TIP3   OH228096   6.716   3.901   4.942
 9404TIP3    H128097   6.729   3.804   4.958
 9404TIP3    H228098   6.713   3.936   5.033
 9405TIP3   OH228099   5.699   3.846   5.127
 9405TIP3    H128100   5.709   3.755   5.093
 9405TIP3    H228101   5.736   3.835   5.217
 9406TIP3   OH228102   6.214   3.513   4.977
 9406TIP3    H128103   6.282   3.443   4.970
 9406TIP3    H228104   6.175   3.509   4.887
 9407TIP3   OH228105   6.281   3.729   5.134
 9407TIP3    H128106   6.259   3.659   5.070
 9407TIP3    H228107   6.203   3.789   5.127
 9408TIP3   OH228108   5.502   4.960   3.234
 9408TIP3    H128109   5.597   4.953   3.214
 9408TIP3    H228110   5.472   5.009   3.155
 9409TIP3   OH228111   4.981   4.341   3.448
 9409TIP3    H128112   5.076   4.361   3.435
 9409TIP3    H228113   4.976   4.251   3.408
 9410TIP3   OH228114   4.897   4.952   3.865
 9410TIP3    H128115   4.830   4.890   3.828
 9410TIP3    H228116   4.941   4.893   3.931
 9411TIP3   OH228117   5.030   4.802   4.053
 9411TIP3    H128118   5.026   4.727   4.116
 9411TIP3    H228119   5.085   4.863   4.104
 9412TIP3   OH228120   6.769   5.204   3.863
 9412TIP3    H128121   6.799   5.259   3.936
 9412TIP3    H228122   6.816   5.244   3.788
 9413TIP3   OH228123   6.846   4.907   4.708
 9413TIP3    H128124   6.773   4.919   4.772
 9413TIP3    H228125   6.865   4.997   4.680
 9414TIP3   OH228126   6.653   4.416   3.325
 9414TIP3    H128127   6.725   4.477   3.300
 9414TIP3    H228128   6.692   4.375   3.405
 9415TIP3   OH228129   6.776   4.282   3.529
 9415TIP3    H128130   6.713   4.239   3.589
 9415TIP3    H228131   6.844   4.317   3.591
 9416TIP3   OH228132   6.829   4.670   3.959
 9416TIP3    H128133   6.884   4.603   3.914
 9416TIP3    H228134   6.814   4.736   3.890
 9417TIP3   OH228135   6.717   4.190   3.176
 9417TIP3    H128136   6.644   4.191   3.110
 9417TIP3    H228137   6.690   4.264   3.233
 9418TIP3   OH228138   6.585   3.863   3.128
 9418TIP3    H128139   6.544   3.894   3.047
 9418TIP3    H228140   6.563   3.767   3.125
 9419TIP3   OH228141   6.591   4.137   3.675
 9419TIP3    H128142   6.600   4.041   3.670
 9419TIP3    H228143   6.578   4.152   3.771
 9420TIP3   OH228144   5.217   4.213   4.420
 9420TIP3    H128145   5.218   4.180   4.328
 9420TIP3    H228146   5.313   4.216   4.440
 9421TIP3   OH228147   6.882   4.563   4.531
 9421TIP3    H128148   6.950   4.492   4.527
 9421TIP3    H228149   6.929   4.635   4.483
 9422TIP3   OH228150   7.061   4.366   4.555
 9422TIP3    H128151   6.990   4.310   4.593
 9422TIP3    H228152   7.139   4.307   4.565
 9423TIP3   OH228153   6.531   3.597   3.116
 9423TIP3    H128154   6.607   3.566   3.169
 9423TIP3    H228155   6.459   3.536   3.140
 9424TIP3   OH228156   6.588   3.852   3.569
 9424TIP3    H128157   6.628   3.764   3.586
 9424TIP3    H228158   6.649   3.884   3.499
 9425TIP3   OH228159   6.750   4.029   4.064
 9425TIP3    H128160   6.836   4.053   4.024
 9425TIP3    H228161   6.764   4.064   4.155
 9426TIP3   OH228162   6.820   4.171   4.297
 9426TIP3    H128163   6.742   4.206   4.345
 9426TIP3    H228164   6.853   4.251   4.251
 9427TIP3   OH228165   5.430   3.890   5.084
 9427TIP3    H128166   5.527   3.894   5.092
 9427TIP3    H228167   5.411   3.808   5.134
 9428TIP3   OH228168   7.262   3.760   4.852
 9428TIP3    H128169   7.328   3.696   4.815
 9428TIP3    H228170   7.242   3.816   4.774
 9429TIP3   OH228171   6.697   3.603   3.608
 9429TIP3    H128172   6.746   3.587   3.691
 9429TIP3    H228173   6.637   3.525   3.607
 9430TIP3   OH228174   5.398   3.589   4.426
 9430TIP3    H128175   5.461   3.516   4.437
 9430TIP3    H228176   5.458   3.665   4.421
 9431TIP3   OH228177   5.200   3.860   4.501
 9431TIP3    H128178   5.252   3.862   4.418
 9431TIP3    H228179   5.220   3.947   4.539
 9432TIP3   OH228180   7.141   3.903   4.653
 9432TIP3    H128181   7.052   3.941   4.668
 9432TIP3    H228182   7.116   3.826   4.598
 9433TIP3   OH228183   6.777   3.539   3.238
 9433TIP3    H128184   6.818   3.465   3.189
 9433TIP3    H228185   6.847   3.607   3.235
 9434TIP3   OH228186   5.183   3.361   3.998
 9434TIP3    H128187   5.091   3.363   4.029
 9434TIP3    H228188   5.181   3.423   3.922
 9435TIP3   OH228189   6.344   5.069   3.503
 9435TIP3    H128190   6.403   5.064   3.425
 9435TIP3    H228191   6.391   5.131   3.561
 9436TIP3   OH228192   5.402   3.441   4.814
 9436TIP3    H128193   5.354   3.443   4.898
 9436TIP3    H228194   5.338   3.484   4.754
 9437TIP3   OH228195   7.041   3.664   4.537
 9437TIP3    H128196   6.950   3.653   4.504
 9437TIP3    H228197   7.075   3.572   4.526
 9438TIP3   OH228198   5.297   5.171   4.450
 9438TIP3    H128199   5.211   5.209   4.421
 9438TIP3    H228200   5.277   5.158   4.543
 9439TIP3   OH228201   5.533   5.166   4.311
 9439TIP3    H128202   5.444   5.170   4.352
 9439TIP3    H228203   5.514   5.192   4.219
 9440TIP3   OH228204   5.976   5.179   4.074
 9440TIP3    H128205   5.890   5.210   4.045
 9440TIP3    H228206   5.997   5.239   4.147
 9441TIP3   OH228207   5.210   4.963   4.202
 9441TIP3    H128208   5.243   4.957   4.293
 9441TIP3    H228209   5.279   4.912   4.154
 9442TIP3   OH228210   5.402   4.827   4.066
 9442TIP3    H128211   5.419   4.743   4.115
 9442TIP3    H228212   5.493   4.862   4.058
 9443TIP3   OH228213   5.665   4.922   4.062
 9443TIP3    H128214   5.702   4.832   4.057
 9443TIP3    H228215   5.708   4.955   4.142
 9444TIP3   OH228216   6.241   3.577   4.149
 9444TIP3    H128217   6.203   3.507   4.204
 9444TIP3    H228218   6.319   3.533   4.109
 9445TIP3   OH228219   6.765   3.469   4.060
 9445TIP3    H128220   6.802   3.511   3.979
 9445TIP3    H228221   6.670   3.481   4.048
 9446TIP3   OH228222   6.864   3.564   3.823
 9446TIP3    H128223   6.936   3.509   3.787
 9446TIP3    H228224   6.900   3.654   3.807
 9447TIP3   OH228225   5.495   3.288   4.171
 9447TIP3    H128226   5.402   3.255   4.173
 9447TIP3    H228227   5.544   3.204   4.168
 9448TIP3   OH228228   5.281   3.157   3.821
 9448TIP3    H128229   5.311   3.215   3.748
 9448TIP3    H228230   5.252   3.223   3.887
 9449TIP3   OH228231   5.937   3.321   4.054
 9449TIP3    H128232   5.995   3.368   3.992
 9449TIP3    H228233   5.965   3.358   4.139
 9450TIP3   OH228234   6.479   3.466   4.035
 9450TIP3    H128235   6.495   3.423   3.950
 9450TIP3    H228236   6.470   3.387   4.094
 9451TIP3   OH228237   6.514   3.390   3.596
 9451TIP3    H128238   6.427   3.430   3.613
 9451TIP3    H228239   6.506   3.306   3.647
 9452TIP3   OH228240   4.999   4.729   3.597
 9452TIP3    H128241   4.913   4.696   3.564
 9452TIP3    H228242   4.987   4.824   3.580
 9453TIP3   OH228243   5.399   3.316   3.584
 9453TIP3    H128244   5.448   3.255   3.526
 9453TIP3    H228245   5.471   3.371   3.620
 9454TIP3   OH228246   5.910   3.494   3.682
 9454TIP3    H128247   5.971   3.448   3.742
 9454TIP3    H228248   5.931   3.586   3.707
 9455TIP3   OH228249   5.768   4.917   3.180
 9455TIP3    H128250   5.857   4.939   3.145
 9455TIP3    H228251   5.747   4.841   3.121
 9456TIP3   OH228252   6.494   5.030   3.264
 9456TIP3    H128253   6.479   4.935   3.250
 9456TIP3    H228254   6.444   5.068   3.188
 9457TIP3   OH228255   5.702   3.566   5.061
 9457TIP3    H128256   5.668   3.498   5.121
 9457TIP3    H228257   5.796   3.568   5.089
 9458TIP3   OH228258   5.950   3.566   5.182
 9458TIP3    H128259   6.036   3.543   5.142
 9458TIP3    H228260   5.940   3.494   5.248
 9459TIP3   OH228261   5.075   4.756   3.238
 9459TIP3    H128262   5.073   4.776   3.333
 9459TIP3    H228263   5.162   4.714   3.226
 9460TIP3   OH228264   6.777   3.630   4.970
 9460TIP3    H128265   6.796   3.598   5.061
 9460TIP3    H228266   6.865   3.625   4.928
 9461TIP3   OH228267   7.983   4.551   3.227
 9461TIP3    H128268   7.955   4.643   3.209
 9461TIP3    H228269   7.905   4.503   3.196
 9462TIP3   OH228270   7.984   4.549   3.608
 9462TIP3    H128271   8.014   4.530   3.699
 9462TIP3    H228272   7.937   4.466   3.587
 9463TIP3   OH228273   7.279   4.446   3.972
 9463TIP3    H128274   7.308   4.378   4.035
 9463TIP3    H228275   7.353   4.509   3.980
 9464TIP3   OH228276   8.225   4.855   3.292
 9464TIP3    H128277   8.208   4.789   3.360
 9464TIP3    H228278   8.253   4.932   3.345
 9465TIP3   OH228279   7.251   4.857   3.692
 9465TIP3    H128280   7.241   4.760   3.697
 9465TIP3    H228281   7.347   4.865   3.696
 9466TIP3   OH228282   6.959   4.063   3.481
 9466TIP3    H128283   6.910   4.144   3.499
 9466TIP3    H228284   6.888   4.006   3.447
 9467TIP3   OH228285   7.016   4.346   3.655
 9467TIP3    H128286   7.064   4.270   3.694
 9467TIP3    H228287   7.080   4.379   3.591
 9468TIP3   OH228288   7.870   5.319   3.302
 9468TIP3    H128289   7.918   5.243   3.265
 9468TIP3    H228290   7.862   5.296   3.396
 9469TIP3   OH228291   7.779   4.779   3.656
 9469TIP3    H128292   7.819   4.703   3.610
 9469TIP3    H228293   7.861   4.825   3.683
 9470TIP3   OH228294   8.766   4.093   3.645
 9470TIP3    H128295   8.801   4.165   3.703
 9470TIP3    H228296   8.818   4.114   3.564
 9471TIP3   OH228297   8.203   4.273   3.699
 9471TIP3    H128298   8.183   4.195   3.754
 9471TIP3    H228299   8.161   4.252   3.613
 9472TIP3   OH228300   7.531   3.939   3.654
 9472TIP3    H128301   7.509   4.012   3.592
 9472TIP3    H228302   7.482   3.865   3.612
 9473TIP3   OH228303   8.228   4.039   3.276
 9473TIP3    H128304   8.295   3.977   3.306
 9473TIP3    H228305   8.269   4.077   3.196
 9474TIP3   OH228306   7.163   4.142   3.762
 9474TIP3    H128307   7.245   4.122   3.810
 9474TIP3    H228308   7.176   4.085   3.683
 9475TIP3   OH228309   7.604   4.340   3.552
 9475TIP3    H128310   7.697   4.315   3.569
 9475TIP3    H228311   7.565   4.255   3.523
 9476TIP3   OH228312   8.858   4.297   3.825
 9476TIP3    H128313   8.782   4.356   3.806
 9476TIP3    H228314   8.883   4.328   3.914
 9477TIP3   OH228315   7.527   3.922   4.089
 9477TIP3    H128316   7.466   3.959   4.023
 9477TIP3    H228317   7.476   3.939   4.171
 9478TIP3   OH228318   7.874   4.774   3.097
 9478TIP3    H128319   7.830   4.755   3.013
 9478TIP3    H228320   7.830   4.858   3.122
 9479TIP3   OH228321   7.627   4.702   3.888
 9479TIP3    H128322   7.565   4.767   3.929
 9479TIP3    H228323   7.671   4.756   3.820
 9480TIP3   OH228324   7.397   4.038   3.873
 9480TIP3    H128325   7.459   4.110   3.897
 9480TIP3    H228326   7.447   3.997   3.799
 9481TIP3   OH228327   7.444   4.894   3.993
 9481TIP3    H128328   7.413   4.980   3.960
 9481TIP3    H228329   7.379   4.878   4.063
 9482TIP3   OH228330   6.859   4.583   3.220
 9482TIP3    H128331   6.818   4.614   3.138
 9482TIP3    H228332   6.890   4.667   3.260
 9483TIP3   OH228333   8.294   5.097   3.456
 9483TIP3    H128334   8.206   5.088   3.498
 9483TIP3    H228335   8.285   5.185   3.413
 9484TIP3   OH228336   7.881   3.640   3.807
 9484TIP3    H128337   7.867   3.545   3.826
 9484TIP3    H228338   7.803   3.679   3.853
 9485TIP3   OH228339   7.996   5.142   3.131
 9485TIP3    H128340   8.048   5.061   3.110
 9485TIP3    H228341   8.056   5.209   3.091
 9486TIP3   OH228342   8.141   4.928   3.039
 9486TIP3    H128343   8.099   4.849   3.004
 9486TIP3    H228344   8.177   4.895   3.124
 9487TIP3   OH228345   8.520   5.011   3.802
 9487TIP3    H128346   8.508   4.934   3.743
 9487TIP3    H228347   8.502   5.086   3.741
 9488TIP3   OH228348   7.811   4.403   3.060
 9488TIP3    H128349   7.731   4.455   3.038
 9488TIP3    H228350   7.857   4.401   2.974
 9489TIP3   OH228351   7.770   4.190   2.774
 9489TIP3    H128352   7.838   4.241   2.823
 9489TIP3    H228353   7.828   4.126   2.727
 9490TIP3   OH228354   8.716   4.646   3.646
 9490TIP3    H128355   8.633   4.699   3.653
 9490TIP3    H228356   8.746   4.673   3.556
 9491TIP3   OH228357   8.160   4.487   3.029
 9491TIP3    H128358   8.104   4.511   3.107
 9491TIP3    H228359   8.244   4.464   3.074
 9492TIP3   OH228360   8.395   4.528   3.944
 9492TIP3    H128361   8.394   4.609   3.999
 9492TIP3    H228362   8.308   4.536   3.900
 9493TIP3   OH228363   7.392   4.485   3.447
 9493TIP3    H128364   7.352   4.426   3.380
 9493TIP3    H228365   7.469   4.431   3.477
 9494TIP3   OH228366   7.525   4.901   3.595
 9494TIP3    H128367   7.505   4.854   3.513
 9494TIP3    H228368   7.614   4.865   3.616
 9495TIP3   OH228369   7.531   4.456   3.801
 9495TIP3    H128370   7.565   4.438   3.711
 9495TIP3    H228371   7.571   4.543   3.823
 9496TIP3   OH228372   8.056   5.092   3.580
 9496TIP3    H128373   8.039   5.173   3.631
 9496TIP3    H228374   8.037   5.021   3.645
 9497TIP3   OH228375   7.649   5.032   4.129
 9497TIP3    H128376   7.594   5.113   4.144
 9497TIP3    H228377   7.582   4.975   4.087
 9498TIP3   OH228378   8.000   4.344   2.857
 9498TIP3    H128379   8.058   4.404   2.908
 9498TIP3    H228380   8.026   4.367   2.764
 9499TIP3   OH228381   7.419   4.566   4.217
 9499TIP3    H128382   7.428   4.652   4.262
 9499TIP3    H228383   7.325   4.547   4.236
 9500TIP3   OH228384   7.744   5.023   3.130
 9500TIP3    H128385   7.825   5.076   3.148
 9500TIP3    H228386   7.683   5.090   3.096
 9501TIP3   OH228387   8.515   3.587   2.906
 9501TIP3    H128388   8.432   3.606   2.954
 9501TIP3    H228389   8.527   3.669   2.853
 9502TIP3   OH228390   7.260   4.327   3.251
 9502TIP3    H128391   7.190   4.368   3.195
 9502TIP3    H228392   7.222   4.240   3.269
 9503TIP3   OH228393   8.315   4.953   2.454
 9503TIP3    H128394   8.324   5.049   2.439
 9503TIP3    H228395   8.408   4.923   2.441
 9504TIP3   OH228396   7.023   4.709   4.162
 9504TIP3    H128397   6.968   4.681   4.088
 9504TIP3    H228398   7.078   4.630   4.181
 9505TIP3   OH228399   6.893   4.910   3.779
 9505TIP3    H128400   6.987   4.892   3.794
 9505TIP3    H228401   6.874   4.981   3.842
 9506TIP3   OH228402   8.757   5.356   3.849
 9506TIP3    H128403   8.757   5.260   3.866
 9506TIP3    H228404   8.675   5.382   3.895
 9507TIP3   OH228405   7.876   5.132   4.001
 9507TIP3    H128406   7.867   5.229   4.014
 9507TIP3    H228407   7.791   5.103   4.039
 9508TIP3   OH228408   7.623   5.270   2.934
 9508TIP3    H128409   7.578   5.253   2.849
 9508TIP3    H228410   7.591   5.359   2.958
 9509TIP3   OH228411   7.061   5.120   3.321
 9509TIP3    H128412   7.114   5.113   3.404
 9509TIP3    H228413   7.005   5.041   3.329
 9510TIP3   OH228414   7.825   5.171   2.575
 9510TIP3    H128415   7.884   5.102   2.539
 9510TIP3    H228416   7.860   5.181   2.666
 9511TIP3   OH228417   7.876   5.220   2.845
 9511TIP3    H128418   7.788   5.228   2.888
 9511TIP3    H228419   7.928   5.181   2.917
 9512TIP3   OH228420   8.651   4.489   4.124
 9512TIP3    H128421   8.565   4.498   4.080
 9512TIP3    H228422   8.665   4.392   4.121
 9513TIP3   OH228423   7.642   3.719   3.931
 9513TIP3    H128424   7.553   3.687   3.905
 9513TIP3    H228425   7.616   3.799   3.981
 9514TIP3   OH228426   8.179   3.836   4.123
 9514TIP3    H128427   8.246   3.812   4.189
 9514TIP3    H228428   8.095   3.819   4.170
 9515TIP3   OH228429   8.417   4.264   4.044
 9515TIP3    H128430   8.368   4.256   4.129
 9515TIP3    H228431   8.390   4.352   4.012
 9516TIP3   OH228432   8.077   4.392   2.602
 9516TIP3    H128433   8.042   4.367   2.515
 9516TIP3    H228434   8.159   4.438   2.577
 9517TIP3   OH228435   7.789   3.766   2.903
 9517TIP3    H128436   7.755   3.763   2.995
 9517TIP3    H228437   7.749   3.683   2.869
 9518TIP3   OH228438   7.576   4.233   3.951
 9518TIP3    H128439   7.526   4.253   4.033
 9518TIP3    H228440   7.560   4.315   3.898
 9519TIP3   OH228441   7.458   4.120   3.464
 9519TIP3    H128442   7.366   4.092   3.484
 9519TIP3    H228443   7.471   4.078   3.376
 9520TIP3   OH228444   7.950   4.204   3.193
 9520TIP3    H128445   7.897   4.276   3.152
 9520TIP3    H228446   8.004   4.175   3.117
 9521TIP3   OH228447   8.124   4.484   4.277
 9521TIP3    H128448   8.100   4.412   4.339
 9521TIP3    H228449   8.217   4.499   4.301
 9522TIP3   OH228450   8.107   4.234   3.437
 9522TIP3    H128451   8.045   4.271   3.372
 9522TIP3    H228452   8.137   4.155   3.386
 9523TIP3   OH228453   7.394   4.261   4.159
 9523TIP3    H128454   7.418   4.327   4.226
 9523TIP3    H228455   7.384   4.180   4.213
 9524TIP3   OH228456   7.445   3.741   2.869
 9524TIP3    H128457   7.436   3.737   2.966
 9524TIP3    H228458   7.365   3.791   2.845
 9525TIP3   OH228459   6.988   3.788   3.736
 9525TIP3    H128460   7.063   3.816   3.793
 9525TIP3    H228461   7.030   3.748   3.659
 9526TIP3   OH228462   6.958   3.764   3.259
 9526TIP3    H128463   7.005   3.802   3.182
 9526TIP3    H228464   6.898   3.837   3.280
 9527TIP3   OH228465   8.116   4.480   3.851
 9527TIP3    H128466   8.156   4.410   3.795
 9527TIP3    H228467   8.088   4.426   3.928
 9528TIP3   OH228468   7.785   3.952   3.526
 9528TIP3    H128469   7.704   3.944   3.581
 9528TIP3    H228470   7.855   3.928   3.589
 9529TIP3   OH228471   7.221   3.998   3.533
 9529TIP3    H128472   7.127   4.004   3.507
 9529TIP3    H228473   7.243   3.905   3.513
 9530TIP3   OH228474   7.489   3.994   3.223
 9530TIP3    H128475   7.583   4.008   3.200
 9530TIP3    H228476   7.442   4.016   3.139
 9531TIP3   OH228477   7.331   4.030   3.001
 9531TIP3    H128478   7.260   3.983   2.954
 9531TIP3    H228479   7.383   4.064   2.926
 9532TIP3   OH228480   8.449   5.706   3.949
 9532TIP3    H128481   8.448   5.730   3.854
 9532TIP3    H228482   8.529   5.753   3.980
 9533TIP3   OH228483   7.415   4.793   4.369
 9533TIP3    H128484   7.489   4.831   4.422
 9533TIP3    H228485   7.347   4.782   4.436
 9534TIP3   OH228486   7.868   4.273   3.629
 9534TIP3    H128487   7.929   4.217   3.579
 9534TIP3    H228488   7.866   4.230   3.717
 9535TIP3   OH228489   7.390   3.756   3.505
 9535TIP3    H128490   7.354   3.679   3.553
 9535TIP3    H228491   7.441   3.713   3.434
 9536TIP3   OH228492   7.847   4.175   3.904
 9536TIP3    H128493   7.756   4.205   3.925
 9536TIP3    H228494   7.902   4.231   3.962
 9537TIP3   OH228495   7.581   4.557   3.007
 9537TIP3    H128496   7.509   4.491   2.997
 9537TIP3    H228497   7.564   4.590   3.098
 9538TIP3   OH228498   8.484   4.792   3.637
 9538TIP3    H128499   8.507   4.843   3.556
 9538TIP3    H228500   8.397   4.753   3.613
 9539TIP3   OH228501   8.040   3.867   2.876
 9539TIP3    H128502   7.943   3.849   2.880
 9539TIP3    H228503   8.047   3.963   2.895
 9540TIP3   OH228504   7.982   4.876   4.006
 9540TIP3    H128505   8.004   4.859   4.099
 9540TIP3    H228506   7.944   4.966   4.012
 9541TIP3   OH228507   8.111   4.118   2.976
 9541TIP3    H128508   8.208   4.126   2.984
 9541TIP3    H228509   8.088   4.197   2.922
 9542TIP3   OH228510   7.273   4.579   3.684
 9542TIP3    H128511   7.315   4.548   3.601
 9542TIP3    H228512   7.314   4.520   3.750
 9543TIP3   OH228513   7.728   4.706   2.829
 9543TIP3    H128514   7.680   4.792   2.835
 9543TIP3    H228515   7.674   4.650   2.890
 9544TIP3   OH228516   7.160   4.501   4.296
 9544TIP3    H128517   7.188   4.492   4.389
 9544TIP3    H228518   7.089   4.435   4.289
 9545TIP3   OH228519   7.881   4.614   4.318
 9545TIP3    H128520   7.821   4.553   4.272
 9545TIP3    H228521   7.968   4.581   4.290
 9546TIP3   OH228522   8.143   5.134   3.902
 9546TIP3    H128523   8.047   5.131   3.920
 9546TIP3    H228524   8.172   5.186   3.980
 9547TIP3   OH228525   8.551   4.208   2.811
 9547TIP3    H128526   8.489   4.163   2.748
 9547TIP3    H228527   8.548   4.297   2.770
 9548TIP3   OH228528   8.770   5.063   3.892
 9548TIP3    H128529   8.672   5.060   3.884
 9548TIP3    H228530   8.795   5.035   3.802
 9549TIP3   OH228531   8.252   5.027   2.719
 9549TIP3    H128532   8.227   4.957   2.781
 9549TIP3    H228533   8.264   4.978   2.635
 9550TIP3   OH228534   8.248   4.656   3.554
 9550TIP3    H128535   8.155   4.632   3.569
 9550TIP3    H228536   8.281   4.576   3.509
 9551TIP3   OH228537   7.376   4.881   3.305
 9551TIP3    H128538   7.377   4.964   3.254
 9551TIP3    H228539   7.282   4.869   3.322
 9552TIP3   OH228540   6.938   4.188   3.012
 9552TIP3    H128541   6.986   4.270   3.037
 9552TIP3    H228542   6.863   4.191   3.075
 9553TIP3   OH228543   7.513   4.647   3.251
 9553TIP3    H128544   7.479   4.737   3.271
 9553TIP3    H228545   7.479   4.597   3.327
 9554TIP3   OH228546   7.293   5.124   3.159
 9554TIP3    H128547   7.208   5.132   3.208
 9554TIP3    H228548   7.326   5.216   3.165
 9555TIP3   OH228549   8.031   4.858   3.739
 9555TIP3    H128550   8.019   4.861   3.836
 9555TIP3    H228551   8.115   4.812   3.732
 9556TIP3   OH228552   8.008   4.755   2.620
 9556TIP3    H128553   8.062   4.730   2.698
 9556TIP3    H228554   7.920   4.727   2.650
 9557TIP3   OH228555   8.282   5.392   3.787
 9557TIP3    H128556   8.203   5.335   3.782
 9557TIP3    H228557   8.264   5.457   3.716
 9558TIP3   OH228558   8.348   5.229   2.439
 9558TIP3    H128559   8.387   5.303   2.390
 9558TIP3    H228560   8.267   5.273   2.473
 9559TIP3   OH228561   7.368   4.005   4.305
 9559TIP3    H128562   7.271   4.006   4.318
 9559TIP3    H228563   7.396   3.946   4.377
 9560TIP3   OH228564   8.168   4.687   2.834
 9560TIP3    H128565   8.158   4.621   2.906
 9560TIP3    H228566   8.266   4.685   2.823
 9561TIP3   OH228567   7.370   4.734   2.620
 9561TIP3    H128568   7.389   4.643   2.592
 9561TIP3    H228569   7.353   4.722   2.715
 9562TIP3   OH228570   7.315   4.739   2.895
 9562TIP3    H128571   7.390   4.710   2.949
 9562TIP3    H228572   7.322   4.837   2.901
 9563TIP3   OH228573   7.053   4.430   3.095
 9563TIP3    H128574   6.990   4.476   3.154
 9563TIP3    H228575   7.072   4.501   3.031
 9564TIP3   OH228576   8.218   4.064   3.959
 9564TIP3    H128577   8.285   4.109   4.012
 9564TIP3    H228578   8.196   3.987   4.015
 9565TIP3   OH228579   8.085   3.821   3.151
 9565TIP3    H128580   8.066   3.836   3.056
 9565TIP3    H228581   8.112   3.910   3.180
 9566TIP3   OH228582   7.582   4.934   2.839
 9566TIP3    H128583   7.498   4.963   2.877
 9566TIP3    H228584   7.602   5.008   2.780
 9567TIP3   OH228585   7.774   4.000   3.254
 9567TIP3    H128586   7.837   4.073   3.239
 9567TIP3    H228587   7.776   3.993   3.353
 9568TIP3   OH228588   8.049   4.319   4.063
 9568TIP3    H128589   8.061   4.381   4.138
 9568TIP3    H228590   8.100   4.243   4.093
 9569TIP3   OH228591   7.916   3.726   3.355
 9569TIP3    H128592   7.914   3.800   3.420
 9569TIP3    H228593   7.976   3.763   3.287
 9570TIP3   OH228594   7.327   5.013   2.908
 9570TIP3    H128595   7.298   5.084   2.847
 9570TIP3    H228596   7.313   5.055   2.995
 9571TIP3   OH228597   7.429   3.726   3.145
 9571TIP3    H128598   7.426   3.815   3.185
 9571TIP3    H228599   7.525   3.707   3.154
 9572TIP3   OH228600   8.683   4.222   4.044
 9572TIP3    H128601   8.584   4.219   4.049
 9572TIP3    H228602   8.699   4.205   3.950
 9573TIP3   OH228603   8.337   4.409   3.431
 9573TIP3    H128604   8.256   4.357   3.449
 9573TIP3    H228605   8.402   4.363   3.486
 9574TIP3   OH228606   7.043   4.644   2.894
 9574TIP3    H128607   7.114   4.709   2.910
 9574TIP3    H228608   7.092   4.584   2.834
 9575TIP3   OH228609   6.992   3.918   3.034
 9575TIP3    H128610   6.989   4.016   3.030
 9575TIP3    H228611   6.909   3.892   2.992
 9576TIP3   OH228612   8.302   5.369   3.379
 9576TIP3    H128613   8.260   5.416   3.304
 9576TIP3    H228614   8.397   5.388   3.359
 9577TIP3   OH228615   7.379   3.637   3.906
 9577TIP3    H128616   7.347   3.602   3.821
 9577TIP3    H228617   7.369   3.560   3.966
 9578TIP3   OH228618   6.914   4.851   3.285
 9578TIP3    H128619   6.852   4.887   3.350
 9578TIP3    H228620   6.889   4.899   3.203
 9579TIP3   OH228621   7.564   5.362   4.377
 9579TIP3    H128622   7.647   5.314   4.383
 9579TIP3    H228623   7.526   5.325   4.294
 9580TIP3   OH228624   7.536   4.938   2.531
 9580TIP3    H128625   7.482   4.866   2.571
 9580TIP3    H228626   7.612   4.887   2.498
 9581TIP3   OH228627   8.200   5.268   4.134
 9581TIP3    H128628   8.188   5.199   4.204
 9581TIP3    H228629   8.275   5.320   4.169
 9582TIP3   OH228630   7.973   4.978   2.444
 9582TIP3    H128631   8.015   4.914   2.503
 9582TIP3    H228632   8.030   4.976   2.365
 9583TIP3   OH228633   7.181   4.454   2.755
 9583TIP3    H128634   7.236   4.419   2.827
 9583TIP3    H228635   7.248   4.459   2.683
 9584TIP3   OH228636   7.810   4.895   4.332
 9584TIP3    H128637   7.765   4.915   4.248
 9584TIP3    H228638   7.839   4.802   4.322
 9585TIP3   OH228639   7.690   4.653   2.561
 9585TIP3    H128640   7.695   4.666   2.658
 9585TIP3    H228641   7.693   4.555   2.555
 9586TIP3   OH228642   8.304   4.897   3.937
 9586TIP3    H128643   8.378   4.945   3.896
 9586TIP3    H228644   8.232   4.963   3.928
 9587TIP3   OH228645   7.333   4.509   4.534
 9587TIP3    H128646   7.424   4.479   4.524
 9587TIP3    H228647   7.339   4.564   4.615
 9588TIP3   OH228648   7.386   4.359   2.974
 9588TIP3    H128649   7.363   4.318   3.058
 9588TIP3    H228650   7.425   4.284   2.924
 9589TIP3   OH228651   7.659   4.424   4.203
 9589TIP3    H128652   7.581   4.482   4.204
 9589TIP3    H228653   7.708   4.457   4.124
 9590TIP3   OH228654   7.491   4.154   2.815
 9590TIP3    H128655   7.465   4.156   2.721
 9590TIP3    H228656   7.589   4.157   2.808
 9591TIP3   OH228657   8.174   4.824   4.337
 9591TIP3    H128658   8.257   4.801   4.294
 9591TIP3    H228659   8.170   4.758   4.409
 9592TIP3   OH228660   8.312   4.483   2.480
 9592TIP3    H128661   8.291   4.437   2.396
 9592TIP3    H228662   8.279   4.573   2.457
 9593TIP3   OH228663   7.779   4.213   4.332
 9593TIP3    H128664   7.781   4.133   4.276
 9593TIP3    H228665   7.736   4.278   4.273
 9594TIP3   OH228666   7.785   4.000   4.135
 9594TIP3    H128667   7.811   4.037   4.049
 9594TIP3    H228668   7.691   3.975   4.119
 9595TIP3   OH228669   7.810   4.531   4.005
 9595TIP3    H128670   7.895   4.548   3.962
 9595TIP3    H228671   7.753   4.600   3.965
 9596TIP3   OH228672   8.392   4.498   4.390
 9596TIP3    H128673   8.440   4.416   4.410
 9596TIP3    H228674   8.463   4.556   4.360
 9597TIP3   OH228675   8.435   4.751   4.123
 9597TIP3    H128676   8.376   4.806   4.066
 9597TIP3    H228677   8.523   4.774   4.084
 9598TIP3   OH228678   7.655   4.324   4.563
 9598TIP3    H128679   7.590   4.252   4.575
 9598TIP3    H228680   7.694   4.300   4.476
 9599TIP3   OH228681   7.918   3.761   4.199
 9599TIP3    H128682   7.867   3.843   4.181
 9599TIP3    H228683   7.848   3.693   4.192
 9600TIP3   OH228684   8.042   4.269   4.419
 9600TIP3    H128685   8.040   4.245   4.514
 9600TIP3    H228686   7.951   4.242   4.394
 9601TIP3   OH228687   8.279   4.209   4.270
 9601TIP3    H128688   8.205   4.212   4.334
 9601TIP3    H228689   8.354   4.181   4.327
 9602TIP3   OH228690   8.507   4.157   4.422
 9602TIP3    H128691   8.521   4.061   4.440
 9602TIP3    H228692   8.505   4.195   4.512
 9603TIP3   OH228693   7.499   4.101   4.615
 9603TIP3    H128694   7.506   4.010   4.580
 9603TIP3    H228695   7.541   4.088   4.703
 9604TIP3   OH228696   8.010   3.773   4.461
 9604TIP3    H128697   8.075   3.701   4.462
 9604TIP3    H228698   7.973   3.763   4.372
 9605TIP3   OH228699   8.094   4.008   4.587
 9605TIP3    H128700   8.068   3.921   4.549
 9605TIP3    H228701   8.007   4.047   4.607
 9606TIP3   OH228702   7.298   5.215   2.719
 9606TIP3    H128703   7.394   5.208   2.702
 9606TIP3    H228704   7.272   5.266   2.640
 9607TIP3   OH228705   6.776   4.596   2.936
 9607TIP3    H128706   6.871   4.618   2.925
 9607TIP3    H228707   6.774   4.505   2.900
 9608TIP3   OH228708   6.694   5.207   3.351
 9608TIP3    H128709   6.627   5.146   3.313
 9608TIP3    H228710   6.736   5.149   3.417
 9609TIP3   OH228711   6.829   5.055   3.536
 9609TIP3    H128712   6.820   4.984   3.602
 9609TIP3    H228713   6.883   5.118   3.587
 9610TIP3   OH228714   8.556   5.461   3.337
 9610TIP3    H128715   8.581   5.490   3.427
 9610TIP3    H228716   8.621   5.505   3.282
 9611TIP3   OH228717   8.586   5.480   3.618
 9611TIP3    H128718   8.541   5.393   3.616
 9611TIP3    H228719   8.659   5.458   3.679
 9612TIP3   OH228720   8.631   5.157   4.191
 9612TIP3    H128721   8.559   5.166   4.257
 9612TIP3    H228722   8.674   5.244   4.197
 9613TIP3   OH228723   8.448   4.670   2.812
 9613TIP3    H128724   8.515   4.735   2.783
 9613TIP3    H228725   8.492   4.631   2.891
 9614TIP3   OH228726   8.577   4.537   3.015
 9614TIP3    H128727   8.509   4.497   3.074
 9614TIP3    H228728   8.640   4.577   3.079
 9615TIP3   OH228729   8.630   4.930   3.448
 9615TIP3    H128730   8.683   4.866   3.397
 9615TIP3    H228731   8.622   5.004   3.385
 9616TIP3   OH228732   8.459   5.230   3.642
 9616TIP3    H128733   8.389   5.272   3.696
 9616TIP3    H228734   8.407   5.183   3.573
 9617TIP3   OH228735   8.513   4.445   2.663
 9617TIP3    H128736   8.442   4.447   2.595
 9617TIP3    H228737   8.485   4.521   2.718
 9618TIP3   OH228738   8.383   4.119   2.618
 9618TIP3    H128739   8.342   4.156   2.539
 9618TIP3    H228740   8.359   4.024   2.609
 9619TIP3   OH228741   8.389   4.396   3.161
 9619TIP3    H128742   8.395   4.300   3.153
 9619TIP3    H228743   8.374   4.409   3.257
 9620TIP3   OH228744   7.015   4.471   3.907
 9620TIP3    H128745   7.014   4.437   3.815
 9620TIP3    H228746   7.112   4.470   3.925
 9621TIP3   OH228747   8.679   4.819   4.018
 9621TIP3    H128748   8.751   4.754   4.008
 9621TIP3    H228749   8.707   4.892   3.960
 9622TIP3   OH228750   8.864   4.623   4.026
 9622TIP3    H128751   8.790   4.575   4.070
 9622TIP3    H228752   8.937   4.560   4.046
 9623TIP3   OH228753   8.325   3.854   2.605
 9623TIP3    H128754   8.400   3.819   2.658
 9623TIP3    H228755   8.252   3.793   2.624
 9624TIP3   OH228756   8.388   4.113   3.056
 9624TIP3    H128757   8.427   4.023   3.068
 9624TIP3    H228758   8.445   4.146   2.985
 9625TIP3   OH228759   8.546   4.260   3.566
 9625TIP3    H128760   8.624   4.296   3.517
 9625TIP3    H228761   8.553   4.317   3.646
 9626TIP3   OH228762   8.612   4.428   3.781
 9626TIP3    H128763   8.537   4.462   3.835
 9626TIP3    H228764   8.646   4.510   3.740
 9627TIP3   OH228765   7.232   4.155   4.585
 9627TIP3    H128766   7.330   4.149   4.586
 9627TIP3    H228767   7.209   4.069   4.624
 9628TIP3   OH228768   9.105   4.040   4.342
 9628TIP3    H128769   9.125   3.952   4.307
 9628TIP3    H228770   9.041   4.073   4.276
 9629TIP3   OH228771   8.488   3.861   3.103
 9629TIP3    H128772   8.545   3.832   3.177
 9629TIP3    H228773   8.430   3.782   3.094
 9630TIP3   OH228774   7.194   3.846   3.913
 9630TIP3    H128775   7.255   3.770   3.924
 9630TIP3    H228776   7.257   3.920   3.907
 9631TIP3   OH228777   6.996   4.119   3.986
 9631TIP3    H128778   7.047   4.116   3.903
 9631TIP3    H228779   7.025   4.203   4.024
 9632TIP3   OH228780   8.943   4.156   4.148
 9632TIP3    H128781   8.859   4.188   4.189
 9632TIP3    H228782   8.908   4.082   4.096
 9633TIP3   OH228783   8.574   3.794   2.729
 9633TIP3    H128784   8.612   3.722   2.674
 9633TIP3    H228785   8.641   3.864   2.720
 9634TIP3   OH228786   6.981   3.624   3.489
 9634TIP3    H128787   6.888   3.619   3.517
 9634TIP3    H228788   6.976   3.682   3.410
 9635TIP3   OH228789   8.137   5.328   2.993
 9635TIP3    H128790   8.191   5.315   2.912
 9635TIP3    H228791   8.191   5.391   3.043
 9636TIP3   OH228792   7.201   3.706   4.304
 9636TIP3    H128793   7.149   3.697   4.385
 9636TIP3    H228794   7.133   3.741   4.243
 9637TIP3   OH228795   7.876   5.406   4.064
 9637TIP3    H128796   7.914   5.406   4.154
 9637TIP3    H228797   7.940   5.460   4.014
 9638TIP3   OH228798   8.044   5.567   3.917
 9638TIP3    H128799   8.114   5.507   3.885
 9638TIP3    H228800   8.094   5.622   3.981
 9639TIP3   OH228801   8.846   3.912   4.016
 9639TIP3    H128802   8.751   3.890   4.015
 9639TIP3    H228803   8.884   3.822   4.009
 9640TIP3   OH228804   7.778   5.453   3.575
 9640TIP3    H128805   7.690   5.457   3.535
 9640TIP3    H228806   7.772   5.519   3.646
 9641TIP3   OH228807   8.029   5.365   3.654
 9641TIP3    H128808   7.934   5.382   3.634
 9641TIP3    H228809   8.069   5.445   3.618
 9642TIP3   OH228810   8.237   5.561   3.573
 9642TIP3    H128811   8.221   5.644   3.524
 9642TIP3    H228812   8.260   5.498   3.501
 9643TIP3   OH228813   7.007   5.215   3.690
 9643TIP3    H128814   7.046   5.218   3.778
 9643TIP3    H228815   7.079   5.168   3.641
 9644TIP3   OH228816   7.201   5.084   3.550
 9644TIP3    H128817   7.216   4.999   3.598
 9644TIP3    H228818   7.292   5.120   3.545
 9645TIP3   OH228819   7.463   5.179   3.553
 9645TIP3    H128820   7.501   5.088   3.553
 9645TIP3    H228821   7.493   5.210   3.640
 9646TIP3   OH228822   8.014   3.826   3.627
 9646TIP3    H128823   7.985   3.767   3.699
 9646TIP3    H228824   8.102   3.791   3.605
 9647TIP3   OH228825   8.544   3.827   3.564
 9647TIP3    H128826   8.597   3.801   3.484
 9647TIP3    H228827   8.466   3.767   3.550
 9648TIP3   OH228828   8.661   3.814   3.321
 9648TIP3    H128829   8.729   3.757   3.279
 9648TIP3    H228830   8.698   3.902   3.295
 9649TIP3   OH228831   7.290   3.544   3.657
 9649TIP3    H128832   7.198   3.510   3.662
 9649TIP3    H228833   7.339   3.459   3.656
 9650TIP3   OH228834   7.072   3.416   3.305
 9650TIP3    H128835   7.105   3.474   3.235
 9650TIP3    H228836   7.048   3.480   3.375
 9651TIP3   OH228837   7.734   3.578   3.539
 9651TIP3    H128838   7.795   3.628   3.482
 9651TIP3    H228839   7.755   3.613   3.627
 9652TIP3   OH228840   8.289   3.722   3.514
 9652TIP3    H128841   8.268   3.678   3.431
 9652TIP3    H228842   8.271   3.649   3.578
 9653TIP3   OH228843   8.311   3.647   3.088
 9653TIP3    H128844   8.222   3.687   3.096
 9653TIP3    H228845   8.296   3.560   3.132
 9654TIP3   OH228846   6.794   4.992   3.085
 9654TIP3    H128847   6.704   4.961   3.072
 9654TIP3    H228848   6.784   5.087   3.065
 9655TIP3   OH228849   7.195   3.576   3.068
 9655TIP3    H128850   7.242   3.511   3.013
 9655TIP3    H228851   7.269   3.628   3.105
 9656TIP3   OH228852   7.706   3.750   3.168
 9656TIP3    H128853   7.762   3.701   3.230
 9656TIP3    H228854   7.729   3.842   3.195
 9657TIP3   OH228855   7.565   5.174   2.668
 9657TIP3    H128856   7.654   5.196   2.633
 9657TIP3    H228857   7.544   5.098   2.609
 9658TIP3   OH228858   8.286   5.293   2.762
 9658TIP3    H128859   8.277   5.195   2.750
 9658TIP3    H228860   8.241   5.325   2.681
 9659TIP3   OH228861   7.506   3.826   4.555
 9659TIP3    H128862   7.466   3.756   4.609
 9659TIP3    H228863   7.599   3.820   4.587
 9660TIP3   OH228864   7.755   3.805   4.692
 9660TIP3    H128865   7.832   3.796   4.634
 9660TIP3    H228866   7.784   3.748   4.767
 9661TIP3   OH228867   6.864   5.010   2.732
 9661TIP3    H128868   6.872   5.041   2.823
 9661TIP3    H228869   6.951   4.968   2.715
 9662TIP3   OH228870   8.567   3.888   4.459
 9662TIP3    H128871   8.592   3.851   4.546
 9662TIP3    H228872   8.654   3.897   4.415
 9663TIP3   OH228873   8.512   5.437   3.946
 9663TIP3    H128874   8.432   5.405   3.901
 9663TIP3    H228875   8.491   5.533   3.954
 9664TIP3   OH228876   9.079   4.703   3.457
 9664TIP3    H128877   9.109   4.635   3.519
 9664TIP3    H228878   9.150   4.769   3.464
 9665TIP3   OH228879   9.038   5.115   3.190
 9665TIP3    H128880   9.036   5.017   3.192
 9665TIP3    H228881   9.134   5.130   3.176
 9666TIP3   OH228882   8.752   4.315   2.971
 9666TIP3    H128883   8.704   4.399   2.987
 9666TIP3    H228884   8.682   4.264   2.927
 9667TIP3   OH228885   8.814   4.606   3.144
 9667TIP3    H128886   8.862   4.527   3.180
 9667TIP3    H228887   8.871   4.632   3.071
 9668TIP3   OH228888   9.553   5.518   2.818
 9668TIP3    H128889   9.636   5.533   2.768
 9668TIP3    H228890   9.588   5.515   2.908
 9669TIP3   OH228891   9.523   5.047   3.139
 9669TIP3    H128892   9.534   4.991   3.060
 9669TIP3    H228893   9.617   5.052   3.167
 9670TIP3   OH228894   9.309   4.199   3.154
 9670TIP3    H128895   9.311   4.264   3.080
 9670TIP3    H228896   9.280   4.120   3.106
 9671TIP3   OH228897   8.956   4.397   3.250
 9671TIP3    H128898   9.038   4.377   3.300
 9671TIP3    H228899   8.973   4.343   3.169
 9672TIP3   OH228900   9.361   4.615   3.029
 9672TIP3    H128901   9.456   4.594   3.044
 9672TIP3    H228902   9.327   4.527   3.000
 9673TIP3   OH228903   9.319   4.189   3.584
 9673TIP3    H128904   9.259   4.219   3.513
 9673TIP3    H228905   9.261   4.199   3.662
 9674TIP3   OH228906   9.401   4.961   3.367
 9674TIP3    H128907   9.345   5.032   3.407
 9674TIP3    H228908   9.443   5.010   3.293
 9675TIP3   OH228909   9.184   4.295   3.369
 9675TIP3    H128910   9.249   4.366   3.389
 9675TIP3    H228911   9.229   4.253   3.291
 9676TIP3   OH228912   9.252   5.159   3.473
 9676TIP3    H128913   9.227   5.247   3.438
 9676TIP3    H228914   9.173   5.141   3.529
 9677TIP3   OH228915   8.651   4.839   2.705
 9677TIP3    H128916   8.610   4.867   2.621
 9677TIP3    H228917   8.682   4.925   2.741
 9678TIP3   OH228918   9.161   4.759   2.920
 9678TIP3    H128919   9.123   4.698   2.853
 9678TIP3    H228920   9.236   4.706   2.954
 9679TIP3   OH228921   9.287   5.170   3.071
 9679TIP3    H128922   9.271   5.128   2.985
 9679TIP3    H228923   9.372   5.130   3.099
 9680TIP3   OH228924   9.338   4.706   3.292
 9680TIP3    H128925   9.347   4.696   3.196
 9680TIP3    H228926   9.359   4.801   3.307
 9681TIP3   OH228927   9.461   5.267   3.623
 9681TIP3    H128928   9.398   5.329   3.666
 9681TIP3    H228929   9.397   5.216   3.569
 9682TIP3   OH228930   9.215   4.821   3.719
 9682TIP3    H128931   9.221   4.910   3.759
 9682TIP3    H228932   9.120   4.804   3.732
 9683TIP3   OH228933   9.511   5.311   2.643
 9683TIP3    H128934   9.512   5.379   2.713
 9683TIP3    H228935   9.451   5.351   2.578
 9684TIP3   OH228936   9.256   5.432   3.701
 9684TIP3    H128937   9.216   5.435   3.613
 9684TIP3    H228938   9.178   5.413   3.758
 9685TIP3   OH228939   9.052   4.581   2.733
 9685TIP3    H128940   8.984   4.625   2.678
 9685TIP3    H228941   9.010   4.496   2.750
 9686TIP3   OH228942   8.834   4.966   3.648
 9686TIP3    H128943   8.767   4.945   3.580
 9686TIP3    H228944   8.871   4.878   3.670
 9687TIP3   OH228945   8.690   5.161   3.277
 9687TIP3    H128946   8.787   5.157   3.271
 9687TIP3    H228947   8.678   5.239   3.334
 9688TIP3   OH228948   9.642   5.398   3.466
 9688TIP3    H128949   9.650   5.491   3.497
 9688TIP3    H228950   9.575   5.362   3.527
 9689TIP3   OH228951   9.405   5.522   2.435
 9689TIP3    H128952   9.377   5.511   2.343
 9689TIP3    H228953   9.390   5.617   2.451
 9690TIP3   OH228954   8.858   5.376   2.806
 9690TIP3    H128955   8.906   5.368   2.891
 9690TIP3    H228956   8.803   5.296   2.808
 9691TIP3   OH228957   9.037   5.151   3.635
 9691TIP3    H128958   9.086   5.137   3.719
 9691TIP3    H228959   8.963   5.087   3.645
 9692TIP3   OH228960   9.427   3.972   3.432
 9692TIP3    H128961   9.341   3.939   3.400
 9692TIP3    H228962   9.401   4.057   3.469
 9693TIP3   OH228963   9.373   4.480   3.437
 9693TIP3    H128964   9.319   4.504   3.515
 9693TIP3    H228965   9.366   4.563   3.384
 9694TIP3   OH228966   9.254   4.374   2.949
 9694TIP3    H128967   9.164   4.343   2.973
 9694TIP3    H228968   9.259   4.342   2.856
 9695TIP3   OH228969   9.193   4.515   3.646
 9695TIP3    H128970   9.198   4.581   3.717
 9695TIP3    H228971   9.176   4.433   3.697
 9696TIP3   OH228972   9.230   4.021   2.358
 9696TIP3    H128973   9.191   3.987   2.440
 9696TIP3    H228974   9.153   4.042   2.304
 9697TIP3   OH228975   8.780   4.037   3.233
 9697TIP3    H128976   8.856   4.072   3.282
 9697TIP3    H228977   8.818   4.010   3.148
 9698TIP3   OH228978   8.756   4.023   2.748
 9698TIP3    H128979   8.798   4.060   2.668
 9698TIP3    H228980   8.693   4.095   2.769
 9699TIP3   OH228981   9.015   4.256   3.021
 9699TIP3    H128982   8.921   4.260   2.993
 9699TIP3    H228983   9.041   4.164   3.001
 9700TIP3   OH228984   9.268   4.280   2.689
 9700TIP3    H128985   9.338   4.292   2.623
 9700TIP3    H228986   9.190   4.286   2.629
 9701TIP3   OH228987   9.100   4.287   2.482
 9701TIP3    H128988   9.036   4.241   2.424
 9701TIP3    H228989   9.166   4.314   2.415
 9702TIP3   OH228990   9.201   5.069   3.851
 9702TIP3    H128991   9.281   5.097   3.901
 9702TIP3    H228992   9.136   5.072   3.924
 9703TIP3   OH228993   9.184   4.017   2.983
 9703TIP3    H128994   9.148   3.942   3.035
 9703TIP3    H228995   9.239   3.971   2.919
 9704TIP3   OH228996   9.337   4.833   2.490
 9704TIP3    H128997   9.283   4.752   2.495
 9704TIP3    H228998   9.360   4.851   2.583
 9705TIP3   OH228999   9.728   5.132   3.502
 9705TIP3    H129000   9.746   5.109   3.594
 9705TIP3    H229001   9.695   5.223   3.508
 9706TIP3   OH229002   9.075   4.841   3.175
 9706TIP3    H129003   9.101   4.812   3.086
 9706TIP3    H229004   9.103   4.768   3.232
 9707TIP3   OH229005   8.955   4.751   3.782
 9707TIP3    H129006   8.972   4.743   3.878
 9707TIP3    H229007   8.881   4.689   3.771
 9708TIP3   OH229008   9.649   4.829   3.823
 9708TIP3    H129009   9.562   4.793   3.796
 9708TIP3    H229010   9.706   4.754   3.802
 9709TIP3   OH229011   9.172   5.138   2.794
 9709TIP3    H129012   9.173   5.219   2.739
 9709TIP3    H229013   9.078   5.122   2.802
 9710TIP3   OH229014   8.736   4.444   2.500
 9710TIP3    H129015   8.781   4.528   2.520
 9710TIP3    H229016   8.659   4.449   2.561
 9711TIP3   OH229017   9.343   4.919   2.771
 9711TIP3    H129018   9.291   5.002   2.763
 9711TIP3    H229019   9.280   4.864   2.821
 9712TIP3   OH229020   9.441   5.481   3.264
 9712TIP3    H129021   9.479   5.555   3.214
 9712TIP3    H229022   9.518   5.449   3.315
 9713TIP3   OH229023   9.091   5.379   2.649
 9713TIP3    H129024   9.006   5.388   2.695
 9713TIP3    H229025   9.124   5.471   2.651
 9714TIP3   OH229026   9.160   4.257   3.800
 9714TIP3    H129027   9.064   4.261   3.812
 9714TIP3    H229028   9.186   4.195   3.871
 9715TIP3   OH229029   8.880   5.346   3.424
 9715TIP3    H129030   8.932   5.272   3.459
 9715TIP3    H229031   8.902   5.415   3.487
 9716TIP3   OH229032   9.173   4.988   2.106
 9716TIP3    H129033   9.191   4.895   2.082
 9716TIP3    H229034   9.157   4.980   2.202
 9717TIP3   OH229035   9.120   4.992   2.378
 9717TIP3    H129036   9.204   4.960   2.416
 9717TIP3    H229037   9.125   5.089   2.392
 9718TIP3   OH229038   8.849   4.690   2.582
 9718TIP3    H129039   8.783   4.735   2.638
 9718TIP3    H229040   8.865   4.759   2.515
 9719TIP3   OH229041   9.373   5.218   2.333
 9719TIP3    H129042   9.284   5.232   2.369
 9719TIP3    H229043   9.385   5.299   2.282
 9720TIP3   OH229044   9.110   5.269   2.395
 9720TIP3    H129045   9.084   5.341   2.333
 9720TIP3    H229046   9.099   5.313   2.482
 9721TIP3   OH229047   9.227   3.988   2.641
 9721TIP3    H129048   9.195   4.068   2.684
 9721TIP3    H229049   9.309   4.023   2.600
 9722TIP3   OH229050   8.843   4.901   2.389
 9722TIP3    H129051   8.915   4.966   2.400
 9722TIP3    H229052   8.886   4.843   2.322
 9723TIP3   OH229053   8.784   4.173   2.525
 9723TIP3    H129054   8.786   4.271   2.518
 9723TIP3    H229055   8.708   4.151   2.471
 9724TIP3   OH229056   9.161   3.895   3.395
 9724TIP3    H129057   9.137   3.860   3.307
 9724TIP3    H229058   9.159   3.814   3.451
 9725TIP3   OH229059   8.713   5.112   2.774
 9725TIP3    H129060   8.645   5.143   2.834
 9725TIP3    H229061   8.684   5.153   2.689
 9726TIP3   OH229062   8.873   5.658   3.847
 9726TIP3    H129063   8.959   5.657   3.893
 9726TIP3    H229064   8.851   5.564   3.846
 9727TIP3   OH229065   9.393   5.639   3.839
 9727TIP3    H129066   9.391   5.615   3.933
 9727TIP3    H229067   9.343   5.566   3.799
 9728TIP3   OH229068   9.319   5.205   2.020
 9728TIP3    H129069   9.269   5.129   2.058
 9728TIP3    H229070   9.411   5.173   2.033
 9729TIP3   OH229071   9.004   5.061   4.043
 9729TIP3    H129072   9.016   4.965   4.053
 9729TIP3    H229073   8.914   5.066   4.005
 9730TIP3   OH229074   8.973   4.712   2.246
 9730TIP3    H129075   9.032   4.682   2.318
 9730TIP3    H229076   9.039   4.719   2.173
 9731TIP3   OH229077   9.617   5.128   3.811
 9731TIP3    H129078   9.563   5.169   3.740
 9731TIP3    H229079   9.592   5.035   3.809
 9732TIP3   OH229080   9.122   4.792   4.030
 9732TIP3    H129081   9.197   4.734   4.015
 9732TIP3    H229082   9.145   4.830   4.117
 9733TIP3   OH229083   9.180   4.607   2.467
 9733TIP3    H129084   9.150   4.570   2.552
 9733TIP3    H229085   9.213   4.528   2.420
 9734TIP3   OH229086   9.445   4.675   3.719
 9734TIP3    H129087   9.359   4.724   3.724
 9734TIP3    H229088   9.477   4.714   3.633
 9735TIP3   OH229089   9.281   4.402   2.311
 9735TIP3    H129090   9.245   4.399   2.220
 9735TIP3    H229091   9.375   4.419   2.295
 9736TIP3   OH229092   9.542   4.437   3.806
 9736TIP3    H129093   9.537   4.401   3.715
 9736TIP3    H229094   9.500   4.524   3.789
 9737TIP3   OH229095   9.579   4.232   3.642
 9737TIP3    H129096   9.616   4.252   3.553
 9737TIP3    H229097   9.487   4.206   3.614
 9738TIP3   OH229098   9.554   4.792   3.510
 9738TIP3    H129099   9.602   4.761   3.432
 9738TIP3    H229100   9.503   4.867   3.470
 9739TIP3   OH229101   9.433   4.589   4.034
 9739TIP3    H129102   9.370   4.519   4.061
 9739TIP3    H229103   9.482   4.544   3.964
 9740TIP3   OH229104   9.296   4.359   4.096
 9740TIP3    H129105   9.285   4.266   4.069
 9740TIP3    H229106   9.332   4.347   4.187
 9741TIP3   OH229107   9.093   5.474   2.205
 9741TIP3    H129108   9.189   5.470   2.191
 9741TIP3    H229109   9.066   5.524   2.126
 9742TIP3   OH229110   8.574   4.853   2.423
 9742TIP3    H129111   8.669   4.876   2.410
 9742TIP3    H229112   8.569   4.764   2.382
 9743TIP3   OH229113   8.489   5.465   2.838
 9743TIP3    H129114   8.422   5.403   2.802
 9743TIP3    H229115   8.534   5.408   2.904
 9744TIP3   OH229116   8.624   5.315   3.025
 9744TIP3    H129117   8.613   5.243   3.088
 9744TIP3    H229118   8.675   5.378   3.079
 9745TIP3   OH229119   8.812   4.722   3.397
 9745TIP3    H129120   8.809   4.692   3.304
 9745TIP3    H229121   8.909   4.724   3.412
 9746TIP3   OH229122   9.028   4.407   4.064
 9746TIP3    H129123   9.125   4.403   4.072
 9746TIP3    H229124   9.002   4.324   4.108
 9747TIP3   OH229125   8.983   4.104   3.409
 9747TIP3    H129126   9.045   4.027   3.412
 9747TIP3    H229127   9.047   4.177   3.399
 9748TIP3   OH229128   8.782   4.372   3.471
 9748TIP3    H129129   8.836   4.370   3.389
 9748TIP3    H229130   8.808   4.457   3.509
 9749TIP3   OH229131   8.776   3.886   2.979
 9749TIP3    H129132   8.681   3.877   2.996
 9749TIP3    H229133   8.777   3.941   2.898
 9750TIP3   OH229134   8.997   3.967   3.785
 9750TIP3    H129135   8.949   3.955   3.870
 9750TIP3    H229136   8.926   3.997   3.727
 9751TIP3   OH229137   9.037   5.390   3.861
 9751TIP3    H129138   8.944   5.361   3.860
 9751TIP3    H229139   9.060   5.384   3.955
 9752TIP3   OH229140   9.214   5.422   3.412
 9752TIP3    H129141   9.165   5.498   3.375
 9752TIP3    H229142   9.299   5.436   3.367
 9753TIP3   OH229143   9.678   5.662   3.539
 9753TIP3    H129144   9.694   5.658   3.636
 9753TIP3    H229145   9.748   5.721   3.511
 9754TIP3   OH229146   8.892   5.678   3.437
 9754TIP3    H129147   8.801   5.711   3.416
 9754TIP3    H229148   8.903   5.715   3.525
 9755TIP3   OH229149   9.127   5.657   3.296
 9755TIP3    H129150   9.041   5.669   3.341
 9755TIP3    H229151   9.106   5.688   3.206
 9756TIP3   OH229152   9.535   5.685   3.090
 9756TIP3    H129153   9.466   5.703   3.023
 9756TIP3    H229154   9.546   5.772   3.132
 9757TIP3   OH229155   9.802   5.648   3.130
 9757TIP3    H129156   9.706   5.640   3.116
 9757TIP3    H229157   9.820   5.739   3.104
 9758TIP3   OH229158   8.803   5.471   3.182
 9758TIP3    H129159   8.829   5.444   3.273
 9758TIP3    H229160   8.874   5.427   3.131
 9759TIP3   OH229161   8.995   5.342   3.039
 9759TIP3    H129162   9.010   5.259   3.089
 9759TIP3    H229163   9.086   5.379   3.035
 9760TIP3   OH229164   9.260   5.444   3.042
 9760TIP3    H129165   9.282   5.350   3.030
 9760TIP3    H229166   9.305   5.461   3.126
 9761TIP3   OH229167   9.074   3.815   3.140
 9761TIP3    H129168   8.982   3.782   3.141
 9761TIP3    H229169   9.122   3.728   3.146
 9762TIP3   OH229170   8.869   3.673   2.789
 9762TIP3    H129171   8.900   3.732   2.718
 9762TIP3    H229172   8.845   3.736   2.859
 9763TIP3   OH229173   8.591   5.243   2.572
 9763TIP3    H129174   8.505   5.210   2.539
 9763TIP3    H229175   8.580   5.337   2.555
 9764TIP3   OH229176   8.985   3.836   2.562
 9764TIP3    H129177   9.021   3.767   2.503
 9764TIP3    H229178   9.065   3.877   2.600
 9765TIP3   OH229179   9.367   5.440   2.158
 9765TIP3    H129180   9.464   5.444   2.152
 9765TIP3    H229181   9.345   5.367   2.096
 9766TIP3   OH229182   9.260   4.088   4.021
 9766TIP3    H129183   9.215   4.024   4.078
 9766TIP3    H229184   9.352   4.078   4.054
 9767TIP3   OH229185   9.505   4.077   4.137
 9767TIP3    H129186   9.602   4.083   4.151
 9767TIP3    H229187   9.486   4.011   4.208
 9768TIP3   OH229188   8.667   5.269   2.213
 9768TIP3    H129189   8.667   5.289   2.307
 9768TIP3    H229190   8.755   5.227   2.200
 9769TIP3   OH229191   0.434   5.340   4.918
 9769TIP3    H129192   0.406   5.432   4.899
 9769TIP3    H229193   0.357   5.291   4.884
 9770TIP3   OH229194   0.441   5.336   5.293
 9770TIP3    H129195   0.468   5.312   5.384
 9770TIP3    H229196   0.394   5.256   5.264
 9771TIP3   OH229197   0.676   5.644   4.982
 9771TIP3    H129198   0.663   5.575   5.049
 9771TIP3    H229199   0.709   5.718   5.035
 9772TIP3   OH229200   0.325   6.106   4.996
 9772TIP3    H129201   0.368   6.033   4.947
 9772TIP3    H229202   0.307   6.063   5.081
 9773TIP3   OH229203   0.223   5.514   5.332
 9773TIP3    H129204   0.298   5.463   5.296
 9773TIP3    H229205   0.270   5.592   5.365
 9774TIP3   OH229206   1.246   4.883   5.349
 9774TIP3    H129207   1.267   4.968   5.393
 9774TIP3    H229208   1.265   4.905   5.256
 9775TIP3   OH229209   0.642   5.066   5.382
 9775TIP3    H129210   0.688   4.981   5.397
 9775TIP3    H229211   0.612   5.054   5.290
 9776TIP3   OH229212   0.021   4.727   5.340
 9776TIP3    H129213  -0.028   4.801   5.301
 9776TIP3    H229214  -0.024   4.653   5.294
 9777TIP3   OH229215   0.676   4.819   4.967
 9777TIP3    H129216   0.749   4.805   5.032
 9777TIP3    H229217   0.727   4.854   4.892
 9778TIP3   OH229218   0.051   5.139   5.260
 9778TIP3    H129219   0.144   5.106   5.261
 9778TIP3    H229220   0.004   5.067   5.215
 9779TIP3   OH229221   1.303   5.089   5.545
 9779TIP3    H129222   1.227   5.141   5.509
 9779TIP3    H229223   1.343   5.157   5.602
 9780TIP3   OH229224   0.326   5.562   4.787
 9780TIP3    H129225   0.285   5.541   4.702
 9780TIP3    H229226   0.279   5.644   4.812
 9781TIP3   OH229227   0.887   4.823   5.139
 9781TIP3    H129228   0.880   4.772   5.221
 9781TIP3    H229229   0.939   4.900   5.167
 9782TIP3   OH229230   0.748   5.885   5.146
 9782TIP3    H129231   0.658   5.877   5.184
 9782TIP3    H229232   0.741   5.972   5.102
 9783TIP3   OH229233   1.028   4.786   5.509
 9783TIP3    H129234   0.943   4.808   5.467
 9783TIP3    H229235   1.093   4.821   5.443
 9784TIP3   OH229236   0.339   4.433   5.500
 9784TIP3    H129237   0.321   4.338   5.506
 9784TIP3    H229238   0.263   4.469   5.550
 9785TIP3   OH229239   0.446   5.931   4.822
 9785TIP3    H129240   0.497   5.849   4.802
 9785TIP3    H229241   0.508   5.997   4.782
 9786TIP3   OH229242   0.590   5.718   4.730
 9786TIP3    H129243   0.553   5.637   4.691
 9786TIP3    H229244   0.627   5.683   4.814
 9787TIP3   OH229245   0.972   5.793   5.495
 9787TIP3    H129246   0.966   5.718   5.432
 9787TIP3    H229247   0.965   5.871   5.436
 9788TIP3   OH229248   0.266   5.191   4.749
 9788TIP3    H129249   0.184   5.240   4.727
 9788TIP3    H229250   0.312   5.189   4.663
 9789TIP3   OH229251   0.226   4.979   4.463
 9789TIP3    H129252   0.293   5.029   4.513
 9789TIP3    H229253   0.284   4.914   4.417
 9790TIP3   OH229254   1.166   5.426   5.330
 9790TIP3    H129255   1.085   5.481   5.341
 9790TIP3    H229256   1.198   5.459   5.244
 9791TIP3   OH229257   0.612   5.275   4.720
 9791TIP3    H129258   0.557   5.300   4.799
 9791TIP3    H229259   0.696   5.251   4.765
 9792TIP3   OH229260   0.849   5.312   5.623
 9792TIP3    H129261   0.861   5.387   5.684
 9792TIP3    H229262   0.759   5.327   5.590
 9793TIP3   OH229263  -0.014   5.224   5.510
 9793TIP3    H129264   0.012   5.194   5.420
 9793TIP3    H229265   0.024   5.313   5.513
 9794TIP3   OH229266   0.506   5.881   5.265
 9794TIP3    H129267   0.489   5.961   5.318
 9794TIP3    H229268   0.490   5.808   5.328
 9795TIP3   OH229269   0.454   5.132   4.547
 9795TIP3    H129270   0.512   5.193   4.598
 9795TIP3    H229271   0.480   5.155   4.454
 9796TIP3   OH229272   0.193   5.817   4.827
 9796TIP3    H129273   0.280   5.859   4.841
 9796TIP3    H229274   0.148   5.883   4.773
 9797TIP3   OH229275   0.968   4.373   4.596
 9797TIP3    H129276   0.887   4.395   4.646
 9797TIP3    H229277   0.982   4.456   4.546
 9798TIP3   OH229278   0.767   5.741   4.143
 9798TIP3    H129279   0.776   5.838   4.130
 9798TIP3    H229280   0.860   5.712   4.131
 9799TIP3   OH229281   1.209   6.153   5.535
 9799TIP3    H129282   1.212   6.055   5.547
 9799TIP3    H229283   1.126   6.173   5.584
 9800TIP3   OH229284   0.105   6.038   4.650
 9800TIP3    H129285   0.071   6.014   4.561
 9800TIP3    H229286   0.066   6.125   4.663
 9801TIP3   OH229287   0.280   5.959   4.265
 9801TIP3    H129288   0.337   5.889   4.227
 9801TIP3    H229289   0.321   5.970   4.354
 9802TIP3   OH229290   0.347   6.003   4.530
 9802TIP3    H129291   0.265   6.005   4.584
 9802TIP3    H229292   0.409   5.965   4.594
 9803TIP3   OH229293   0.092   4.507   5.622
 9803TIP3    H129294   0.017   4.471   5.574
 9803TIP3    H229295   0.087   4.601   5.599
 9804TIP3   OH229296   0.629   4.620   5.818
 9804TIP3    H129297   0.697   4.591   5.882
 9804TIP3    H229298   0.545   4.599   5.864
 9805TIP3   OH229299   0.529   5.177   4.291
 9805TIP3    H129300   0.495   5.154   4.202
 9805TIP3    H229301   0.609   5.227   4.267
 9806TIP3   OH229302   0.244   4.553   4.591
 9806TIP3    H129303   0.213   4.551   4.684
 9806TIP3    H229304   0.201   4.472   4.557
 9807TIP3   OH229305   0.020   5.003   5.659
 9807TIP3    H129306  -0.034   5.035   5.732
 9807TIP3    H229307   0.011   5.079   5.597
 9808TIP3   OH229308  -0.109   4.893   5.152
 9808TIP3    H129309  -0.203   4.898   5.127
 9808TIP3    H229310  -0.078   4.848   5.070
 9809TIP3   OH229311   0.406   4.997   4.884
 9809TIP3    H129312   0.352   5.067   4.842
 9809TIP3    H229313   0.458   4.964   4.808
 9810TIP3   OH229314   0.574   5.263   5.956
 9810TIP3    H129315   0.551   5.197   6.025
 9810TIP3    H229316   0.634   5.323   6.003
 9811TIP3   OH229317   0.558   5.021   5.123
 9811TIP3    H129318   0.499   5.053   5.051
 9811TIP3    H229319   0.591   4.941   5.078
 9812TIP3   OH229320  -0.101   4.524   4.569
 9812TIP3    H129321  -0.112   4.524   4.666
 9812TIP3    H229322  -0.191   4.544   4.540
 9813TIP3   OH229323   0.554   5.267   5.540
 9813TIP3    H129324   0.598   5.199   5.484
 9813TIP3    H229325   0.535   5.213   5.620
 9814TIP3   OH229326   0.260   4.725   5.209
 9814TIP3    H129327   0.174   4.732   5.256
 9814TIP3    H229328   0.322   4.733   5.283
 9815TIP3   OH229329  -0.044   4.778   4.910
 9815TIP3    H129330   0.040   4.808   4.872
 9815TIP3    H229331  -0.111   4.809   4.844
 9816TIP3   OH229332   0.733   4.803   5.425
 9816TIP3    H129333   0.690   4.818   5.511
 9816TIP3    H229334   0.668   4.742   5.384
 9817TIP3   OH229335  -0.206   4.828   4.687
 9817TIP3    H129336  -0.270   4.763   4.655
 9817TIP3    H229337  -0.158   4.855   4.606
 9818TIP3   OH229338   0.898   6.500   5.637
 9818TIP3    H129339   0.901   6.520   5.541
 9818TIP3    H229340   0.981   6.541   5.667
 9819TIP3   OH229341   0.322   5.056   5.310
 9819TIP3    H129342   0.396   5.020   5.259
 9819TIP3    H229343   0.335   5.015   5.397
 9820TIP3   OH229344  -0.108   4.531   5.202
 9820TIP3    H129345  -0.181   4.466   5.211
 9820TIP3    H229346  -0.102   4.536   5.105
 9821TIP3   OH229347   0.297   4.949   5.610
 9821TIP3    H129348   0.207   4.986   5.619
 9821TIP3    H229349   0.352   5.016   5.654
 9822TIP3   OH229350   0.041   5.337   4.685
 9822TIP3    H129351  -0.033   5.272   4.684
 9822TIP3    H229352   0.030   5.376   4.776
 9823TIP3   OH229353   0.937   5.579   5.325
 9823TIP3    H129354   0.962   5.630   5.245
 9823TIP3    H229355   0.851   5.540   5.300
 9824TIP3   OH229356   0.494   4.657   4.562
 9824TIP3    H129357   0.397   4.638   4.569
 9824TIP3    H229358   0.501   4.751   4.586
 9825TIP3   OH229359   0.433   5.641   5.706
 9825TIP3    H129360   0.472   5.617   5.791
 9825TIP3    H229361   0.390   5.724   5.728
 9826TIP3   OH229362   0.562   4.905   4.665
 9826TIP3    H129363   0.658   4.912   4.680
 9826TIP3    H229364   0.542   4.985   4.613
 9827TIP3   OH229365   0.191   5.489   4.517
 9827TIP3    H129366   0.145   5.575   4.526
 9827TIP3    H229367   0.134   5.432   4.574
 9828TIP3   OH229368   0.344   5.409   6.012
 9828TIP3    H129369   0.279   5.342   5.980
 9828TIP3    H229370   0.426   5.374   5.972
 9829TIP3   OH229371   0.613   5.913   5.592
 9829TIP3    H129372   0.520   5.933   5.581
 9829TIP3    H229373   0.637   5.967   5.671
 9830TIP3   OH229374   1.004   4.996   4.500
 9830TIP3    H129375   0.942   4.951   4.437
 9830TIP3    H229376   1.000   5.086   4.460
 9831TIP3   OH229377   1.229   5.878   5.577
 9831TIP3    H129378   1.139   5.848   5.598
 9831TIP3    H229379   1.244   5.831   5.491
 9832TIP3   OH229380   0.704   5.814   4.408
 9832TIP3    H129381   0.680   5.743   4.469
 9832TIP3    H229382   0.717   5.767   4.324
 9833TIP3   OH229383   0.699   5.445   5.243
 9833TIP3    H129384   0.606   5.417   5.256
 9833TIP3    H229385   0.736   5.366   5.200
 9834TIP3   OH229386   0.013   5.436   4.933
 9834TIP3    H129387  -0.004   5.529   4.953
 9834TIP3    H229388  -0.042   5.392   4.999
 9835TIP3   OH229389   0.488   5.654   5.431
 9835TIP3    H129390   0.481   5.640   5.528
 9835TIP3    H229391   0.566   5.601   5.410
 9836TIP3   OH229392   0.462   5.543   4.308
 9836TIP3    H129393   0.512   5.518   4.389
 9836TIP3    H229394   0.373   5.513   4.332
 9837TIP3   OH229395   0.732   6.186   5.480
 9837TIP3    H129396   0.655   6.129   5.464
 9837TIP3    H229397   0.723   6.251   5.408
 9838TIP3   OH229398   0.800   6.016   4.130
 9838TIP3    H129399   0.838   6.091   4.080
 9838TIP3    H229400   0.719   6.061   4.162
 9839TIP3   OH229401   0.621   5.476   4.526
 9839TIP3    H129402   0.611   5.410   4.598
 9839TIP3    H229403   0.718   5.473   4.514
 9840TIP3   OH229404  -0.118   5.491   4.337
 9840TIP3    H129405  -0.105   5.406   4.291
 9840TIP3    H229406  -0.144   5.459   4.425
 9841TIP3   OH229407   0.653   4.861   5.689
 9841TIP3    H129408   0.741   4.870   5.726
 9841TIP3    H229409   0.625   4.776   5.730
 9842TIP3   OH229410   0.541   4.605   4.842
 9842TIP3    H129411   0.522   4.628   4.750
 9842TIP3    H229412   0.576   4.690   4.878
 9843TIP3   OH229413   0.048   5.717   4.539
 9843TIP3    H129414  -0.045   5.733   4.555
 9843TIP3    H229415   0.060   5.758   4.451
 9844TIP3   OH229416   0.241   4.785   4.941
 9844TIP3    H129417   0.300   4.863   4.926
 9844TIP3    H229418   0.240   4.781   5.038
 9845TIP3   OH229419   0.484   5.105   5.746
 9845TIP3    H129420   0.511   5.158   5.824
 9845TIP3    H229421   0.539   5.025   5.754
 9846TIP3   OH229422   0.373   4.516   5.051
 9846TIP3    H129423   0.351   4.598   5.100
 9846TIP3    H229424   0.432   4.552   4.981
 9847TIP3   OH229425  -0.099   4.517   4.851
 9847TIP3    H129426  -0.098   4.610   4.882
 9847TIP3    H229427  -0.003   4.499   4.850
 9848TIP3   OH229428   1.111   5.007   5.752
 9848TIP3    H129429   1.031   4.997   5.698
 9848TIP3    H229430   1.177   5.014   5.679
 9849TIP3   OH229431   0.787   5.200   5.121
 9849TIP3    H129432   0.710   5.142   5.133
 9849TIP3    H229433   0.858   5.154   5.170
 9850TIP3   OH229434   0.754   6.157   5.069
 9850TIP3    H129435   0.713   6.205   4.994
 9850TIP3    H229436   0.849   6.176   5.050
 9851TIP3   OH229437   0.030   5.712   4.249
 9851TIP3    H129438  -0.020   5.631   4.275
 9851TIP3    H229439   0.081   5.678   4.174
 9852TIP3   OH229440   0.646   6.055   5.825
 9852TIP3    H129441   0.647   5.983   5.892
 9852TIP3    H229442   0.727   6.105   5.849
 9853TIP3   OH229443   0.428   5.768   4.134
 9853TIP3    H129444   0.469   5.702   4.194
 9853TIP3    H229445   0.485   5.764   4.055
 9854TIP3   OH229446   0.288   5.683   5.999
 9854TIP3    H129447   0.202   5.660   5.962
 9854TIP3    H229448   0.323   5.594   6.019
 9855TIP3   OH229449   0.168   5.434   4.246
 9855TIP3    H129450   0.159   5.450   4.342
 9855TIP3    H229451   0.159   5.336   4.243
 9856TIP3   OH229452   0.764   5.682   5.634
 9856TIP3    H129453   0.841   5.723   5.589
 9856TIP3    H229454   0.697   5.752   5.619
 9857TIP3   OH229455  -0.147   5.138   4.674
 9857TIP3    H129456  -0.195   5.083   4.737
 9857TIP3    H229457  -0.115   5.070   4.611
 9858TIP3   OH229458   0.188   5.216   5.887
 9858TIP3    H129459   0.093   5.241   5.885
 9858TIP3    H229460   0.218   5.248   5.799
 9859TIP3   OH229461  -0.050   4.944   4.498
 9859TIP3    H129462  -0.074   4.955   4.403
 9859TIP3    H229463   0.048   4.949   4.493
 9860TIP3   OH229464   0.627   5.601   6.024
 9860TIP3    H129465   0.717   5.607   5.990
 9860TIP3    H229466   0.638   5.544   6.102
 9861TIP3   OH229467   0.765   5.271   4.169
 9861TIP3    H129468   0.743   5.226   4.085
 9861TIP3    H229469   0.733   5.361   4.147
 9862TIP3   OH229470   0.254   4.982   6.028
 9862TIP3    H129471   0.232   4.908   5.970
 9862TIP3    H229472   0.219   5.060   5.979
 9863TIP3   OH229473   0.225   4.773   5.815
 9863TIP3    H129474   0.264   4.824   5.741
 9863TIP3    H229475   0.131   4.791   5.805
 9864TIP3   OH229476   0.268   5.339   5.653
 9864TIP3    H129477   0.358   5.322   5.622
 9864TIP3    H229478   0.258   5.433   5.634
 9865TIP3   OH229479   0.900   5.529   5.815
 9865TIP3    H129480   0.854   5.589   5.752
 9865TIP3    H229481   0.993   5.557   5.806
 9866TIP3   OH229482   0.369   4.547   5.892
 9866TIP3    H129483   0.317   4.627   5.867
 9866TIP3    H229484   0.300   4.478   5.887
 9867TIP3   OH229485   0.490   5.074   6.126
 9867TIP3    H129486   0.471   5.048   6.218
 9867TIP3    H229487   0.409   5.037   6.084
 9868TIP3   OH229488   0.968   4.951   6.094
 9868TIP3    H129489   0.969   4.854   6.111
 9868TIP3    H229490   0.938   4.984   6.183
 9869TIP3   OH229491   0.467   4.562   6.149
 9869TIP3    H129492   0.531   4.488   6.146
 9869TIP3    H229493   0.425   4.554   6.062
 9870TIP3   OH229494   0.535   4.778   6.306
 9870TIP3    H129495   0.511   4.706   6.244
 9870TIP3    H229496   0.456   4.836   6.302
 9871TIP3   OH229497   1.006   6.252   5.027
 9871TIP3    H129498   1.038   6.280   5.115
 9871TIP3    H229499   1.073   6.289   4.968
 9872TIP3   OH229500   1.037   6.268   5.311
 9872TIP3    H129501   0.996   6.179   5.305
 9872TIP3    H229502   1.112   6.246   5.369
 9873TIP3   OH229503   1.043   5.981   5.851
 9873TIP3    H129504   1.005   5.954   5.936
 9873TIP3    H229505   1.112   6.045   5.877
 9874TIP3   OH229506   0.900   5.458   4.501
 9874TIP3    H129507   0.968   5.523   4.473
 9874TIP3    H229508   0.944   5.419   4.580
 9875TIP3   OH229509   1.028   5.324   4.704
 9875TIP3    H129510   0.962   5.284   4.765
 9875TIP3    H229511   1.094   5.362   4.765
 9876TIP3   OH229512   1.080   5.716   5.135
 9876TIP3    H129513   1.135   5.653   5.086
 9876TIP3    H229514   1.076   5.793   5.074
 9877TIP3   OH229515   0.916   6.017   5.332
 9877TIP3    H129516   0.845   6.052   5.388
 9877TIP3    H229517   0.866   5.967   5.264
 9878TIP3   OH229518   0.965   5.232   4.352
 9878TIP3    H129519   0.894   5.236   4.285
 9878TIP3    H229520   0.939   5.309   4.408
 9879TIP3   OH229521   0.838   4.905   4.306
 9879TIP3    H129522   0.792   4.945   4.231
 9879TIP3    H229523   0.812   4.811   4.295
 9880TIP3   OH229524   0.841   5.183   4.852
 9880TIP3    H129525   0.848   5.086   4.846
 9880TIP3    H229526   0.827   5.197   4.948
 9881TIP3   OH229527   1.294   5.376   5.678
 9881TIP3    H129528   1.265   5.443   5.745
 9881TIP3    H229529   1.368   5.334   5.725
 9882TIP3   OH229530   0.780   4.639   4.290
 9882TIP3    H129531   0.853   4.608   4.348
 9882TIP3    H229532   0.705   4.582   4.315
 9883TIP3   OH229533   0.838   4.898   4.747
 9883TIP3    H129534   0.879   4.810   4.761
 9883TIP3    H229535   0.895   4.932   4.676
 9884TIP3   OH229536   1.000   5.069   5.243
 9884TIP3    H129537   1.085   5.095   5.202
 9884TIP3    H229538   1.010   5.112   5.330
 9885TIP3   OH229539   1.064   5.211   5.475
 9885TIP3    H129540   0.991   5.248   5.529
 9885TIP3    H229541   1.100   5.293   5.434
 9886TIP3   OH229542   1.520   4.805   6.031
 9886TIP3    H129543   1.579   4.740   5.987
 9886TIP3    H229544   1.489   4.859   5.955
 9887TIP3   OH229545   0.948   4.648   4.784
 9887TIP3    H129546   0.995   4.632   4.868
 9887TIP3    H229547   0.886   4.572   4.782
 9888TIP3   OH229548   1.383   4.939   5.836
 9888TIP3    H129549   1.294   4.979   5.846
 9888TIP3    H229550   1.361   4.865   5.776
 9889TIP3   OH229551   1.027   4.581   4.419
 9889TIP3    H129552   1.067   4.511   4.363
 9889TIP3    H229553   1.093   4.653   4.412
 9890TIP3   OH229554   0.591   6.116   4.685
 9890TIP3    H129555   0.642   6.103   4.603
 9890TIP3    H229556   0.646   6.181   4.732
 9891TIP3   OH229557   0.486   6.353   5.611
 9891TIP3    H129558   0.555   6.298   5.573
 9891TIP3    H229559   0.538   6.399   5.681
 9892TIP3   OH229560   1.289   4.707   5.714
 9892TIP3    H129561   1.199   4.701   5.678
 9892TIP3    H229562   1.321   4.615   5.701
 9893TIP3   OH229563   0.213   6.228   5.280
 9893TIP3    H129564   0.124   6.246   5.248
 9893TIP3    H229565   0.236   6.315   5.321
 9894TIP3   OH229566   0.476   6.153   5.353
 9894TIP3    H129567   0.389   6.172   5.314
 9894TIP3    H229568   0.531   6.221   5.310
 9895TIP3   OH229569   0.677   6.341   5.262
 9895TIP3    H129570   0.670   6.427   5.217
 9895TIP3    H229571   0.709   6.283   5.189
 9896TIP3   OH229572   0.505   4.628   5.347
 9896TIP3    H129573   0.454   4.557   5.390
 9896TIP3    H229574   0.564   4.578   5.288
 9897TIP3   OH229575   1.018   4.507   5.241
 9897TIP3    H129576   1.054   4.557   5.165
 9897TIP3    H229577   0.922   4.521   5.232
 9898TIP3   OH229578   1.112   4.602   5.003
 9898TIP3    H129579   1.185   4.552   4.961
 9898TIP3    H229580   1.144   4.694   4.988
 9899TIP3   OH229581   0.208   4.358   5.228
 9899TIP3    H129582   0.255   4.417   5.166
 9899TIP3    H229583   0.200   4.413   5.306
 9900TIP3   OH229584   0.739   4.512   5.212
 9900TIP3    H129585   0.726   4.477   5.122
 9900TIP3    H229586   0.721   4.432   5.267
 9901TIP3   OH229587   0.763   4.436   4.776
 9901TIP3    H129588   0.678   4.481   4.789
 9901TIP3    H229589   0.746   4.350   4.820
 9902TIP3   OH229590  -0.310   4.276   4.794
 9902TIP3    H129591  -0.324   4.284   4.699
 9902TIP3    H229592  -0.297   4.368   4.820
 9903TIP3   OH229593   0.174   4.536   4.856
 9903TIP3    H129594   0.230   4.494   4.923
 9903TIP3    H229595   0.189   4.630   4.880
 9904TIP3   OH229596   0.028   5.975   4.390
 9904TIP3    H129597   0.115   5.968   4.344
 9904TIP3    H229598  -0.029   5.941   4.317
 9905TIP3   OH229599   0.736   6.081   4.453
 9905TIP3    H129600   0.729   5.983   4.440
 9905TIP3    H229601   0.692   6.113   4.371
 9906TIP3   OH229602   0.195   4.580   6.341
 9906TIP3    H129603   0.283   4.570   6.301
 9906TIP3    H229604   0.207   4.531   6.424
 9907TIP3   OH229605   1.024   4.683   6.144
 9907TIP3    H129606   1.039   4.651   6.235
 9907TIP3    H229607   1.114   4.672   6.105
 9908TIP3   OH229608   0.963   6.232   5.638
 9908TIP3    H129609   0.885   6.196   5.591
 9908TIP3    H229610   0.940   6.327   5.642
 9909TIP3   OH229611   2.231   5.598   4.403
 9909TIP3    H129612   2.204   5.690   4.385
 9909TIP3    H229613   2.151   5.550   4.374
 9910TIP3   OH229614   2.239   5.592   4.781
 9910TIP3    H129615   2.263   5.571   4.873
 9910TIP3    H229616   2.187   5.515   4.755
 9911TIP3   OH229617   1.529   5.492   5.150
 9911TIP3    H129618   1.561   5.426   5.214
 9911TIP3    H229619   1.602   5.555   5.148
 9912TIP3   OH229620   2.474   5.900   4.467
 9912TIP3    H129621   2.456   5.835   4.535
 9912TIP3    H229622   2.500   5.978   4.519
 9913TIP3   OH229623   1.493   5.897   4.880
 9913TIP3    H129624   1.483   5.800   4.881
 9913TIP3    H229625   1.589   5.903   4.862
 9914TIP3   OH229626   1.207   5.102   4.660
 9914TIP3    H129627   1.162   5.187   4.678
 9914TIP3    H229628   1.134   5.053   4.618
 9915TIP3   OH229629   1.264   5.391   4.831
 9915TIP3    H129630   1.315   5.316   4.868
 9915TIP3    H229631   1.330   5.435   4.775
 9916TIP3   OH229632   2.131   6.369   4.485
 9916TIP3    H129633   2.180   6.294   4.447
 9916TIP3    H229634   2.067   6.325   4.543
 9917TIP3   OH229635   2.033   5.817   4.843
 9917TIP3    H129636   2.070   5.750   4.784
 9917TIP3    H229637   2.117   5.862   4.868
 9918TIP3   OH229638   3.042   5.145   4.830
 9918TIP3    H129639   3.070   5.226   4.876
 9918TIP3    H229640   3.063   5.167   4.738
 9919TIP3   OH229641   2.438   5.323   4.869
 9919TIP3    H129642   2.483   5.237   4.884
 9919TIP3    H229643   2.408   5.311   4.777
 9920TIP3   OH229644   1.780   4.983   4.833
 9920TIP3    H129645   1.759   5.056   4.771
 9920TIP3    H229646   1.730   4.910   4.788
 9921TIP3   OH229647   2.473   5.075   4.454
 9921TIP3    H129648   2.545   5.060   4.519
 9921TIP3    H229649   2.525   5.110   4.380
 9922TIP3   OH229650   1.411   5.185   4.940
 9922TIP3    H129651   1.494   5.168   4.987
 9922TIP3    H229652   1.425   5.131   4.860
 9923TIP3   OH229653   1.853   5.383   4.729
 9923TIP3    H129654   1.947   5.357   4.744
 9923TIP3    H229655   1.814   5.299   4.698
 9924TIP3   OH229656   3.114   5.349   5.003
 9924TIP3    H129657   3.031   5.398   4.985
 9924TIP3    H229658   3.131   5.376   5.095
 9925TIP3   OH229659   1.776   4.968   5.268
 9925TIP3    H129660   1.719   5.006   5.199
 9925TIP3    H229661   1.723   4.988   5.348
 9926TIP3   OH229662   2.129   5.824   4.268
 9926TIP3    H129663   2.077   5.799   4.191
 9926TIP3    H229664   2.086   5.909   4.291
 9927TIP3   OH229665   1.880   5.741   5.063
 9927TIP3    H129666   1.819   5.811   5.096
 9927TIP3    H229667   1.921   5.787   4.986
 9928TIP3   OH229668   2.683   5.078   4.627
 9928TIP3    H129669   2.669   5.032   4.711
 9928TIP3    H229670   2.735   5.156   4.654
 9929TIP3   OH229671   1.647   5.081   5.052
 9929TIP3    H129672   1.707   5.156   5.073
 9929TIP3    H229673   1.695   5.042   4.976
 9930TIP3   OH229674   1.710   5.937   5.161
 9930TIP3    H129675   1.686   6.021   5.117
 9930TIP3    H229676   1.630   5.924   5.216
 9931TIP3   OH229677   1.103   5.627   4.395
 9931TIP3    H129678   1.062   5.657   4.313
 9931TIP3    H229679   1.135   5.712   4.433
 9932TIP3   OH229680   2.546   6.141   4.629
 9932TIP3    H129681   2.459   6.133   4.674
 9932TIP3    H229682   2.536   6.229   4.588
 9933TIP3   OH229683   2.829   5.057   4.993
 9933TIP3    H129684   2.743   5.080   4.956
 9933TIP3    H229685   2.892   5.085   4.923
 9934TIP3   OH229686   2.130   4.692   4.979
 9934TIP3    H129687   2.113   4.596   4.983
 9934TIP3    H229688   2.051   4.726   5.026
 9935TIP3   OH229689   2.257   6.187   4.318
 9935TIP3    H129690   2.305   6.106   4.291
 9935TIP3    H229691   2.310   6.255   4.271
 9936TIP3   OH229692   2.393   5.969   4.211
 9936TIP3    H129693   2.332   5.897   4.191
 9936TIP3    H229694   2.430   5.939   4.297
 9937TIP3   OH229695   2.769   6.054   4.980
 9937TIP3    H129696   2.757   5.978   4.919
 9937TIP3    H229697   2.749   6.130   4.921
 9938TIP3   OH229698   2.059   5.446   4.236
 9938TIP3    H129699   1.979   5.499   4.216
 9938TIP3    H229700   2.106   5.448   4.151
 9939TIP3   OH229701   2.018   5.236   3.949
 9939TIP3    H129702   2.084   5.285   4.001
 9939TIP3    H229703   2.076   5.173   3.903
 9940TIP3   OH229704   2.964   5.691   4.823
 9940TIP3    H129705   2.881   5.743   4.828
 9940TIP3    H229706   2.994   5.717   4.733
 9941TIP3   OH229707   2.408   5.531   4.207
 9941TIP3    H129708   2.353   5.556   4.285
 9941TIP3    H229709   2.492   5.507   4.252
 9942TIP3   OH229710   2.643   5.568   5.122
 9942TIP3    H129711   2.642   5.653   5.172
 9942TIP3    H229712   2.557   5.575   5.076
 9943TIP3   OH229713   1.639   5.526   4.626
 9943TIP3    H129714   1.601   5.470   4.555
 9943TIP3    H229715   1.718   5.475   4.654
 9944TIP3   OH229716   1.749   5.904   4.786
 9944TIP3    H129717   1.741   5.916   4.690
 9944TIP3    H229718   1.844   5.911   4.800
 9945TIP3   OH229719   1.780   5.500   4.977
 9945TIP3    H129720   1.811   5.484   4.886
 9945TIP3    H229721   1.819   5.588   4.998
 9946TIP3   OH229722   2.312   6.136   4.759
 9946TIP3    H129723   2.287   6.219   4.803
 9946TIP3    H229724   2.288   6.067   4.824
 9947TIP3   OH229725   1.915   6.054   5.306
 9947TIP3    H129726   1.855   6.119   5.349
 9947TIP3    H229727   1.851   6.003   5.253
 9948TIP3   OH229728   2.249   5.389   4.035
 9948TIP3    H129729   2.307   5.449   4.087
 9948TIP3    H229730   2.275   5.414   3.943
 9949TIP3   OH229731   1.670   5.606   5.408
 9949TIP3    H129732   1.675   5.697   5.445
 9949TIP3    H229733   1.573   5.590   5.418
 9950TIP3   OH229734   1.992   6.065   4.297
 9950TIP3    H129735   2.060   6.118   4.341
 9950TIP3    H229736   1.912   6.116   4.316
 9951TIP3   OH229737   1.710   6.225   5.389
 9951TIP3    H129738   1.676   6.226   5.297
 9951TIP3    H229739   1.628   6.203   5.440
 9952TIP3   OH229740   2.764   4.630   4.082
 9952TIP3    H129741   2.683   4.651   4.133
 9952TIP3    H229742   2.778   4.713   4.033
 9953TIP3   OH229743   1.510   5.369   4.422
 9953TIP3    H129744   1.442   5.417   4.371
 9953TIP3    H229745   1.464   5.287   4.442
 9954TIP3   OH229746   2.562   5.997   3.623
 9954TIP3    H129747   2.572   6.094   3.617
 9954TIP3    H229748   2.655   5.968   3.615
 9955TIP3   OH229749   1.287   5.753   5.338
 9955TIP3    H129750   1.223   5.729   5.269
 9955TIP3    H229751   1.325   5.666   5.364
 9956TIP3   OH229752   1.144   5.948   4.970
 9956TIP3    H129753   1.239   5.939   4.958
 9956TIP3    H229754   1.139   6.026   5.027
 9957TIP3   OH229755   3.009   6.400   5.029
 9957TIP3    H129756   3.006   6.304   5.045
 9957TIP3    H229757   2.925   6.427   5.072
 9958TIP3   OH229758   2.119   6.183   5.166
 9958TIP3    H129759   2.115   6.277   5.194
 9958TIP3    H229760   2.043   6.145   5.214
 9959TIP3   OH229761   1.874   6.325   4.098
 9959TIP3    H129762   1.816   6.308   4.022
 9959TIP3    H229763   1.839   6.409   4.134
 9960TIP3   OH229764   1.309   6.166   4.503
 9960TIP3    H129765   1.364   6.157   4.584
 9960TIP3    H229766   1.257   6.084   4.508
 9961TIP3   OH229767   2.073   6.217   3.752
 9961TIP3    H129768   2.135   6.149   3.717
 9961TIP3    H229769   2.106   6.227   3.844
 9962TIP3   OH229770   2.124   6.261   4.021
 9962TIP3    H129771   2.035   6.275   4.061
 9962TIP3    H229772   2.170   6.221   4.097
 9963TIP3   OH229773   2.896   5.530   5.303
 9963TIP3    H129774   2.817   5.546   5.249
 9963TIP3    H229775   2.912   5.434   5.287
 9964TIP3   OH229776   1.491   5.938   5.325
 9964TIP3    H129777   1.540   5.922   5.409
 9964TIP3    H229778   1.415   5.876   5.334
 9965TIP3   OH229779   1.893   4.760   5.113
 9965TIP3    H129780   1.803   4.730   5.085
 9965TIP3    H229781   1.869   4.844   5.155
 9966TIP3   OH229782   2.654   5.302   5.214
 9966TIP3    H129783   2.614   5.309   5.303
 9966TIP3    H229784   2.643   5.393   5.179
 9967TIP3   OH229785   2.323   5.438   3.780
 9967TIP3    H129786   2.296   5.407   3.691
 9967TIP3    H229787   2.405   5.486   3.758
 9968TIP3   OH229788   2.037   4.811   4.080
 9968TIP3    H129789   2.004   4.808   4.172
 9968TIP3    H229790   1.998   4.728   4.047
 9969TIP3   OH229791   1.824   5.278   5.127
 9969TIP3    H129792   1.773   5.300   5.207
 9969TIP3    H229793   1.809   5.359   5.073
 9970TIP3   OH229794   1.709   5.162   4.642
 9970TIP3    H129795   1.615   5.139   4.660
 9970TIP3    H229796   1.720   5.122   4.553
 9971TIP3   OH229797   2.198   5.249   4.370
 9971TIP3    H129798   2.145   5.320   4.328
 9971TIP3    H229799   2.253   5.219   4.295
 9972TIP3   OH229800   2.371   5.525   5.453
 9972TIP3    H129801   2.352   5.455   5.519
 9972TIP3    H229802   2.464   5.546   5.474
 9973TIP3   OH229803   2.354   5.277   4.610
 9973TIP3    H129804   2.295   5.310   4.539
 9973TIP3    H229805   2.387   5.197   4.565
 9974TIP3   OH229806   1.646   5.308   5.336
 9974TIP3    H129807   1.657   5.379   5.401
 9974TIP3    H229808   1.634   5.230   5.393
 9975TIP3   OH229809   1.692   4.784   4.046
 9975TIP3    H129810   1.684   4.782   4.144
 9975TIP3    H229811   1.614   4.838   4.022
 9976TIP3   OH229812   1.235   4.825   4.920
 9976TIP3    H129813   1.310   4.861   4.973
 9976TIP3    H229814   1.276   4.800   4.836
 9977TIP3   OH229815   1.207   4.810   4.436
 9977TIP3    H129816   1.252   4.848   4.358
 9977TIP3    H229817   1.146   4.883   4.458
 9978TIP3   OH229818   2.365   5.524   5.032
 9978TIP3    H129819   2.397   5.452   4.973
 9978TIP3    H229820   2.333   5.470   5.108
 9979TIP3   OH229821   2.036   4.982   4.702
 9979TIP3    H129822   1.953   4.983   4.755
 9979TIP3    H229823   2.103   4.988   4.771
 9980TIP3   OH229824   1.468   5.042   4.712
 9980TIP3    H129825   1.374   5.051   4.684
 9980TIP3    H229826   1.491   4.951   4.686
 9981TIP3   OH229827   1.738   5.036   4.400
 9981TIP3    H129828   1.831   5.054   4.378
 9981TIP3    H229829   1.690   5.060   4.317
 9982TIP3   OH229830   2.528   5.062   4.900
 9982TIP3    H129831   2.496   5.071   4.993
 9982TIP3    H229832   2.462   5.000   4.865
 9983TIP3   OH229833   1.582   5.069   4.178
 9983TIP3    H129834   1.509   5.027   4.130
 9983TIP3    H229835   1.633   5.107   4.104
 9984TIP3   OH229836   2.701   6.753   5.126
 9984TIP3    H129837   2.706   6.778   5.031
 9984TIP3    H229838   2.758   6.820   5.168
 9985TIP3   OH229839   1.651   5.855   5.547
 9985TIP3    H129840   1.729   5.890   5.595
 9985TIP3    H229841   1.585   5.855   5.619
 9986TIP3   OH229842   2.118   5.312   4.798
 9986TIP3    H129843   2.194   5.279   4.747
 9986TIP3    H229844   2.132   5.272   4.885
 9987TIP3   OH229845   1.641   4.802   4.680
 9987TIP3    H129846   1.606   4.722   4.725
 9987TIP3    H229847   1.687   4.764   4.604
 9988TIP3   OH229848   2.094   5.208   5.100
 9988TIP3    H129849   2.004   5.247   5.105
 9988TIP3    H229850   2.150   5.275   5.144
 9989TIP3   OH229851   1.833   5.600   4.184
 9989TIP3    H129852   1.759   5.537   4.172
 9989TIP3    H229853   1.814   5.635   4.275
 9990TIP3   OH229854   2.732   5.836   4.814
 9990TIP3    H129855   2.755   5.888   4.734
 9990TIP3    H229856   2.646   5.796   4.789
 9991TIP3   OH229857   2.289   4.914   4.047
 9991TIP3    H129858   2.192   4.897   4.057
 9991TIP3    H229859   2.298   5.008   4.073
 9992TIP3   OH229860   2.229   5.918   5.185
 9992TIP3    H129861   2.255   5.907   5.277
 9992TIP3    H229862   2.193   6.009   5.185
 9993TIP3   OH229863   2.358   5.161   4.151
 9993TIP3    H129864   2.454   5.168   4.167
 9993TIP3    H229865   2.339   5.242   4.100
 9994TIP3   OH229866   1.513   5.613   4.861
 9994TIP3    H129867   1.559   5.597   4.776
 9994TIP3    H229868   1.567   5.561   4.923
 9995TIP3   OH229869   1.974   5.749   4.000
 9995TIP3    H129870   1.927   5.835   4.006
 9995TIP3    H229871   1.922   5.695   4.063
 9996TIP3   OH229872   1.407   5.538   5.470
 9996TIP3    H129873   1.425   5.539   5.566
 9996TIP3    H229874   1.331   5.478   5.467
 9997TIP3   OH229875   2.129   5.656   5.497
 9997TIP3    H129876   2.068   5.603   5.443
 9997TIP3    H229877   2.216   5.626   5.464
 9998TIP3   OH229878   2.393   6.171   5.085
 9998TIP3    H129879   2.296   6.176   5.094
 9998TIP3    H229880   2.421   6.229   5.159
 9999TIP3   OH229881   2.801   5.252   3.987
 9999TIP3    H129882   2.738   5.208   3.925
 9999TIP3    H229883   2.797   5.342   3.947
10000TIP3   OH229884   3.019   6.106   5.070
10000TIP3    H129885   2.921   6.104   5.060
10000TIP3    H229886   3.045   6.079   4.979
10001TIP3   OH229887   2.504   6.071   3.896
10001TIP3    H129888   2.473   6.009   3.963
10001TIP3    H229889   2.509   6.017   3.815
10002TIP3   OH229890   2.499   5.699   4.733
10002TIP3    H129891   2.405   5.675   4.746
10002TIP3    H229892   2.531   5.620   4.686
10003TIP3   OH229893   1.633   5.923   4.486
10003TIP3    H129894   1.668   6.014   4.475
10003TIP3    H229895   1.538   5.937   4.482
10004TIP3   OH229896   1.188   5.232   4.190
10004TIP3    H129897   1.234   5.316   4.211
10004TIP3    H229898   1.111   5.237   4.251
10005TIP3   OH229899   1.763   5.689   4.428
10005TIP3    H129900   1.727   5.779   4.445
10005TIP3    H229901   1.728   5.643   4.507
10006TIP3   OH229902   1.900   6.267   4.980
10006TIP3    H129903   1.919   6.322   4.903
10006TIP3    H229904   1.989   6.244   5.011
10007TIP3   OH229905   1.525   6.169   4.318
10007TIP3    H129906   1.450   6.182   4.378
10007TIP3    H229907   1.597   6.214   4.366
10008TIP3   OH229908   2.283   5.902   4.917
10008TIP3    H129909   2.273   5.903   5.015
10008TIP3    H229910   2.368   5.857   4.906
10009TIP3   OH229911   2.257   5.803   3.794
10009TIP3    H129912   2.311   5.775   3.872
10009TIP3    H229913   2.168   5.778   3.824
10010TIP3   OH229914   2.530   6.436   4.961
10010TIP3    H129915   2.448   6.385   4.952
10010TIP3    H229916   2.517   6.504   4.892
10011TIP3   OH229917   2.596   6.273   3.616
10011TIP3    H129918   2.635   6.349   3.570
10011TIP3    H229919   2.515   6.317   3.651
10012TIP3   OH229920   1.615   5.046   5.485
10012TIP3    H129921   1.519   5.050   5.500
10012TIP3    H229922   1.644   4.987   5.556
10013TIP3   OH229923   2.417   5.723   4.004
10013TIP3    H129924   2.406   5.664   4.081
10013TIP3    H229925   2.514   5.727   3.999
10014TIP3   OH229926   1.329   6.133   5.115
10014TIP3    H129927   1.386   6.060   5.143
10014TIP3    H229928   1.362   6.204   5.171
10015TIP3   OH229929   1.614   5.781   3.794
10015TIP3    H129930   1.640   5.690   3.772
10015TIP3    H229931   1.601   5.773   3.891
10016TIP3   OH229932   1.569   5.783   4.067
10016TIP3    H129933   1.635   5.758   4.133
10016TIP3    H229934   1.570   5.882   4.075
10017TIP3   OH229935   1.302   5.477   4.273
10017TIP3    H129936   1.236   5.522   4.330
10017TIP3    H229937   1.316   5.547   4.206
10018TIP3   OH229938   2.460   5.106   5.162
10018TIP3    H129939   2.536   5.163   5.185
10018TIP3    H229940   2.446   5.054   5.242
10019TIP3   OH229941   2.334   4.864   4.330
10019TIP3    H129942   2.320   4.888   4.236
10019TIP3    H229943   2.373   4.946   4.366
10020TIP3   OH229944   1.831   5.978   4.007
10020TIP3    H129945   1.745   6.002   4.049
10020TIP3    H229946   1.859   6.066   3.977
10021TIP3   OH229947   2.021   5.045   4.431
10021TIP3    H129948   2.085   5.117   4.413
10021TIP3    H229949   2.026   5.037   4.528
10022TIP3   OH229950   2.290   5.363   5.240
10022TIP3    H129951   2.308   5.424   5.315
10022TIP3    H229952   2.352   5.291   5.256
10023TIP3   OH229953   2.165   4.770   4.533
10023TIP3    H129954   2.155   4.847   4.591
10023TIP3    H229955   2.227   4.806   4.465
10024TIP3   OH229956   1.575   6.054   4.079
10024TIP3    H129957   1.545   6.127   4.020
10024TIP3    H229958   1.556   6.095   4.168
10025TIP3   OH229959   1.678   4.770   4.323
10025TIP3    H129960   1.675   4.861   4.358
10025TIP3    H229961   1.774   4.753   4.331
10026TIP3   OH229962   2.925   5.265   5.219
10026TIP3    H129963   2.828   5.260   5.218
10026TIP3    H229964   2.946   5.221   5.135
10027TIP3   OH229965   2.583   5.457   4.606
10027TIP3    H129966   2.506   5.398   4.620
10027TIP3    H229967   2.654   5.410   4.655
10028TIP3   OH229968   1.295   5.686   4.078
10028TIP3    H129969   1.360   5.757   4.090
10028TIP3    H229970   1.343   5.633   4.010
10029TIP3   OH229971   1.239   4.962   4.210
10029TIP3    H129972   1.239   5.060   4.208
10029TIP3    H229973   1.154   4.941   4.168
10030TIP3   OH229974   2.552   6.414   4.557
10030TIP3    H129975   2.508   6.458   4.481
10030TIP3    H229976   2.646   6.434   4.535
10031TIP3   OH229977   1.629   4.682   5.083
10031TIP3    H129978   1.596   4.651   4.996
10031TIP3    H229979   1.615   4.603   5.139
10032TIP3   OH229980   1.163   5.897   4.464
10032TIP3    H129981   1.095   5.932   4.523
10032TIP3    H229982   1.139   5.941   4.379
10033TIP3   OH229983   1.322   6.443   5.537
10033TIP3    H129984   1.409   6.441   5.582
10033TIP3    H229985   1.300   6.348   5.534
10034TIP3   OH229986   1.802   6.405   5.582
10034TIP3    H129987   1.897   6.391   5.587
10034TIP3    H229988   1.778   6.346   5.508
10035TIP3   OH229989   1.790   5.971   3.703
10035TIP3    H129990   1.722   5.914   3.747
10035TIP3    H229991   1.867   5.912   3.713
10036TIP3   OH229992   2.443   6.314   5.315
10036TIP3    H129993   2.436   6.245   5.384
10036TIP3    H229994   2.520   6.366   5.345
10037TIP3   OH229995   2.233   6.033   3.622
10037TIP3    H129996   2.245   5.955   3.680
10037TIP3    H229997   2.310   6.029   3.564
10038TIP3   OH229998   1.450   5.847   5.740
10038TIP3    H129999   1.448   5.750   5.753
10038TIP3    H230000   1.363   5.859   5.696
10039TIP3   OH230001   1.433   5.499   3.930
10039TIP3    H130002   1.486   5.468   4.005
10039TIP3    H230003   1.502   5.505   3.861
10040TIP3   OH230004   2.060   5.934   5.511
10040TIP3    H130005   2.018   5.956   5.425
10040TIP3    H230006   2.090   5.842   5.498
10041TIP3   OH230007   1.921   5.700   3.733
10041TIP3    H130008   1.937   5.713   3.829
10041TIP3    H230009   1.931   5.603   3.726
10042TIP3   OH230010   2.553   5.942   5.116
10042TIP3    H130011   2.628   5.987   5.073
10042TIP3    H230012   2.484   6.010   5.105
10043TIP3   OH230013   1.565   5.566   5.724
10043TIP3    H130014   1.650   5.530   5.697
10043TIP3    H230015   1.589   5.612   5.807
10044TIP3   OH230016   1.635   5.405   4.150
10044TIP3    H130017   1.609   5.368   4.236
10044TIP3    H230018   1.672   5.327   4.103
10045TIP3   OH230019   1.912   5.468   5.382
10045TIP3    H130020   1.831   5.524   5.384
10045TIP3    H230021   1.958   5.502   5.302
10046TIP3   OH230022   1.739   5.196   3.993
10046TIP3    H130023   1.713   5.201   3.898
10046TIP3    H230024   1.837   5.202   3.985
10047TIP3   OH230025   2.420   5.866   5.514
10047TIP3    H130026   2.503   5.850   5.467
10047TIP3    H230027   2.424   5.802   5.587
10048TIP3   OH230028   2.559   5.530   3.655
10048TIP3    H130029   2.538   5.483   3.572
10048TIP3    H230030   2.525   5.620   3.632
10049TIP3   OH230031   2.036   5.256   5.503
10049TIP3    H130032   2.031   5.179   5.443
10049TIP3    H230033   1.991   5.325   5.449
10050TIP3   OH230034   2.038   5.037   5.316
10050TIP3    H130035   2.063   5.084   5.233
10050TIP3    H230036   1.944   5.016   5.297
10051TIP3   OH230037   2.061   5.579   5.186
10051TIP3    H130038   2.144   5.596   5.139
10051TIP3    H230039   2.001   5.644   5.144
10052TIP3   OH230040   2.645   5.547   5.568
10052TIP3    H130041   2.702   5.469   5.572
10052TIP3    H230042   2.705   5.613   5.532
10053TIP3   OH230043   2.683   5.795   5.301
10053TIP3    H130044   2.624   5.850   5.243
10053TIP3    H230045   2.770   5.818   5.262
10054TIP3   OH230046   1.911   5.366   5.737
10054TIP3    H130047   1.840   5.300   5.750
10054TIP3    H230048   1.940   5.346   5.646
10055TIP3   OH230049   2.162   4.799   5.402
10055TIP3    H130050   2.128   4.887   5.374
10055TIP3    H230051   2.090   4.741   5.372
10056TIP3   OH230052   2.296   5.300   5.598
10056TIP3    H130053   2.276   5.306   5.693
10056TIP3    H230054   2.205   5.285   5.563
10057TIP3   OH230055   2.535   5.270   5.454
10057TIP3    H130056   2.460   5.277   5.515
10057TIP3    H230057   2.609   5.242   5.512
10058TIP3   OH230058   2.771   5.202   5.610
10058TIP3    H130059   2.794   5.115   5.643
10058TIP3    H230060   2.764   5.254   5.693
10059TIP3   OH230061   1.750   5.146   5.790
10059TIP3    H130062   1.755   5.055   5.756
10059TIP3    H230063   1.783   5.135   5.881
10060TIP3   OH230064   2.277   5.019   5.806
10060TIP3    H130065   2.281   5.022   5.709
10060TIP3    H230066   2.222   5.098   5.823
10061TIP3   OH230067   1.545   6.258   3.893
10061TIP3    H130068   1.641   6.251   3.876
10061TIP3    H230069   1.519   6.313   3.816
10062TIP3   OH230070   1.026   5.642   4.111
10062TIP3    H130071   1.121   5.663   4.099
10062TIP3    H230072   1.021   5.553   4.071
10063TIP3   OH230073   0.941   6.252   4.528
10063TIP3    H130074   0.874   6.190   4.492
10063TIP3    H230075   0.986   6.195   4.594
10064TIP3   OH230076   1.076   6.103   4.715
10064TIP3    H130077   1.067   6.031   4.779
10064TIP3    H230078   1.131   6.165   4.766
10065TIP3   OH230079   2.806   6.502   4.513
10065TIP3    H130080   2.826   6.533   4.604
10065TIP3    H230081   2.866   6.557   4.460
10066TIP3   OH230082   2.832   6.524   4.792
10066TIP3    H130083   2.792   6.434   4.795
10066TIP3    H230084   2.908   6.511   4.851
10067TIP3   OH230085   2.883   6.202   5.371
10067TIP3    H130086   2.808   6.212   5.434
10067TIP3    H230087   2.922   6.291   5.373
10068TIP3   OH230088   2.698   5.714   3.988
10068TIP3    H130089   2.766   5.779   3.961
10068TIP3    H230090   2.740   5.676   4.068
10069TIP3   OH230091   2.824   5.581   4.192
10069TIP3    H130092   2.758   5.540   4.252
10069TIP3    H230093   2.888   5.619   4.255
10070TIP3   OH230094   2.879   5.975   4.626
10070TIP3    H130095   2.932   5.911   4.574
10070TIP3    H230096   2.868   6.049   4.564
10071TIP3   OH230097   2.708   6.273   4.821
10071TIP3    H130098   2.638   6.318   4.871
10071TIP3    H230099   2.657   6.228   4.750
10072TIP3   OH230100   2.761   5.490   3.838
10072TIP3    H130101   2.688   5.494   3.772
10072TIP3    H230102   2.735   5.565   3.895
10073TIP3   OH230103   2.633   5.162   3.792
10073TIP3    H130104   2.589   5.199   3.715
10073TIP3    H230105   2.609   5.067   3.785
10074TIP3   OH230106   2.638   5.439   4.338
10074TIP3    H130107   2.645   5.342   4.334
10074TIP3    H230108   2.623   5.454   4.434
10075TIP3   OH230109   1.264   5.511   5.085
10075TIP3    H130110   1.262   5.482   4.992
10075TIP3    H230111   1.361   5.513   5.102
10076TIP3   OH230112   2.926   5.863   5.196
10076TIP3    H130113   2.999   5.798   5.185
10076TIP3    H230114   2.952   5.935   5.136
10077TIP3   OH230115   3.110   5.666   5.208
10077TIP3    H130116   3.037   5.618   5.252
10077TIP3    H230117   3.183   5.603   5.224
10078TIP3   OH230118   2.576   4.896   3.778
10078TIP3    H130119   2.650   4.866   3.833
10078TIP3    H230120   2.503   4.838   3.802
10079TIP3   OH230121   2.633   5.154   4.233
10079TIP3    H130122   2.674   5.066   4.248
10079TIP3    H230123   2.692   5.188   4.164
10080TIP3   OH230124   2.795   5.327   4.729
10080TIP3    H130125   2.881   5.353   4.688
10080TIP3    H230126   2.809   5.365   4.818
10081TIP3   OH230127   2.864   5.473   4.960
10081TIP3    H130128   2.786   5.509   5.008
10081TIP3    H230129   2.897   5.554   4.915
10082TIP3   OH230130   1.481   5.190   5.765
10082TIP3    H130131   1.579   5.190   5.766
10082TIP3    H230132   1.462   5.101   5.801
10083TIP3   OH230133   2.743   4.905   4.271
10083TIP3    H130134   2.791   4.889   4.355
10083TIP3    H230135   2.682   4.828   4.270
10084TIP3   OH230136   1.444   4.890   5.093
10084TIP3    H130137   1.508   4.817   5.100
10084TIP3    H230138   1.503   4.966   5.085
10085TIP3   OH230139   1.248   5.161   5.168
10085TIP3    H130140   1.296   5.162   5.083
10085TIP3    H230141   1.263   5.251   5.200
10086TIP3   OH230142   3.192   5.203   5.325
10086TIP3    H130143   3.105   5.238   5.350
10086TIP3    H230144   3.167   5.118   5.286
10087TIP3   OH230145   2.822   4.839   3.904
10087TIP3    H130146   2.862   4.767   3.851
10087TIP3    H230147   2.890   4.909   3.899
10088TIP3   OH230148   1.229   4.667   4.664
10088TIP3    H130149   1.135   4.665   4.691
10088TIP3    H230150   1.226   4.726   4.586
10089TIP3   OH230151   2.386   6.371   4.168
10089TIP3    H130152   2.442   6.362   4.089
10089TIP3    H230153   2.435   6.437   4.221
10090TIP3   OH230154   1.450   4.744   5.478
10090TIP3    H130155   1.397   4.743   5.560
10090TIP3    H230156   1.386   4.785   5.416
10091TIP3   OH230157   1.489   6.175   5.555
10091TIP3    H130158   1.397   6.149   5.536
10091TIP3    H230159   1.496   6.154   5.649
10092TIP3   OH230160   1.665   6.209   5.106
10092TIP3    H130161   1.621   6.286   5.063
10092TIP3    H230162   1.754   6.220   5.064
10093TIP3   OH230163   2.111   6.452   5.241
10093TIP3    H130164   2.154   6.454   5.330
10093TIP3    H230165   2.176   6.504   5.189
10094TIP3   OH230166   2.289   6.606   5.101
10094TIP3    H130167   2.359   6.555   5.058
10094TIP3    H230168   2.342   6.662   5.162
10095TIP3   OH230169   3.087   4.967   5.198
10095TIP3    H130170   2.992   4.980   5.184
10095TIP3    H230171   3.087   4.874   5.226
10096TIP3   OH230172   1.339   6.464   5.126
10096TIP3    H130173   1.251   6.501   5.106
10096TIP3    H230174   1.353   6.500   5.215
10097TIP3   OH230175   1.579   6.446   4.989
10097TIP3    H130176   1.491   6.458   5.030
10097TIP3    H230177   1.562   6.476   4.897
10098TIP3   OH230178   2.011   6.473   4.782
10098TIP3    H130179   1.936   6.490   4.721
10098TIP3    H230180   2.019   6.561   4.826
10099TIP3   OH230181   2.275   6.407   4.837
10099TIP3    H130182   2.180   6.422   4.815
10099TIP3    H230183   2.316   6.482   4.791
10100TIP3   OH230184   2.483   6.603   4.750
10100TIP3    H130185   2.468   6.688   4.702
10100TIP3    H230186   2.508   6.543   4.677
10101TIP3   OH230187   1.257   6.255   4.870
10101TIP3    H130188   1.283   6.230   4.961
10101TIP3    H230189   1.332   6.215   4.821
10102TIP3   OH230190   1.459   6.128   4.730
10102TIP3    H130191   1.471   6.046   4.782
10102TIP3    H230192   1.551   6.151   4.708
10103TIP3   OH230193   2.294   4.883   4.821
10103TIP3    H130194   2.249   4.812   4.870
10103TIP3    H230195   2.366   4.834   4.776
10104TIP3   OH230196   2.816   4.759   4.725
10104TIP3    H130197   2.850   4.812   4.650
10104TIP3    H230198   2.720   4.778   4.721
10105TIP3   OH230199   2.908   4.861   4.488
10105TIP3    H130200   2.982   4.810   4.448
10105TIP3    H230201   2.941   4.953   4.474
10106TIP3   OH230202   1.539   4.590   4.836
10106TIP3    H130203   1.446   4.558   4.836
10106TIP3    H230204   1.586   4.504   4.831
10107TIP3   OH230205   1.329   4.459   4.486
10107TIP3    H130206   1.357   4.516   4.412
10107TIP3    H230207   1.298   4.525   4.551
10108TIP3   OH230208   1.985   4.620   4.717
10108TIP3    H130209   2.040   4.668   4.653
10108TIP3    H230210   2.004   4.667   4.799
10109TIP3   OH230211   2.530   4.769   4.699
10109TIP3    H130212   2.530   4.732   4.611
10109TIP3    H230213   2.514   4.689   4.755
10110TIP3   OH230214   2.559   4.692   4.262
10110TIP3    H130215   2.473   4.735   4.276
10110TIP3    H230216   2.545   4.607   4.308
10111TIP3   OH230217   1.043   6.030   4.262
10111TIP3    H130218   0.957   5.999   4.228
10111TIP3    H230219   1.034   6.125   4.246
10112TIP3   OH230220   1.443   4.618   4.248
10112TIP3    H130221   1.492   4.556   4.190
10112TIP3    H230222   1.516   4.672   4.283
10113TIP3   OH230223   1.955   4.794   4.345
10113TIP3    H130224   2.016   4.748   4.405
10113TIP3    H230225   1.975   4.887   4.370
10114TIP3   OH230226   1.810   6.217   3.837
10114TIP3    H130227   1.901   6.239   3.808
10114TIP3    H230228   1.795   6.137   3.784
10115TIP3   OH230229   2.538   6.339   3.937
10115TIP3    H130230   2.529   6.241   3.927
10115TIP3    H230231   2.488   6.370   3.859
10116TIP3   OH230232   1.742   4.867   5.727
10116TIP3    H130233   1.708   4.797   5.785
10116TIP3    H230234   1.837   4.868   5.753
10117TIP3   OH230235   1.992   4.867   5.848
10117TIP3    H130236   2.088   4.868   5.849
10117TIP3    H230237   1.971   4.799   5.916
10118TIP3   OH230238   1.118   6.056   3.903
10118TIP3    H130239   1.118   6.080   3.996
10118TIP3    H230240   1.207   6.016   3.891
10119TIP3   OH230241   2.760   6.482   5.124
10119TIP3    H130242   2.680   6.454   5.076
10119TIP3    H230243   2.745   6.579   5.129
10120TIP3   OH230244   4.028   5.855   3.890
10120TIP3    H130245   3.999   5.946   3.871
10120TIP3    H230246   3.950   5.805   3.860
10121TIP3   OH230247   4.027   5.852   4.273
10121TIP3    H130248   4.059   5.828   4.361
10121TIP3    H230249   3.983   5.771   4.244
10122TIP3   OH230250   3.326   5.748   4.636
10122TIP3    H130251   3.356   5.681   4.700
10122TIP3    H230252   3.400   5.810   4.638
10123TIP3   OH230253   4.270   6.158   3.955
10123TIP3    H130254   4.254   6.089   4.021
10123TIP3    H230255   4.298   6.233   4.010
10124TIP3   OH230256   3.295   6.158   4.358
10124TIP3    H130257   3.287   6.061   4.362
10124TIP3    H230258   3.392   6.168   4.361
10125TIP3   OH230259   3.004   5.362   4.146
10125TIP3    H130260   2.956   5.445   4.164
10125TIP3    H230261   2.932   5.308   4.107
10126TIP3   OH230262   3.061   5.648   4.320
10126TIP3    H130263   3.111   5.572   4.357
10126TIP3    H230264   3.123   5.682   4.254
10127TIP3   OH230265   3.918   6.619   3.970
10127TIP3    H130266   3.965   6.546   3.925
10127TIP3    H230267   3.909   6.585   4.060
10128TIP3   OH230268   3.824   6.079   4.321
10128TIP3    H130269   3.864   6.003   4.275
10128TIP3    H230270   3.907   6.126   4.346
10129TIP3   OH230271   4.840   5.399   4.318
10129TIP3    H130272   4.868   5.482   4.362
10129TIP3    H230273   4.861   5.420   4.225
10130TIP3   OH230274   4.238   5.581   4.353
10130TIP3    H130275   4.280   5.495   4.372
10130TIP3    H230276   4.205   5.566   4.263
10131TIP3   OH230277   3.575   5.241   4.319
10131TIP3    H130278   3.554   5.313   4.256
10131TIP3    H230279   3.527   5.167   4.275
10132TIP3   OH230280   4.268   5.332   3.940
10132TIP3    H130281   4.340   5.316   4.006
10132TIP3    H230282   4.321   5.367   3.866
10133TIP3   OH230283   3.208   5.443   4.426
10133TIP3    H130284   3.291   5.423   4.474
10133TIP3    H230285   3.222   5.387   4.347
10134TIP3   OH230286   3.649   5.640   4.217
10134TIP3    H130287   3.743   5.615   4.231
10134TIP3    H230288   3.610   5.556   4.186
10135TIP3   OH230289   4.912   5.607   4.489
10135TIP3    H130290   4.827   5.653   4.472
10135TIP3    H230291   4.930   5.636   4.580
10136TIP3   OH230292   3.568   5.220   4.753
10136TIP3    H130293   3.509   5.260   4.686
10136TIP3    H230294   3.517   5.241   4.834
10137TIP3   OH230295   3.922   6.078   3.758
10137TIP3    H130296   3.873   6.055   3.678
10137TIP3    H230297   3.876   6.161   3.784
10138TIP3   OH230298   3.677   5.999   4.548
10138TIP3    H130299   3.615   6.065   4.585
10138TIP3    H230300   3.720   6.050   4.476
10139TIP3   OH230301   4.477   5.336   4.113
10139TIP3    H130302   4.468   5.285   4.194
10139TIP3    H230303   4.530   5.412   4.142
10140TIP3   OH230304   3.442   5.338   4.538
10140TIP3    H130305   3.504   5.412   4.561
10140TIP3    H230306   3.491   5.299   4.462
10141TIP3   OH230307   3.506   6.193   4.643
10141TIP3    H130308   3.481   6.281   4.608
10141TIP3    H230309   3.427   6.177   4.700
10142TIP3   OH230310   2.902   5.884   3.882
10142TIP3    H130311   2.857   5.914   3.801
10142TIP3    H230312   2.932   5.969   3.920
10143TIP3   OH230313   4.339   6.399   4.120
10143TIP3    H130314   4.250   6.390   4.161
10143TIP3    H230315   4.330   6.486   4.077
10144TIP3   OH230316   4.624   5.316   4.485
10144TIP3    H130317   4.536   5.335   4.449
10144TIP3    H230318   4.684   5.341   4.412
10145TIP3   OH230319   3.925   4.948   4.462
10145TIP3    H130320   3.916   4.853   4.479
10145TIP3    H230321   3.844   4.984   4.505
10146TIP3   OH230322   4.042   6.444   3.795
10146TIP3    H130323   4.093   6.362   3.775
10146TIP3    H230324   4.102   6.510   3.754
10147TIP3   OH230325   4.186   6.229   3.701
10147TIP3    H130326   4.136   6.152   3.672
10147TIP3    H230327   4.224   6.197   3.787
10148TIP3   OH230328   4.564   6.312   4.466
10148TIP3    H130329   4.553   6.235   4.406
10148TIP3    H230330   4.547   6.387   4.405
10149TIP3   OH230331   3.856   5.705   3.723
10149TIP3    H130332   3.776   5.756   3.702
10149TIP3    H230333   3.902   5.703   3.637
10150TIP3   OH230334   3.814   5.492   3.437
10150TIP3    H130335   3.882   5.541   3.487
10150TIP3    H230336   3.872   5.428   3.390
10151TIP3   OH230337   4.760   5.948   4.310
10151TIP3    H130338   4.677   6.000   4.315
10151TIP3    H230339   4.790   5.973   4.220
10152TIP3   OH230340   4.205   5.789   3.693
10152TIP3    H130341   4.150   5.813   3.771
10152TIP3    H230342   4.288   5.763   3.738
10153TIP3   OH230343   4.438   5.826   4.607
10153TIP3    H130344   4.436   5.910   4.656
10153TIP3    H230345   4.351   5.830   4.561
10154TIP3   OH230346   3.437   5.785   4.111
10154TIP3    H130347   3.396   5.727   4.043
10154TIP3    H230348   3.514   5.732   4.140
10155TIP3   OH230349   3.569   6.201   4.258
10155TIP3    H130350   3.547   6.155   4.175
10155TIP3    H230351   3.659   6.165   4.277
10156TIP3   OH230352   3.577   5.755   4.465
10156TIP3    H130353   3.608   5.737   4.374
10156TIP3    H230354   3.617   5.843   4.485
10157TIP3   OH230355   4.099   6.394   4.242
10157TIP3    H130356   4.085   6.475   4.294
10157TIP3    H230357   4.083   6.322   4.307
10158TIP3   OH230358   3.711   6.311   4.790
10158TIP3    H130359   3.652   6.374   4.837
10158TIP3    H230360   3.645   6.260   4.740
10159TIP3   OH230361   4.045   5.646   3.521
10159TIP3    H130362   4.104   5.706   3.572
10159TIP3    H230363   4.071   5.670   3.428
10160TIP3   OH230364   3.465   5.868   4.891
10160TIP3    H130365   3.471   5.956   4.934
10160TIP3    H230366   3.370   5.850   4.904
10161TIP3   OH230367   3.790   6.323   3.793
10161TIP3    H130368   3.869   6.378   3.811
10161TIP3    H230369   3.726   6.388   3.760
10162TIP3   OH230370   3.506   6.478   4.877
10162TIP3    H130371   3.468   6.481   4.788
10162TIP3    H230372   3.428   6.455   4.932
10163TIP3   OH230373   4.560   4.887   3.569
10163TIP3    H130374   4.479   4.906   3.620
10163TIP3    H230375   4.573   4.970   3.520
10164TIP3   OH230376   3.305   5.628   3.913
10164TIP3    H130377   3.236   5.673   3.859
10164TIP3    H230378   3.264   5.543   3.930
10165TIP3   OH230379   4.359   6.254   3.115
10165TIP3    H130380   4.368   6.351   3.104
10165TIP3    H230381   4.452   6.225   3.103
10166TIP3   OH230382   3.083   6.012   4.824
10166TIP3    H130383   3.016   5.992   4.756
10166TIP3    H230384   3.120   5.924   4.846
10167TIP3   OH230385   2.938   6.207   4.454
10167TIP3    H130386   3.035   6.205   4.452
10167TIP3    H230387   2.922   6.285   4.509
10168TIP3   OH230388   4.801   6.656   4.511
10168TIP3    H130389   4.801   6.561   4.528
10168TIP3    H230390   4.719   6.683   4.558
10169TIP3   OH230391   3.908   6.441   4.646
10169TIP3    H130392   3.907   6.534   4.679
10169TIP3    H230393   3.837   6.402   4.702
10170TIP3   OH230394   3.670   6.573   3.597
10170TIP3    H130395   3.621   6.556   3.515
10170TIP3    H230396   3.637   6.661   3.624
10171TIP3   OH230397   3.108   6.421   3.983
10171TIP3    H130398   3.156   6.413   4.068
10171TIP3    H230399   3.049   6.344   3.989
10172TIP3   OH230400   3.870   6.473   3.238
10172TIP3    H130401   3.930   6.403   3.203
10172TIP3    H230402   3.903   6.483   3.329
10173TIP3   OH230403   3.921   6.520   3.507
10173TIP3    H130404   3.833   6.531   3.549
10173TIP3    H230405   3.972   6.482   3.580
10174TIP3   OH230406   4.696   5.778   4.797
10174TIP3    H130407   4.617   5.807   4.748
10174TIP3    H230408   4.707   5.686   4.764
10175TIP3   OH230409   3.290   6.192   4.807
10175TIP3    H130410   3.335   6.185   4.893
10175TIP3    H230411   3.214   6.131   4.819
10176TIP3   OH230412   3.682   5.031   4.573
10176TIP3    H130413   3.592   4.997   4.552
10176TIP3    H230414   3.657   5.112   4.621
10177TIP3   OH230415   4.222   5.137   4.790
10177TIP3    H130416   4.273   5.085   4.854
10177TIP3    H230417   4.129   5.117   4.818
10178TIP3   OH230418   4.456   5.563   4.714
10178TIP3    H130419   4.406   5.564   4.799
10178TIP3    H230420   4.435   5.650   4.675
10179TIP3   OH230421   4.120   5.693   3.265
10179TIP3    H130422   4.088   5.667   3.176
10179TIP3    H230423   4.203   5.740   3.241
10180TIP3   OH230424   3.834   5.068   3.567
10180TIP3    H130425   3.800   5.065   3.659
10180TIP3    H230426   3.795   4.985   3.533
10181TIP3   OH230427   3.620   5.534   4.615
10181TIP3    H130428   3.569   5.555   4.696
10181TIP3    H230429   3.605   5.615   4.562
10182TIP3   OH230430   3.503   5.421   4.128
10182TIP3    H130431   3.411   5.394   4.147
10182TIP3    H230432   3.516   5.379   4.040
10183TIP3   OH230433   3.995   5.507   3.857
10183TIP3    H130434   3.942   5.578   3.815
10183TIP3    H230435   4.049   5.475   3.783
10184TIP3   OH230436   4.168   5.781   4.938
10184TIP3    H130437   4.144   5.714   5.006
10184TIP3    H230438   4.259   5.804   4.965
10185TIP3   OH230439   4.152   5.534   4.095
10185TIP3    H130440   4.090   5.564   4.025
10185TIP3    H230441   4.185   5.453   4.052
10186TIP3   OH230442   3.440   5.563   4.823
10186TIP3    H130443   3.460   5.629   4.891
10186TIP3    H230444   3.427   5.482   4.876
10187TIP3   OH230445   3.489   5.041   3.533
10187TIP3    H130446   3.481   5.039   3.630
10187TIP3    H230447   3.410   5.093   3.509
10188TIP3   OH230448   3.031   5.085   4.403
10188TIP3    H130449   3.106   5.118   4.458
10188TIP3    H230450   3.074   5.054   4.322
10189TIP3   OH230451   3.003   5.066   3.923
10189TIP3    H130452   3.049   5.104   3.845
10189TIP3    H230453   2.942   5.139   3.944
10190TIP3   OH230454   4.163   5.781   4.517
10190TIP3    H130455   4.195   5.709   4.458
10190TIP3    H230456   4.131   5.728   4.593
10191TIP3   OH230457   3.832   5.244   4.190
10191TIP3    H130458   3.750   5.242   4.244
10191TIP3    H230459   3.901   5.237   4.257
10192TIP3   OH230460   3.266   5.299   4.197
10192TIP3    H130461   3.171   5.307   4.170
10192TIP3    H230462   3.288   5.207   4.174
10193TIP3   OH230463   3.533   5.294   3.887
10193TIP3    H130464   3.627   5.309   3.866
10193TIP3    H230465   3.487   5.317   3.804
10194TIP3   OH230466   4.324   5.319   4.393
10194TIP3    H130467   4.287   5.330   4.484
10194TIP3    H230468   4.261   5.256   4.356
10195TIP3   OH230469   3.377   5.329   3.665
10195TIP3    H130470   3.304   5.284   3.618
10195TIP3    H230471   3.428   5.364   3.590
10196TIP3   OH230472   4.495   7.006   4.612
10196TIP3    H130473   4.492   7.034   4.519
10196TIP3    H230474   4.568   7.059   4.647
10197TIP3   OH230475   3.452   6.113   5.033
10197TIP3    H130476   3.530   6.148   5.081
10197TIP3    H230477   3.385   6.119   5.104
10198TIP3   OH230478   3.914   5.572   4.288
10198TIP3    H130479   3.986   5.530   4.238
10198TIP3    H230480   3.921   5.529   4.375
10199TIP3   OH230481   3.436   5.058   4.167
10199TIP3    H130482   3.401   4.979   4.214
10199TIP3    H230483   3.487   5.018   4.095
10200TIP3   OH230484   3.889   5.469   4.576
10200TIP3    H130485   3.799   5.505   4.590
10200TIP3    H230486   3.946   5.531   4.626
10201TIP3   OH230487   3.628   5.858   3.671
10201TIP3    H130488   3.555   5.793   3.660
10201TIP3    H230489   3.609   5.892   3.762
10202TIP3   OH230490   4.528   6.094   4.301
10202TIP3    H130491   4.551   6.144   4.220
10202TIP3    H230492   4.442   6.053   4.275
10203TIP3   OH230493   4.084   5.171   3.532
10203TIP3    H130494   3.988   5.152   3.544
10203TIP3    H230495   4.093   5.265   3.560
10204TIP3   OH230496   4.027   6.177   4.670
10204TIP3    H130497   4.050   6.159   4.762
10204TIP3    H230498   3.987   6.266   4.675
10205TIP3   OH230499   4.154   5.418   3.638
10205TIP3    H130500   4.250   5.424   3.655
10205TIP3    H230501   4.136   5.498   3.586
10206TIP3   OH230502   3.319   5.879   4.348
10206TIP3    H130503   3.359   5.850   4.263
10206TIP3    H230504   3.360   5.818   4.412
10207TIP3   OH230505   3.771   6.007   3.491
10207TIP3    H130506   3.723   6.093   3.497
10207TIP3    H230507   3.717   5.952   3.552
10208TIP3   OH230508   3.203   5.798   4.960
10208TIP3    H130509   3.221   5.787   5.055
10208TIP3    H230510   3.131   5.734   4.947
10209TIP3   OH230511   3.926   5.914   4.982
10209TIP3    H130512   3.864   5.857   4.934
10209TIP3    H230513   4.012   5.882   4.948
10210TIP3   OH230514   4.186   6.434   4.564
10210TIP3    H130515   4.090   6.435   4.578
10210TIP3    H230516   4.216   6.486   4.642
10211TIP3   OH230517   4.597   5.508   3.473
10211TIP3    H130518   4.534   5.464   3.411
10211TIP3    H230519   4.593   5.598   3.433
10212TIP3   OH230520   4.814   6.364   4.555
10212TIP3    H130521   4.717   6.361   4.546
10212TIP3    H230522   4.841   6.336   4.465
10213TIP3   OH230523   4.298   6.328   3.382
10213TIP3    H130524   4.271   6.262   3.447
10213TIP3    H230525   4.308   6.276   3.300
10214TIP3   OH230526   4.293   5.957   4.218
10214TIP3    H130527   4.200   5.932   4.232
10214TIP3    H230528   4.326   5.876   4.174
10215TIP3   OH230529   3.420   6.182   3.968
10215TIP3    H130530   3.418   6.266   3.917
10215TIP3    H230531   3.326   6.170   3.989
10216TIP3   OH230532   2.984   5.489   3.676
10216TIP3    H130533   3.030   5.572   3.698
10216TIP3    H230534   2.907   5.493   3.737
10217TIP3   OH230535   3.559   5.949   3.915
10217TIP3    H130536   3.522   6.038   3.933
10217TIP3    H230537   3.523   5.899   3.991
10218TIP3   OH230538   3.690   6.528   4.441
10218TIP3    H130539   3.732   6.602   4.393
10218TIP3    H230540   3.766   6.494   4.492
10219TIP3   OH230541   3.339   6.424   3.824
10219TIP3    H130542   3.254   6.431   3.871
10219TIP3    H230543   3.370   6.517   3.828
10220TIP3   OH230544   4.077   6.161   4.401
10220TIP3    H130545   4.067   6.162   4.499
10220TIP3    H230546   4.158   6.111   4.391
10221TIP3   OH230547   4.053   6.057   3.283
10221TIP3    H130548   4.107   6.031   3.361
10221TIP3    H230549   3.965   6.029   3.313
10222TIP3   OH230550   4.327   6.693   4.450
10222TIP3    H130551   4.247   6.638   4.444
10222TIP3    H230552   4.310   6.758   4.379
10223TIP3   OH230553   4.392   6.530   3.103
10223TIP3    H130554   4.431   6.606   3.056
10223TIP3    H230555   4.311   6.574   3.137
10224TIP3   OH230556   3.412   5.307   4.967
10224TIP3    H130557   3.316   5.309   4.984
10224TIP3    H230558   3.444   5.252   5.040
10225TIP3   OH230559   4.213   5.985   3.495
10225TIP3    H130560   4.202   5.922   3.569
10225TIP3    H230561   4.311   5.985   3.487
10226TIP3   OH230562   3.130   6.390   4.600
10226TIP3    H130563   3.184   6.321   4.641
10226TIP3    H230564   3.147   6.465   4.659
10227TIP3   OH230565   3.418   6.035   3.282
10227TIP3    H130566   3.432   5.942   3.256
10227TIP3    H230567   3.400   6.025   3.378
10228TIP3   OH230568   3.364   6.041   3.554
10228TIP3    H130569   3.433   6.013   3.616
10228TIP3    H230570   3.367   6.139   3.563
10229TIP3   OH230571   3.098   5.733   3.759
10229TIP3    H130572   3.032   5.778   3.817
10229TIP3    H230573   3.112   5.803   3.692
10230TIP3   OH230574   4.246   5.375   4.654
10230TIP3    H130575   4.332   5.408   4.685
10230TIP3    H230576   4.235   5.292   4.704
10231TIP3   OH230577   4.130   5.121   3.816
10231TIP3    H130578   4.116   5.145   3.722
10231TIP3    H230579   4.169   5.203   3.853
10232TIP3   OH230580   3.629   6.238   3.501
10232TIP3    H130581   3.543   6.262   3.540
10232TIP3    H230582   3.646   6.316   3.447
10233TIP3   OH230583   3.817   5.302   3.918
10233TIP3    H130584   3.882   5.374   3.902
10233TIP3    H230585   3.822   5.293   4.016
10234TIP3   OH230586   4.085   5.619   4.722
10234TIP3    H130587   4.109   5.672   4.800
10234TIP3    H230588   4.140   5.539   4.731
10235TIP3   OH230589   3.961   5.027   4.019
10235TIP3    H130590   3.958   5.102   4.081
10235TIP3    H230591   4.022   5.062   3.951
10236TIP3   OH230592   3.374   6.313   3.572
10236TIP3    H130593   3.343   6.384   3.511
10236TIP3    H230594   3.357   6.356   3.659
10237TIP3   OH230595   3.474   5.027   3.809
10237TIP3    H130596   3.472   5.117   3.847
10237TIP3    H230597   3.570   5.008   3.817
10238TIP3   OH230598   4.723   5.520   4.705
10238TIP3    H130599   4.625   5.516   4.709
10238TIP3    H230600   4.738   5.475   4.621
10239TIP3   OH230601   4.379   5.714   4.094
10239TIP3    H130602   4.302   5.655   4.107
10239TIP3    H230603   4.450   5.667   4.143
10240TIP3   OH230604   3.091   5.942   3.564
10240TIP3    H130605   3.157   6.013   3.575
10240TIP3    H230606   3.137   5.887   3.497
10241TIP3   OH230607   3.036   5.219   3.697
10241TIP3    H130608   3.034   5.317   3.694
10241TIP3    H230609   2.952   5.196   3.656
10242TIP3   OH230610   4.347   6.670   4.042
10242TIP3    H130611   4.305   6.716   3.967
10242TIP3    H230612   4.441   6.689   4.022
10243TIP3   OH230613   3.422   4.942   4.566
10243TIP3    H130614   3.390   4.908   4.480
10243TIP3    H230615   3.411   4.862   4.623
10244TIP3   OH230616   2.960   6.154   3.950
10244TIP3    H130617   2.895   6.186   4.014
10244TIP3    H230618   2.928   6.197   3.867
10245TIP3   OH230619   3.135   6.693   4.993
10245TIP3    H130620   3.206   6.706   5.059
10245TIP3    H230621   3.097   6.608   5.021
10246TIP3   OH230622   3.600   6.663   5.068
10246TIP3    H130623   3.695   6.647   5.074
10246TIP3    H230624   3.575   6.603   4.995
10247TIP3   OH230625   3.580   6.238   3.193
10247TIP3    H130626   3.523   6.169   3.234
10247TIP3    H230627   3.657   6.183   3.169
10248TIP3   OH230628   4.244   6.567   4.797
10248TIP3    H130629   4.233   6.500   4.868
10248TIP3    H230630   4.318   6.621   4.831
10249TIP3   OH230631   4.018   6.278   3.108
10249TIP3    H130632   4.057   6.213   3.170
10249TIP3    H230633   4.080   6.276   3.033
10250TIP3   OH230634   3.250   6.105   5.223
10250TIP3    H130635   3.265   6.008   5.227
10250TIP3    H230636   3.162   6.109   5.180
10251TIP3   OH230637   3.227   5.756   3.417
10251TIP3    H130638   3.281   5.723   3.491
10251TIP3    H230639   3.296   5.760   3.346
10252TIP3   OH230640   3.859   6.192   4.996
10252TIP3    H130641   3.815   6.210   4.911
10252TIP3    H230642   3.887   6.098   4.986
10253TIP3   OH230643   3.737   5.956   3.222
10253TIP3    H130644   3.739   5.968   3.319
10253TIP3    H230645   3.737   5.858   3.217
10254TIP3   OH230646   4.349   6.199   4.604
10254TIP3    H130647   4.423   6.245   4.560
10254TIP3    H230648   4.278   6.264   4.592
10255TIP3   OH230649   3.367   5.837   5.208
10255TIP3    H130650   3.445   5.786   5.185
10255TIP3    H230651   3.393   5.874   5.295
10256TIP3   OH230652   3.434   5.661   3.638
10256TIP3    H130653   3.406   5.621   3.722
10256TIP3    H230654   3.470   5.584   3.590
10257TIP3   OH230655   3.705   5.725   4.869
10257TIP3    H130656   3.626   5.783   4.870
10257TIP3    H230657   3.753   5.759   4.790
10258TIP3   OH230658   3.535   5.454   3.479
10258TIP3    H130659   3.509   5.458   3.384
10258TIP3    H230660   3.633   5.459   3.472
10259TIP3   OH230661   4.216   6.124   5.000
10259TIP3    H130662   4.302   6.106   4.958
10259TIP3    H230663   4.216   6.062   5.075
10260TIP3   OH230664   4.356   5.785   3.142
10260TIP3    H130665   4.335   5.738   3.059
10260TIP3    H230666   4.323   5.875   3.119
10261TIP3   OH230667   3.831   5.514   4.990
10261TIP3    H130668   3.826   5.435   4.932
10261TIP3    H230669   3.785   5.581   4.935
10262TIP3   OH230670   3.824   5.306   4.799
10262TIP3    H130671   3.851   5.346   4.714
10262TIP3    H230672   3.731   5.280   4.780
10263TIP3   OH230673   3.856   5.834   4.673
10263TIP3    H130674   3.939   5.847   4.626
10263TIP3    H230675   3.798   5.901   4.630
10264TIP3   OH230676   4.437   5.807   5.056
10264TIP3    H130677   4.490   5.727   5.049
10264TIP3    H230678   4.498   5.875   5.023
10265TIP3   OH230679   4.481   6.051   4.787
10265TIP3    H130680   4.421   6.105   4.731
10265TIP3    H230681   4.567   6.076   4.747
10266TIP3   OH230682   3.710   5.623   5.224
10266TIP3    H130683   3.638   5.558   5.239
10266TIP3    H230684   3.739   5.599   5.134
10267TIP3   OH230685   3.968   5.082   4.862
10267TIP3    H130686   3.911   5.158   4.837
10267TIP3    H230687   3.907   5.007   4.847
10268TIP3   OH230688   4.087   5.564   5.083
10268TIP3    H130689   4.067   5.555   5.178
10268TIP3    H230690   3.999   5.542   5.047
10269TIP3   OH230691   4.327   5.516   4.952
10269TIP3    H130692   4.238   5.531   4.992
10269TIP3    H230693   4.367   5.459   5.017
10270TIP3   OH230694   3.543   5.412   5.278
10270TIP3    H130695   3.552   5.324   5.236
10270TIP3    H230696   3.579   5.395   5.367
10271TIP3   OH230697   4.016   5.084   5.130
10271TIP3    H130698   4.035   4.989   5.127
10271TIP3    H230699   3.995   5.097   5.035
10272TIP3   OH230700   4.127   5.295   5.276
10272TIP3    H130701   4.091   5.226   5.216
10272TIP3    H230702   4.050   5.357   5.281
10273TIP3   OH230703   3.343   6.516   3.383
10273TIP3    H130704   3.438   6.510   3.365
10273TIP3    H230705   3.314   6.567   3.305
10274TIP3   OH230706   2.821   5.899   3.596
10274TIP3    H130707   2.917   5.920   3.586
10274TIP3    H230708   2.817   5.809   3.557
10275TIP3   OH230709   2.741   6.510   4.014
10275TIP3    H130710   2.672   6.449   3.979
10275TIP3    H230711   2.783   6.452   4.081
10276TIP3   OH230712   2.875   6.359   4.200
10276TIP3    H130713   2.861   6.289   4.266
10276TIP3    H230714   2.925   6.423   4.255
10277TIP3   OH230715   4.601   6.760   4.001
10277TIP3    H130716   4.625   6.790   4.091
10277TIP3    H230717   4.663   6.810   3.946
10278TIP3   OH230718   4.631   6.780   4.281
10278TIP3    H130719   4.586   6.693   4.279
10278TIP3    H230720   4.703   6.759   4.343
10279TIP3   OH230721   4.676   6.456   4.856
10279TIP3    H130722   4.603   6.467   4.921
10279TIP3    H230723   4.719   6.545   4.860
10280TIP3   OH230724   4.493   5.971   3.475
10280TIP3    H130725   4.562   6.035   3.448
10280TIP3    H230726   4.535   5.932   3.555
10281TIP3   OH230727   4.620   5.838   3.679
10281TIP3    H130728   4.554   5.796   3.739
10281TIP3    H230729   4.684   5.876   3.743
10282TIP3   OH230730   4.674   6.231   4.111
10282TIP3    H130731   4.728   6.166   4.062
10282TIP3    H230732   4.666   6.304   4.047
10283TIP3   OH230733   4.504   6.531   4.306
10283TIP3    H130734   4.434   6.574   4.359
10283TIP3    H230735   4.453   6.484   4.237
10284TIP3   OH230736   4.558   5.747   3.325
10284TIP3    H130737   4.485   5.749   3.259
10284TIP3    H230738   4.531   5.822   3.382
10285TIP3   OH230739   4.429   5.419   3.279
10285TIP3    H130740   4.384   5.455   3.202
10285TIP3    H230741   4.405   5.324   3.272
10286TIP3   OH230742   4.433   5.695   3.825
10286TIP3    H130743   4.441   5.598   3.820
10286TIP3    H230744   4.419   5.709   3.921
10287TIP3   OH230745   3.060   5.766   4.573
10287TIP3    H130746   3.058   5.736   4.480
10287TIP3    H230747   3.158   5.768   4.589
10288TIP3   OH230748   4.722   6.121   4.681
10288TIP3    H130749   4.796   6.056   4.672
10288TIP3    H230750   4.750   6.192   4.621
10289TIP3   OH230751   4.904   5.924   4.697
10289TIP3    H130752   4.833   5.872   4.741
10289TIP3    H230753   4.980   5.863   4.711
10290TIP3   OH230754   4.372   5.153   3.264
10290TIP3    H130755   4.446   5.122   3.320
10290TIP3    H230756   4.299   5.095   3.289
10291TIP3   OH230757   4.430   5.411   3.720
10291TIP3    H130758   4.470   5.322   3.735
10291TIP3    H230759   4.489   5.444   3.650
10292TIP3   OH230760   4.592   5.584   4.217
10292TIP3    H130761   4.677   5.610   4.176
10292TIP3    H230762   4.605   5.621   4.306
10293TIP3   OH230763   4.661   5.730   4.450
10293TIP3    H130764   4.582   5.764   4.496
10293TIP3    H230765   4.693   5.810   4.403
10294TIP3   OH230766   3.275   5.453   5.245
10294TIP3    H130767   3.373   5.450   5.251
10294TIP3    H230768   3.252   5.367   5.287
10295TIP3   OH230769   5.136   5.348   4.999
10295TIP3    H130770   5.145   5.255   4.978
10295TIP3    H230771   5.073   5.381   4.931
10296TIP3   OH230772   4.539   5.161   3.758
10296TIP3    H130773   4.586   5.145   3.842
10296TIP3    H230774   4.478   5.084   3.756
10297TIP3   OH230775   3.238   5.149   4.577
10297TIP3    H130776   3.300   5.074   4.587
10297TIP3    H230777   3.300   5.223   4.571
10298TIP3   OH230778   3.041   5.420   4.651
10298TIP3    H130779   3.091   5.417   4.567
10298TIP3    H230780   3.065   5.507   4.685
10299TIP3   OH230781   4.988   5.458   4.792
10299TIP3    H130782   4.898   5.481   4.821
10299TIP3    H230783   4.967   5.374   4.747
10300TIP3   OH230784   4.618   5.096   3.390
10300TIP3    H130785   4.658   5.023   3.338
10300TIP3    H230786   4.687   5.165   3.385
10301TIP3   OH230787   3.025   4.924   4.151
10301TIP3    H130788   2.932   4.921   4.179
10301TIP3    H230789   3.021   4.983   4.073
10302TIP3   OH230790   4.183   6.628   3.656
10302TIP3    H130791   4.238   6.617   3.576
10302TIP3    H230792   4.233   6.693   3.707
10303TIP3   OH230793   3.233   4.982   4.960
10303TIP3    H130794   3.188   4.991   5.047
10303TIP3    H230795   3.174   5.036   4.904
10304TIP3   OH230796   3.290   6.414   5.042
10304TIP3    H130797   3.195   6.405   5.026
10304TIP3    H230798   3.293   6.420   5.138
10305TIP3   OH230799   3.464   6.462   4.588
10305TIP3    H130800   3.414   6.538   4.553
10305TIP3    H230801   3.549   6.480   4.544
10306TIP3   OH230802   3.908   6.707   4.725
10306TIP3    H130803   3.947   6.708   4.815
10306TIP3    H230804   3.974   6.761   4.675
10307TIP3   OH230805   4.088   6.861   4.586
10307TIP3    H130806   4.161   6.809   4.550
10307TIP3    H230807   4.136   6.919   4.649
10308TIP3   OH230808   4.889   5.220   4.678
10308TIP3    H130809   4.796   5.233   4.651
10308TIP3    H230810   4.888   5.124   4.689
10309TIP3   OH230811   3.140   6.721   4.616
10309TIP3    H130812   3.050   6.753   4.597
10309TIP3    H230813   3.154   6.759   4.704
10310TIP3   OH230814   3.375   6.699   4.472
10310TIP3    H130815   3.289   6.712   4.520
10310TIP3    H230816   3.353   6.734   4.384
10311TIP3   OH230817   3.803   6.729   4.268
10311TIP3    H130818   3.730   6.750   4.206
10311TIP3    H230819   3.814   6.815   4.314
10312TIP3   OH230820   4.070   6.666   4.318
10312TIP3    H130821   3.976   6.684   4.301
10312TIP3    H230822   4.112   6.746   4.283
10313TIP3   OH230823   4.279   6.860   4.237
10313TIP3    H130824   4.264   6.944   4.189
10313TIP3    H230825   4.303   6.799   4.164
10314TIP3   OH230826   3.053   6.516   4.356
10314TIP3    H130827   3.077   6.490   4.448
10314TIP3    H230828   3.125   6.471   4.308
10315TIP3   OH230829   3.247   6.386   4.214
10315TIP3    H130830   3.260   6.302   4.265
10315TIP3    H230831   3.338   6.422   4.213
10316TIP3   OH230832   3.513   6.481   4.219
10316TIP3    H130833   3.543   6.388   4.212
10316TIP3    H230834   3.556   6.504   4.304
10317TIP3   OH230835   4.085   5.137   4.303
10317TIP3    H130836   4.043   5.068   4.358
10317TIP3    H230837   4.160   5.088   4.263
10318TIP3   OH230838   4.611   5.019   4.213
10318TIP3    H130839   4.645   5.070   4.136
10318TIP3    H230840   4.515   5.033   4.206
10319TIP3   OH230841   4.705   5.118   3.975
10319TIP3    H130842   4.778   5.066   3.935
10319TIP3    H230843   4.738   5.210   3.960
10320TIP3   OH230844   3.335   4.846   4.321
10320TIP3    H130845   3.242   4.813   4.323
10320TIP3    H230846   3.383   4.760   4.318
10321TIP3   OH230847   3.122   4.716   3.972
10321TIP3    H130848   3.152   4.774   3.899
10321TIP3    H230849   3.094   4.782   4.038
10322TIP3   OH230850   3.779   4.879   4.204
10322TIP3    H130851   3.837   4.927   4.142
10322TIP3    H230852   3.805   4.917   4.289
10323TIP3   OH230853   4.329   5.027   4.186
10323TIP3    H130854   4.326   4.986   4.098
10323TIP3    H230855   4.313   4.948   4.243
10324TIP3   OH230856   4.356   4.948   3.749
10324TIP3    H130857   4.269   4.990   3.763
10324TIP3    H230858   4.342   4.863   3.796
10325TIP3   OH230859   2.841   6.286   3.747
10325TIP3    H130860   2.755   6.254   3.715
10325TIP3    H230861   2.829   6.382   3.736
10326TIP3   OH230862   3.240   4.876   3.733
10326TIP3    H130863   3.288   4.812   3.677
10326TIP3    H230864   3.313   4.929   3.769
10327TIP3   OH230865   3.751   5.052   3.832
10327TIP3    H130866   3.811   5.004   3.892
10327TIP3    H230867   3.772   5.144   3.858
10328TIP3   OH230868   3.610   6.474   3.331
10328TIP3    H130869   3.699   6.496   3.296
10328TIP3    H230870   3.589   6.398   3.272
10329TIP3   OH230871   4.333   6.595   3.424
10329TIP3    H130872   4.323   6.497   3.414
10329TIP3    H230873   4.285   6.627   3.345
10330TIP3   OH230874   3.553   5.155   5.188
10330TIP3    H130875   3.496   5.103   5.246
10330TIP3    H230876   3.642   5.137   5.226
10331TIP3   OH230877   3.793   5.115   5.331
10331TIP3    H130878   3.869   5.111   5.270
10331TIP3    H230879   3.813   5.042   5.391
10332TIP3   OH230880   2.914   6.313   3.389
10332TIP3    H130881   2.912   6.334   3.483
10332TIP3    H230882   3.003   6.272   3.378
10333TIP3   OH230883   4.557   6.738   4.610
10333TIP3    H130884   4.476   6.706   4.564
10333TIP3    H230885   4.536   6.833   4.617
10334TIP3   OH230886   5.825   6.113   3.376
10334TIP3    H130887   5.793   6.204   3.356
10334TIP3    H230888   5.748   6.061   3.348
10335TIP3   OH230889   5.822   6.111   3.763
10335TIP3    H130890   5.856   6.084   3.850
10335TIP3    H230891   5.780   6.028   3.732
10336TIP3   OH230892   5.121   6.005   4.124
10336TIP3    H130893   5.150   5.937   4.187
10336TIP3    H230894   5.197   6.064   4.125
10337TIP3   OH230895   6.064   6.412   3.443
10337TIP3    H130896   6.048   6.333   3.497
10337TIP3    H230897   6.096   6.474   3.509
10338TIP3   OH230898   5.091   6.415   3.845
10338TIP3    H130899   5.082   6.317   3.848
10338TIP3    H230900   5.187   6.424   3.852
10339TIP3   OH230901   4.800   5.619   3.633
10339TIP3    H130902   4.751   5.702   3.650
10339TIP3    H230903   4.729   5.564   3.595
10340TIP3   OH230904   4.858   5.905   3.807
10340TIP3    H130905   4.906   5.828   3.844
10340TIP3    H230906   4.919   5.936   3.739
10341TIP3   OH230907   5.713   6.873   3.458
10341TIP3    H130908   5.763   6.801   3.413
10341TIP3    H230909   5.695   6.835   3.545
10342TIP3   OH230910   5.621   6.337   3.806
10342TIP3    H130911   5.659   6.258   3.764
10342TIP3    H230912   5.705   6.381   3.831
10343TIP3   OH230913   6.638   5.659   3.796
10343TIP3    H130914   6.662   5.740   3.844
10343TIP3    H230915   6.665   5.681   3.705
10344TIP3   OH230916   6.034   5.840   3.839
10344TIP3    H130917   6.076   5.755   3.862
10344TIP3    H230918   6.001   5.821   3.749
10345TIP3   OH230919   5.370   5.498   3.805
10345TIP3    H130920   5.351   5.570   3.742
10345TIP3    H230921   5.322   5.424   3.762
10346TIP3   OH230922   6.065   5.587   3.427
10346TIP3    H130923   6.136   5.571   3.494
10346TIP3    H230924   6.119   5.624   3.354
10347TIP3   OH230925   5.004   5.699   3.912
10347TIP3    H130926   5.087   5.680   3.961
10347TIP3    H230927   5.017   5.643   3.833
10348TIP3   OH230928   5.446   5.897   3.704
10348TIP3    H130929   5.539   5.871   3.719
10348TIP3    H230930   5.406   5.812   3.674
10349TIP3   OH230931   6.709   5.869   3.969
10349TIP3    H130932   6.620   5.908   3.954
10349TIP3    H230933   6.715   5.879   4.065
10350TIP3   OH230934   5.365   5.480   4.240
10350TIP3    H130935   5.306   5.518   4.172
10350TIP3    H230936   5.314   5.498   4.321
10351TIP3   OH230937   5.717   6.335   3.245
10351TIP3    H130938   5.669   6.309   3.166
10351TIP3    H230939   5.671   6.418   3.268
10352TIP3   OH230940   5.474   6.256   4.034
10352TIP3    H130941   5.411   6.321   4.073
10352TIP3    H230942   5.515   6.310   3.963
10353TIP3   OH230943   6.274   5.592   3.601
10353TIP3    H130944   6.257   5.546   3.684
10353TIP3    H230945   6.327   5.669   3.630
10354TIP3   OH230946   5.238   5.596   4.024
10354TIP3    H130947   5.300   5.668   4.048
10354TIP3    H230948   5.287   5.555   3.949
10355TIP3   OH230949   5.300   6.449   4.129
10355TIP3    H130950   5.275   6.538   4.096
10355TIP3    H230951   5.222   6.432   4.188
10356TIP3   OH230952   4.697   6.141   3.369
10356TIP3    H130953   4.653   6.170   3.287
10356TIP3    H230954   4.728   6.226   3.406
10357TIP3   OH230955   6.136   6.648   3.614
10357TIP3    H130956   6.049   6.640   3.661
10357TIP3    H230957   6.109   6.695   3.534
10358TIP3   OH230958   6.430   5.605   3.978
10358TIP3    H130959   6.340   5.588   3.945
10358TIP3    H230960   6.484   5.604   3.898
10359TIP3   OH230961   5.716   5.206   3.945
10359TIP3    H130962   5.713   5.111   3.965
10359TIP3    H230963   5.637   5.238   3.994
10360TIP3   OH230964   5.849   6.706   3.288
10360TIP3    H130965   5.892   6.621   3.263
10360TIP3    H230966   5.911   6.770   3.246
10361TIP3   OH230967   5.982   6.487   3.190
10361TIP3    H130968   5.936   6.410   3.154
10361TIP3    H230969   6.016   6.451   3.274
10362TIP3   OH230970   6.359   6.571   3.949
10362TIP3    H130971   6.349   6.489   3.896
10362TIP3    H230972   6.351   6.641   3.881
10363TIP3   OH230973   5.653   5.962   3.210
10363TIP3    H130974   5.572   6.013   3.188
10363TIP3    H230975   5.698   5.959   3.124
10364TIP3   OH230976   5.611   5.749   2.924
10364TIP3    H130977   5.679   5.798   2.974
10364TIP3    H230978   5.667   5.684   2.877
10365TIP3   OH230979   6.557   6.208   3.797
10365TIP3    H130980   6.474   6.259   3.804
10365TIP3    H230981   6.584   6.230   3.706
10366TIP3   OH230982   6.002   6.046   3.180
10366TIP3    H130983   5.946   6.069   3.258
10366TIP3    H230984   6.084   6.018   3.224
10367TIP3   OH230985   6.235   6.084   4.094
10367TIP3    H130986   6.233   6.165   4.148
10367TIP3    H230987   6.148   6.089   4.050
10368TIP3   OH230988   5.235   6.043   3.597
10368TIP3    H130989   5.193   5.984   3.530
10368TIP3    H230990   5.310   5.988   3.627
10369TIP3   OH230991   5.367   6.460   3.742
10369TIP3    H130992   5.342   6.411   3.663
10369TIP3    H230993   5.456   6.423   3.763
10370TIP3   OH230994   5.371   6.013   3.951
10370TIP3    H130995   5.404   5.992   3.862
10370TIP3    H230996   5.413   6.099   3.971
10371TIP3   OH230997   5.896   6.650   3.735
10371TIP3    H130998   5.886   6.719   3.802
10371TIP3    H230999   5.880   6.569   3.787
10372TIP3   OH231000   5.508   6.568   4.272
10372TIP3    H131001   5.453   6.630   4.324
10372TIP3    H231002   5.438   6.517   4.226
10373TIP3   OH231003   5.841   5.903   3.007
10373TIP3    H131004   5.900   5.962   3.059
10373TIP3    H231005   5.867   5.926   2.915
10374TIP3   OH231006   5.261   6.127   4.376
10374TIP3    H131007   5.267   6.214   4.421
10374TIP3    H231008   5.166   6.108   4.390
10375TIP3   OH231009   5.589   6.581   3.275
10375TIP3    H131010   5.659   6.641   3.304
10375TIP3    H231011   5.521   6.642   3.243
10376TIP3   OH231012   5.302   6.731   4.362
10376TIP3    H131013   5.261   6.731   4.274
10376TIP3    H231014   5.225   6.714   4.421
10377TIP3   OH231015   6.354   5.144   3.056
10377TIP3    H131016   6.272   5.165   3.106
10377TIP3    H231017   6.370   5.226   3.006
10378TIP3   OH231018   5.101   5.886   3.400
10378TIP3    H131019   5.031   5.928   3.346
10378TIP3    H231020   5.062   5.799   3.417
10379TIP3   OH231021   6.156   6.512   2.603
10379TIP3    H131022   6.165   6.608   2.590
10379TIP3    H231023   6.248   6.482   2.590
10380TIP3   OH231024   4.879   6.269   4.310
10380TIP3    H131025   4.813   6.246   4.242
10380TIP3    H231026   4.917   6.182   4.334
10381TIP3   OH231027   4.734   6.464   3.939
10381TIP3    H131028   4.830   6.458   3.936
10381TIP3    H231029   4.721   6.541   3.997
10382TIP3   OH231030   6.600   6.910   3.995
10382TIP3    H131031   6.600   6.815   4.016
10382TIP3    H231032   6.518   6.938   4.042
10383TIP3   OH231033   5.700   6.700   4.128
10383TIP3    H131034   5.702   6.791   4.166
10383TIP3    H231035   5.632   6.659   4.186
10384TIP3   OH231036   5.469   6.831   3.082
10384TIP3    H131037   5.417   6.811   3.003
10384TIP3    H231038   5.433   6.917   3.111
10385TIP3   OH231039   4.904   6.677   3.469
10385TIP3    H131040   4.951   6.669   3.555
10385TIP3    H231041   4.847   6.598   3.473
10386TIP3   OH231042   5.668   6.730   2.725
10386TIP3    H131043   5.725   6.660   2.689
10386TIP3    H231044   5.701   6.738   2.817
10387TIP3   OH231045   5.720   6.777   2.997
10387TIP3    H131046   5.630   6.791   3.034
10387TIP3    H231047   5.760   6.725   3.068
10388TIP3   OH231048   6.491   6.044   4.270
10388TIP3    H131049   6.406   6.053   4.225
10388TIP3    H231050   6.507   5.948   4.261
10389TIP3   OH231051   5.085   6.451   4.296
10389TIP3    H131052   5.135   6.438   4.379
10389TIP3    H231053   5.011   6.388   4.306
10390TIP3   OH231054   5.479   5.281   4.071
10390TIP3    H131055   5.389   5.250   4.047
10390TIP3    H231056   5.455   5.362   4.121
10391TIP3   OH231057   6.008   5.389   4.276
10391TIP3    H131058   6.056   5.349   4.349
10391TIP3    H231059   5.916   5.369   4.303
10392TIP3   OH231060   6.260   5.823   4.202
10392TIP3    H131061   6.208   5.817   4.285
10392TIP3    H231062   6.232   5.908   4.164
10393TIP3   OH231063   5.918   5.951   2.752
10393TIP3    H131064   5.883   5.924   2.665
10393TIP3    H231065   6.001   5.996   2.726
10394TIP3   OH231066   5.631   5.324   3.055
10394TIP3    H131067   5.598   5.321   3.146
10394TIP3    H231068   5.591   5.241   3.021
10395TIP3   OH231069   5.415   5.791   4.101
10395TIP3    H131070   5.366   5.813   4.183
10395TIP3    H231071   5.400   5.872   4.048
10396TIP3   OH231072   5.299   5.678   3.615
10396TIP3    H131073   5.207   5.650   3.634
10396TIP3    H231074   5.312   5.636   3.527
10397TIP3   OH231075   5.791   5.764   3.344
10397TIP3    H131076   5.738   5.834   3.301
10397TIP3    H231077   5.845   5.731   3.269
10398TIP3   OH231078   5.965   6.039   4.426
10398TIP3    H131079   5.943   5.968   4.490
10398TIP3    H231080   6.058   6.057   4.451
10399TIP3   OH231081   5.948   5.791   3.581
10399TIP3    H131082   5.886   5.817   3.510
10399TIP3    H231083   5.982   5.709   3.540
10400TIP3   OH231084   5.234   5.820   4.310
10400TIP3    H131085   5.264   5.884   4.376
10400TIP3    H231086   5.223   5.739   4.363
10401TIP3   OH231087   5.286   5.298   3.019
10401TIP3    H131088   5.278   5.295   3.117
10401TIP3    H231089   5.206   5.349   2.996
10402TIP3   OH231090   4.828   5.342   3.890
10402TIP3    H131091   4.903   5.374   3.944
10402TIP3    H231092   4.870   5.308   3.809
10403TIP3   OH231093   4.799   5.322   3.409
10403TIP3    H131094   4.846   5.361   3.332
10403TIP3    H231095   4.739   5.396   3.430
10404TIP3   OH231096   5.956   6.039   4.003
10404TIP3    H131097   5.991   5.966   3.946
10404TIP3    H231098   5.929   5.986   4.081
10405TIP3   OH231099   5.627   5.505   3.676
10405TIP3    H131100   5.547   5.499   3.732
10405TIP3    H231101   5.698   5.491   3.741
10406TIP3   OH231102   5.062   5.555   3.684
10406TIP3    H131103   4.967   5.562   3.657
10406TIP3    H231104   5.084   5.463   3.662
10407TIP3   OH231105   5.329   5.550   3.374
10407TIP3    H131106   5.424   5.566   3.353
10407TIP3    H231107   5.283   5.573   3.290
10408TIP3   OH231108   6.118   5.576   3.876
10408TIP3    H131109   6.088   5.587   3.969
10408TIP3    H231110   6.054   5.511   3.844
10409TIP3   OH231111   5.173   5.587   3.152
10409TIP3    H131112   5.100   5.541   3.106
10409TIP3    H231113   5.224   5.621   3.076
10410TIP3   OH231114   6.292   7.265   4.102
10410TIP3    H131115   6.298   7.300   4.012
10410TIP3    H231116   6.370   7.308   4.143
10411TIP3   OH231117   5.246   6.372   4.517
10411TIP3    H131118   5.328   6.396   4.565
10411TIP3    H231119   5.182   6.376   4.591
10412TIP3   OH231120   5.710   5.830   3.776
10412TIP3    H131121   5.781   5.785   3.727
10412TIP3    H231122   5.715   5.787   3.863
10413TIP3   OH231123   5.232   5.314   3.654
10413TIP3    H131124   5.196   5.236   3.702
10413TIP3    H231125   5.285   5.273   3.585
10414TIP3   OH231126   5.687   5.727   4.061
10414TIP3    H131127   5.597   5.762   4.078
10414TIP3    H231128   5.744   5.786   4.114
10415TIP3   OH231129   5.423   6.115   3.158
10415TIP3    H131130   5.351   6.049   3.147
10415TIP3    H231131   5.405   6.149   3.249
10416TIP3   OH231132   6.323   6.352   3.787
10416TIP3    H131133   6.346   6.400   3.705
10416TIP3    H231134   6.239   6.308   3.764
10417TIP3   OH231135   5.880   5.429   3.016
10417TIP3    H131136   5.784   5.409   3.030
10417TIP3    H231137   5.888   5.522   3.046
10418TIP3   OH231138   5.835   6.443   4.154
10418TIP3    H131139   5.849   6.409   4.244
10418TIP3    H231140   5.779   6.521   4.170
10419TIP3   OH231141   5.950   5.674   3.125
10419TIP3    H131142   6.046   5.680   3.142
10419TIP3    H231143   5.932   5.755   3.073
10420TIP3   OH231144   5.116   6.137   3.834
10420TIP3    H131145   5.156   6.107   3.750
10420TIP3    H231146   5.156   6.076   3.898
10421TIP3   OH231147   5.568   6.264   2.979
10421TIP3    H131148   5.520   6.350   2.986
10421TIP3    H231149   5.513   6.209   3.039
10422TIP3   OH231150   4.998   6.058   4.448
10422TIP3    H131151   5.021   6.046   4.542
10422TIP3    H231152   4.929   5.991   4.436
10423TIP3   OH231153   5.724   6.173   4.466
10423TIP3    H131154   5.665   6.111   4.420
10423TIP3    H231155   5.812   6.138   4.440
10424TIP3   OH231156   5.976   6.724   4.036
10424TIP3    H131157   5.885   6.697   4.060
10424TIP3    H231158   6.008   6.752   4.126
10425TIP3   OH231159   6.391   5.766   2.961
10425TIP3    H131160   6.329   5.722   2.898
10425TIP3    H231161   6.389   5.855   2.921
10426TIP3   OH231162   6.610   6.622   4.041
10426TIP3    H131163   6.512   6.617   4.035
10426TIP3    H231164   6.635   6.593   3.951
10427TIP3   OH231165   6.096   6.583   2.870
10427TIP3    H131166   6.067   6.514   2.932
10427TIP3    H231167   6.104   6.534   2.786
10428TIP3   OH231168   6.089   6.215   3.701
10428TIP3    H131169   5.997   6.188   3.719
10428TIP3    H231170   6.124   6.133   3.661
10429TIP3   OH231171   5.215   6.440   3.455
10429TIP3    H131172   5.211   6.523   3.404
10429TIP3    H231173   5.122   6.425   3.475
10430TIP3   OH231174   4.779   5.745   3.163
10430TIP3    H131175   4.826   5.829   3.185
10430TIP3    H231176   4.703   5.750   3.224
10431TIP3   OH231177   5.356   6.207   3.402
10431TIP3    H131178   5.318   6.295   3.421
10431TIP3    H231179   5.320   6.155   3.477
10432TIP3   OH231180   5.485   6.783   3.930
10432TIP3    H131181   5.528   6.857   3.883
10432TIP3    H231182   5.559   6.750   3.984
10433TIP3   OH231183   5.135   6.680   3.311
10433TIP3    H131184   5.050   6.687   3.358
10433TIP3    H231185   5.166   6.773   3.315
10434TIP3   OH231186   5.877   6.420   3.887
10434TIP3    H131187   5.864   6.421   3.984
10434TIP3    H231188   5.953   6.360   3.879
10435TIP3   OH231189   5.849   6.315   2.770
10435TIP3    H131190   5.902   6.288   2.848
10435TIP3    H231191   5.761   6.284   2.798
10436TIP3   OH231192   6.115   6.939   3.942
10436TIP3    H131193   6.064   6.862   3.976
10436TIP3    H231194   6.051   6.972   3.875
10437TIP3   OH231195   6.189   6.789   2.589
10437TIP3    H131196   6.222   6.868   2.541
10437TIP3    H231197   6.106   6.827   2.624
10438TIP3   OH231198   5.205   5.563   4.454
10438TIP3    H131199   5.109   5.567   4.468
10438TIP3    H231200   5.234   5.510   4.530
10439TIP3   OH231201   6.010   6.246   2.985
10439TIP3    H131202   5.998   6.181   3.056
10439TIP3    H231203   6.107   6.242   2.974
10440TIP3   OH231204   4.926   6.646   4.087
10440TIP3    H131205   4.979   6.573   4.123
10440TIP3    H231206   4.947   6.716   4.150
10441TIP3   OH231207   5.214   6.292   2.769
10441TIP3    H131208   5.228   6.199   2.742
10441TIP3    H231209   5.195   6.281   2.865
10442TIP3   OH231210   5.160   6.298   3.041
10442TIP3    H131211   5.229   6.268   3.102
10442TIP3    H231212   5.164   6.395   3.051
10443TIP3   OH231213   4.894   5.990   3.246
10443TIP3    H131214   4.828   6.034   3.303
10443TIP3    H231215   4.908   6.060   3.179
10444TIP3   OH231216   6.046   5.627   4.136
10444TIP3    H131217   6.127   5.663   4.177
10444TIP3    H231218   6.030   5.546   4.189
10445TIP3   OH231219   5.928   5.377   3.302
10445TIP3    H131220   5.914   5.403   3.209
10445TIP3    H231221   5.967   5.459   3.341
10446TIP3   OH231222   5.426   6.495   2.990
10446TIP3    H131223   5.339   6.519   3.027
10446TIP3    H231224   5.440   6.570   2.929
10447TIP3   OH231225   5.613   5.559   3.405
10447TIP3    H131226   5.678   5.631   3.390
10447TIP3    H231227   5.618   5.549   3.503
10448TIP3   OH231228   5.885   5.877   4.211
10448TIP3    H131229   5.906   5.930   4.290
10448TIP3    H231230   5.939   5.797   4.224
10449TIP3   OH231231   5.758   5.283   3.506
10449TIP3    H131232   5.762   5.354   3.572
10449TIP3    H231233   5.819   5.318   3.437
10450TIP3   OH231234   5.171   6.571   3.059
10450TIP3    H131235   5.139   6.640   2.997
10450TIP3    H231236   5.153   6.612   3.146
10451TIP3   OH231237   5.271   5.283   3.295
10451TIP3    H131238   5.268   5.373   3.334
10451TIP3    H231239   5.366   5.265   3.304
10452TIP3   OH231240   6.525   5.769   4.181
10452TIP3    H131241   6.429   5.780   4.200
10452TIP3    H231242   6.514   5.711   4.104
10453TIP3   OH231243   6.174   5.973   3.580
10453TIP3    H131244   6.099   5.913   3.594
10453TIP3    H231245   6.246   5.926   3.629
10454TIP3   OH231246   4.887   6.199   3.050
10454TIP3    H131247   4.955   6.268   3.061
10454TIP3    H231248   4.933   6.143   2.984
10455TIP3   OH231249   4.833   5.476   3.183
10455TIP3    H131250   4.830   5.573   3.180
10455TIP3    H231251   4.748   5.452   3.144
10456TIP3   OH231252   5.217   5.198   4.054
10456TIP3    H131253   5.187   5.164   3.967
10456TIP3    H231254   5.208   5.118   4.111
10457TIP3   OH231255   4.757   6.413   3.437
10457TIP3    H131256   4.691   6.443   3.501
10457TIP3    H231257   4.725   6.455   3.354
10458TIP3   OH231258   4.919   6.959   4.508
10458TIP3    H131259   5.004   6.957   4.557
10458TIP3    H231260   4.896   6.865   4.508
10459TIP3   OH231261   5.416   6.961   4.494
10459TIP3    H131262   5.444   6.932   4.583
10459TIP3    H231263   5.392   6.876   4.454
10460TIP3   OH231264   5.377   6.495   2.681
10460TIP3    H131265   5.320   6.425   2.721
10460TIP3    H231266   5.453   6.441   2.652
10461TIP3   OH231267   6.049   6.818   4.278
10461TIP3    H131268   6.030   6.755   4.351
10461TIP3    H231269   6.117   6.875   4.318
10462TIP3   OH231270   5.815   6.536   2.596
10462TIP3    H131271   5.853   6.468   2.654
10462TIP3    H231272   5.873   6.532   2.517
10463TIP3   OH231273   5.046   6.362   4.709
10463TIP3    H131274   5.061   6.266   4.717
10463TIP3    H231275   4.958   6.366   4.667
10464TIP3   OH231276   5.023   6.013   2.903
10464TIP3    H131277   5.077   5.978   2.977
10464TIP3    H231278   5.092   6.017   2.833
10465TIP3   OH231279   5.663   6.450   4.478
10465TIP3    H131280   5.612   6.463   4.396
10465TIP3    H231281   5.688   6.355   4.474
10466TIP3   OH231282   5.535   6.212   2.710
10466TIP3    H131283   5.536   6.224   2.807
10466TIP3    H231284   5.534   6.114   2.705
10467TIP3   OH231285   6.147   6.450   4.087
10467TIP3    H131286   6.217   6.505   4.046
10467TIP3    H231287   6.070   6.508   4.083
10468TIP3   OH231288   5.164   6.089   4.693
10468TIP3    H131289   5.247   6.045   4.670
10468TIP3    H231290   5.189   6.128   4.780
10469TIP3   OH231291   5.231   5.917   3.125
10469TIP3    H131292   5.203   5.877   3.209
10469TIP3    H231293   5.266   5.840   3.077
10470TIP3   OH231294   5.498   5.978   4.352
10470TIP3    H131295   5.422   6.041   4.356
10470TIP3    H231296   5.549   6.014   4.276
10471TIP3   OH231297   5.331   5.711   2.965
10471TIP3    H131298   5.306   5.714   2.871
10471TIP3    H231299   5.429   5.715   2.958
10472TIP3   OH231300   6.016   6.380   4.483
10472TIP3    H131301   6.104   6.360   4.450
10472TIP3    H231302   6.009   6.320   4.559
10473TIP3   OH231303   6.153   6.042   2.629
10473TIP3    H131304   6.132   5.995   2.546
10473TIP3    H231305   6.119   6.131   2.605
10474TIP3   OH231306   5.621   5.768   4.479
10474TIP3    H131307   5.624   5.690   4.420
10474TIP3    H231308   5.578   5.835   4.422
10475TIP3   OH231309   5.623   5.559   4.286
10475TIP3    H131310   5.652   5.598   4.201
10475TIP3    H231311   5.530   5.535   4.267
10476TIP3   OH231312   5.650   6.089   4.161
10476TIP3    H131313   5.735   6.097   4.114
10476TIP3    H231314   5.595   6.156   4.115
10477TIP3   OH231315   6.231   6.059   4.537
10477TIP3    H131316   6.280   5.981   4.567
10477TIP3    H231317   6.302   6.119   4.509
10478TIP3   OH231318   6.279   6.308   4.274
10478TIP3    H131319   6.219   6.361   4.217
10478TIP3    H231320   6.366   6.330   4.234
10479TIP3   OH231321   5.501   5.885   4.707
10479TIP3    H131322   5.432   5.817   4.725
10479TIP3    H231323   5.536   5.854   4.622
10480TIP3   OH231324   5.754   5.324   4.352
10480TIP3    H131325   5.704   5.406   4.332
10480TIP3    H231326   5.684   5.256   4.340
10481TIP3   OH231327   5.885   5.823   4.570
10481TIP3    H131328   5.877   5.812   4.667
10481TIP3    H231329   5.794   5.797   4.544
10482TIP3   OH231330   6.123   5.766   4.427
10482TIP3    H131331   6.047   5.773   4.488
10482TIP3    H231332   6.194   5.734   4.486
10483TIP3   OH231333   6.351   5.692   4.585
10483TIP3    H131334   6.373   5.613   4.635
10483TIP3    H231335   6.342   5.759   4.657
10484TIP3   OH231336   5.337   5.674   4.768
10484TIP3    H131337   5.335   5.584   4.730
10484TIP3    H231338   5.379   5.657   4.855
10485TIP3   OH231339   5.881   5.326   4.597
10485TIP3    H131340   5.883   5.232   4.624
10485TIP3    H231341   5.834   5.320   4.512
10486TIP3   OH231342   5.921   5.544   4.768
10486TIP3    H131343   5.905   5.473   4.702
10486TIP3    H231344   5.841   5.599   4.761
10487TIP3   OH231345   5.139   6.774   2.871
10487TIP3    H131346   5.235   6.767   2.851
10487TIP3    H231347   5.110   6.823   2.792
10488TIP3   OH231348   4.618   6.156   3.083
10488TIP3    H131349   4.713   6.177   3.072
10488TIP3    H231350   4.613   6.066   3.044
10489TIP3   OH231351   4.536   6.766   3.500
10489TIP3    H131352   4.468   6.705   3.465
10489TIP3    H231353   4.579   6.708   3.567
10490TIP3   OH231354   4.671   6.616   3.688
10490TIP3    H131355   4.657   6.544   3.753
10490TIP3    H231356   4.720   6.679   3.743
10491TIP3   OH231357   6.350   7.075   3.483
10491TIP3    H131358   6.377   7.061   3.577
10491TIP3    H231359   6.436   7.057   3.441
10492TIP3   OH231360   6.419   7.035   3.758
10492TIP3    H131361   6.379   6.946   3.769
10492TIP3    H231362   6.494   7.026   3.818
10493TIP3   OH231363   6.469   6.715   4.339
10493TIP3    H131364   6.398   6.723   4.407
10493TIP3    H231365   6.512   6.803   4.347
10494TIP3   OH231366   6.289   6.228   2.963
10494TIP3    H131367   6.359   6.290   2.935
10494TIP3    H231368   6.330   6.188   3.043
10495TIP3   OH231369   6.415   6.097   3.167
10495TIP3    H131370   6.350   6.052   3.226
10495TIP3    H231371   6.481   6.131   3.231
10496TIP3   OH231372   6.468   6.487   3.594
10496TIP3    H131373   6.526   6.420   3.552
10496TIP3    H231374   6.463   6.556   3.526
10497TIP3   OH231375   6.300   6.789   3.787
10497TIP3    H131376   6.232   6.822   3.849
10497TIP3    H231377   6.246   6.735   3.725
10498TIP3   OH231378   6.354   6.004   2.812
10498TIP3    H131379   6.282   6.006   2.746
10498TIP3    H231380   6.326   6.078   2.869
10499TIP3   OH231381   6.226   5.677   2.765
10499TIP3    H131382   6.180   5.712   2.687
10499TIP3    H231383   6.201   5.582   2.758
10500TIP3   OH231384   6.230   5.952   3.312
10500TIP3    H131385   6.238   5.855   3.307
10500TIP3    H231386   6.216   5.966   3.408
10501TIP3   OH231387   4.856   6.025   4.059
10501TIP3    H131388   4.854   5.993   3.967
10501TIP3    H231389   4.953   6.026   4.076
10502TIP3   OH231390   6.520   6.377   4.166
10502TIP3    H131391   6.591   6.310   4.159
10502TIP3    H231392   6.554   6.448   4.109
10503TIP3   OH231393   6.706   6.183   4.181
10503TIP3    H131394   6.631   6.132   4.221
10503TIP3    H231395   6.778   6.119   4.198
10504TIP3   OH231396   6.166   5.412   2.753
10504TIP3    H131397   6.243   5.377   2.802
10504TIP3    H231398   6.093   5.354   2.779
10505TIP3   OH231399   6.226   5.668   3.206
10505TIP3    H131400   6.266   5.579   3.222
10505TIP3    H231401   6.285   5.700   3.136
10506TIP3   OH231402   6.386   5.842   3.700
10506TIP3    H131403   6.473   5.868   3.662
10506TIP3    H231404   6.399   5.873   3.791
10507TIP3   OH231405   6.456   5.985   3.931
10507TIP3    H131406   6.380   6.017   3.984
10507TIP3    H231407   6.489   6.068   3.891
10508TIP3   OH231408   5.069   5.713   4.734
10508TIP3    H131409   5.167   5.713   4.740
10508TIP3    H231410   5.050   5.623   4.766
10509TIP3   OH231411   6.942   5.594   4.492
10509TIP3    H131412   6.929   5.499   4.480
10509TIP3    H231413   6.888   5.632   4.420
10510TIP3   OH231414   6.335   5.418   3.243
10510TIP3    H131415   6.383   5.403   3.327
10510TIP3    H231416   6.274   5.341   3.243
10511TIP3   OH231417   5.034   5.405   4.064
10511TIP3    H131418   5.096   5.330   4.073
10511TIP3    H231419   5.097   5.479   4.058
10512TIP3   OH231420   4.837   5.677   4.138
10512TIP3    H131421   4.887   5.672   4.054
10512TIP3    H231422   4.865   5.763   4.172
10513TIP3   OH231423   6.780   5.719   4.305
10513TIP3    H131424   6.695   5.756   4.335
10513TIP3    H231425   6.751   5.663   4.233
10514TIP3   OH231426   6.421   5.353   2.869
10514TIP3    H131427   6.491   5.292   2.842
10514TIP3    H231428   6.472   5.437   2.875
10515TIP3   OH231429   4.821   5.182   3.639
10515TIP3    H131430   4.728   5.177   3.666
10515TIP3    H231431   4.817   5.240   3.560
10516TIP3   OH231432   6.001   6.896   3.154
10516TIP3    H131433   6.035   6.859   3.071
10516TIP3    H231434   6.026   6.989   3.144
10517TIP3   OH231435   5.037   5.249   4.446
10517TIP3    H131436   4.988   5.251   4.531
10517TIP3    H231437   4.973   5.297   4.389
10518TIP3   OH231438   5.078   6.691   4.524
10518TIP3    H131439   4.986   6.662   4.517
10518TIP3    H231440   5.097   6.679   4.618
10519TIP3   OH231441   5.257   6.717   4.073
10519TIP3    H131442   5.209   6.795   4.038
10519TIP3    H231443   5.344   6.733   4.032
10520TIP3   OH231444   5.708   6.963   4.210
10520TIP3    H131445   5.743   6.960   4.302
10520TIP3    H231446   5.774   7.019   4.166
10521TIP3   OH231447   5.892   7.116   4.071
10521TIP3    H131448   5.964   7.053   4.058
10521TIP3    H231449   5.936   7.179   4.133
10522TIP3   OH231450   4.936   6.980   4.099
10522TIP3    H131451   4.846   7.013   4.078
10522TIP3    H231452   4.945   7.009   4.190
10523TIP3   OH231453   5.172   6.958   3.959
10523TIP3    H131454   5.086   6.970   4.004
10523TIP3    H231455   5.151   6.990   3.869
10524TIP3   OH231456   5.598   6.980   3.756
10524TIP3    H131457   5.527   7.001   3.693
10524TIP3    H231458   5.608   7.066   3.802
10525TIP3   OH231459   5.880   6.966   3.783
10525TIP3    H131460   5.790   6.930   3.773
10525TIP3    H231461   5.859   7.060   3.786
10526TIP3   OH231462   4.849   6.772   3.845
10526TIP3    H131463   4.873   6.745   3.936
10526TIP3    H231464   4.920   6.727   3.795
10527TIP3   OH231465   5.042   6.643   3.702
10527TIP3    H131466   5.056   6.559   3.752
10527TIP3    H231467   5.134   6.679   3.700
10528TIP3   OH231468   5.310   6.737   3.706
10528TIP3    H131469   5.338   6.643   3.698
10528TIP3    H231470   5.353   6.759   3.791
10529TIP3   OH231471   5.875   5.390   3.782
10529TIP3    H131472   5.837   5.324   3.842
10529TIP3    H231473   5.955   5.345   3.750
10530TIP3   OH231474   6.408   5.264   3.694
10530TIP3    H131475   6.442   5.322   3.623
10530TIP3    H231476   6.314   5.289   3.697
10531TIP3   OH231477   6.501   5.377   3.459
10531TIP3    H131478   6.576   5.326   3.422
10531TIP3    H231479   6.535   5.469   3.446
10532TIP3   OH231480   5.131   5.102   3.808
10532TIP3    H131481   5.039   5.069   3.811
10532TIP3    H231482   5.180   5.017   3.806
10533TIP3   OH231483   4.916   4.973   3.458
10533TIP3    H131484   4.947   5.031   3.385
10533TIP3    H231485   4.890   5.038   3.525
10534TIP3   OH231486   5.575   5.137   3.691
10534TIP3    H131487   5.633   5.185   3.631
10534TIP3    H231488   5.603   5.171   3.777
10535TIP3   OH231489   6.123   5.284   3.674
10535TIP3    H131490   6.121   5.242   3.588
10535TIP3    H231491   6.107   5.206   3.733
10536TIP3   OH231492   6.151   5.205   3.236
10536TIP3    H131493   6.065   5.248   3.253
10536TIP3    H231494   6.138   5.120   3.284
10537TIP3   OH231495   4.637   6.543   3.234
10537TIP3    H131496   4.551   6.511   3.201
10537TIP3    H231497   4.624   6.638   3.221
10538TIP3   OH231498   5.036   5.134   3.219
10538TIP3    H131499   5.084   5.069   3.164
10538TIP3    H231500   5.109   5.186   3.256
10539TIP3   OH231501   5.548   5.309   3.319
10539TIP3    H131502   5.607   5.262   3.380
10539TIP3    H231503   5.569   5.401   3.345
10540TIP3   OH231504   5.407   6.731   2.818
10540TIP3    H131505   5.495   6.753   2.782
10540TIP3    H231506   5.384   6.655   2.758
10541TIP3   OH231507   6.124   6.849   2.911
10541TIP3    H131508   6.117   6.752   2.898
10541TIP3    H231509   6.078   6.882   2.831
10542TIP3   OH231510   5.323   5.418   4.674
10542TIP3    H131511   5.300   5.367   4.753
10542TIP3    H231512   5.415   5.392   4.658
10543TIP3   OH231513   4.710   6.570   2.875
10543TIP3    H131514   4.708   6.591   2.970
10543TIP3    H231515   4.799   6.528   2.865
10544TIP3   OH231516   6.357   6.997   4.092
10544TIP3    H131517   6.273   6.964   4.056
10544TIP3    H231518   6.335   7.091   4.105
10545TIP3   OH231519   7.619   6.368   2.867
10545TIP3    H131520   7.588   6.459   2.844
10545TIP3    H231521   7.544   6.316   2.833
10546TIP3   OH231522   7.612   6.373   3.256
10546TIP3    H131523   7.650   6.335   3.337
10546TIP3    H231524   7.577   6.293   3.213
10547TIP3   OH231525   6.914   6.259   3.611
10547TIP3    H131526   6.943   6.192   3.676
10547TIP3    H231527   6.994   6.314   3.607
10548TIP3   OH231528   7.859   6.671   2.928
10548TIP3    H131529   7.852   6.600   2.993
10548TIP3    H231530   7.892   6.746   2.983
10549TIP3   OH231531   6.884   6.672   3.331
10549TIP3    H131532   6.879   6.574   3.335
10549TIP3    H231533   6.980   6.684   3.337
10550TIP3   OH231534   6.595   5.877   3.119
10550TIP3    H131535   6.546   5.959   3.136
10550TIP3    H231536   6.524   5.820   3.084
10551TIP3   OH231537   6.654   6.161   3.294
10551TIP3    H131538   6.702   6.084   3.332
10551TIP3    H231539   6.715   6.189   3.224
10552TIP3   OH231540   7.511   7.132   2.945
10552TIP3    H131541   7.555   7.061   2.894
10552TIP3    H231542   7.504   7.092   3.032
10553TIP3   OH231543   7.414   6.592   3.293
10553TIP3    H131544   7.452   6.511   3.254
10553TIP3    H231545   7.495   6.644   3.307
10554TIP3   OH231546   8.429   5.914   3.292
10554TIP3    H131547   8.459   5.996   3.336
10554TIP3    H231548   8.454   5.932   3.200
10555TIP3   OH231549   7.829   6.100   3.326
10555TIP3    H131550   7.869   6.015   3.351
10555TIP3    H231551   7.797   6.080   3.236
10556TIP3   OH231552   7.165   5.756   3.291
10556TIP3    H131553   7.146   5.828   3.227
10556TIP3    H231554   7.117   5.682   3.249
10557TIP3   OH231555   7.861   5.845   2.913
10557TIP3    H131556   7.932   5.828   2.980
10557TIP3    H231557   7.915   5.880   2.840
10558TIP3   OH231558   6.803   5.957   3.398
10558TIP3    H131559   6.884   5.936   3.447
10558TIP3    H231560   6.816   5.900   3.320
10559TIP3   OH231561   7.240   6.155   3.196
10559TIP3    H131562   7.334   6.129   3.209
10559TIP3    H231563   7.202   6.070   3.164
10560TIP3   OH231564   8.504   6.121   3.461
10560TIP3    H131565   8.418   6.166   3.445
10560TIP3    H231566   8.516   6.141   3.555
10561TIP3   OH231567   7.165   5.732   3.729
10561TIP3    H131568   7.108   5.765   3.657
10561TIP3    H231569   7.111   5.755   3.807
10562TIP3   OH231570   7.505   6.587   2.738
10562TIP3    H131571   7.469   6.568   2.650
10562TIP3    H231572   7.462   6.671   2.760
10563TIP3   OH231573   7.274   6.517   3.519
10563TIP3    H131574   7.209   6.581   3.557
10563TIP3    H231575   7.308   6.567   3.443
10564TIP3   OH231576   8.069   5.849   3.087
10564TIP3    H131577   8.059   5.800   3.170
10564TIP3    H231578   8.124   5.925   3.115
10565TIP3   OH231579   7.035   5.851   3.512
10565TIP3    H131580   7.099   5.922   3.537
10565TIP3    H231581   7.085   5.810   3.438
10566TIP3   OH231582   7.099   6.702   3.616
10566TIP3    H131583   7.083   6.795   3.592
10566TIP3    H231584   7.025   6.689   3.679
10567TIP3   OH231585   6.493   6.398   2.855
10567TIP3    H131586   6.448   6.427   2.774
10567TIP3    H231587   6.524   6.482   2.893
10568TIP3   OH231588   7.924   6.898   3.085
10568TIP3    H131589   7.839   6.901   3.132
10568TIP3    H231590   7.936   6.991   3.061
10569TIP3   OH231591   8.223   5.815   3.458
10569TIP3    H131592   8.135   5.844   3.428
10569TIP3    H231593   8.282   5.846   3.387
10570TIP3   OH231594   7.517   5.457   3.437
10570TIP3    H131595   7.506   5.363   3.460
10570TIP3    H231596   7.439   5.495   3.484
10571TIP3   OH231597   7.629   6.959   2.767
10571TIP3    H131598   7.680   6.876   2.749
10571TIP3    H231599   7.692   7.024   2.728
10572TIP3   OH231600   7.772   6.744   2.677
10572TIP3    H131601   7.747   6.662   2.634
10572TIP3    H231602   7.809   6.711   2.762
10573TIP3   OH231603   7.450   6.221   2.696
10573TIP3    H131604   7.370   6.271   2.672
10573TIP3    H231605   7.497   6.215   2.612
10574TIP3   OH231606   7.407   6.005   2.411
10574TIP3    H131607   7.476   6.054   2.460
10574TIP3    H231608   7.463   5.941   2.364
10575TIP3   OH231609   8.346   6.466   3.285
10575TIP3    H131610   8.265   6.521   3.292
10575TIP3    H231611   8.376   6.488   3.194
10576TIP3   OH231612   7.796   6.302   2.668
10576TIP3    H131613   7.743   6.326   2.747
10576TIP3    H231614   7.880   6.275   2.710
10577TIP3   OH231615   8.033   6.335   3.583
10577TIP3    H131616   8.035   6.414   3.641
10577TIP3    H231617   7.945   6.344   3.541
10578TIP3   OH231618   7.031   6.299   3.085
10578TIP3    H131619   6.989   6.240   3.019
10578TIP3    H231620   7.106   6.245   3.116
10579TIP3   OH231621   7.159   6.714   3.230
10579TIP3    H131622   7.135   6.669   3.147
10579TIP3    H231623   7.247   6.676   3.249
10580TIP3   OH231624   7.165   6.273   3.441
10580TIP3    H131625   7.198   6.246   3.353
10580TIP3    H231626   7.208   6.359   3.456
10581TIP3   OH231627   7.688   6.909   3.223
10581TIP3    H131628   7.665   6.989   3.272
10581TIP3    H231629   7.680   6.838   3.288
10582TIP3   OH231630   7.635   6.162   2.494
10582TIP3    H131631   7.696   6.219   2.546
10582TIP3    H231632   7.662   6.184   2.402
10583TIP3   OH231633   7.059   6.388   3.860
10583TIP3    H131634   7.062   6.472   3.911
10583TIP3    H231635   6.965   6.363   3.873
10584TIP3   OH231636   7.379   6.840   2.768
10584TIP3    H131637   7.462   6.890   2.781
10584TIP3    H231638   7.320   6.908   2.732
10585TIP3   OH231639   7.091   7.009   3.851
10585TIP3    H131640   7.068   6.981   3.761
10585TIP3    H231641   7.016   6.976   3.904
10586TIP3   OH231642   8.153   5.400   2.542
10586TIP3    H131643   8.071   5.420   2.593
10586TIP3    H231644   8.165   5.483   2.493
10587TIP3   OH231645   6.896   6.143   2.890
10587TIP3    H131646   6.826   6.182   2.833
10587TIP3    H231647   6.862   6.054   2.905
10588TIP3   OH231648   7.953   6.767   2.092
10588TIP3    H131649   7.962   6.864   2.076
10588TIP3    H231650   8.045   6.737   2.079
10589TIP3   OH231651   6.676   6.525   3.797
10589TIP3    H131652   6.611   6.497   3.730
10589TIP3    H231653   6.716   6.439   3.825
10590TIP3   OH231654   6.536   6.728   3.426
10590TIP3    H131655   6.626   6.696   3.408
10590TIP3    H231656   6.553   6.788   3.500
10591TIP3   OH231657   8.392   7.162   3.479
10591TIP3    H131658   8.401   7.066   3.496
10591TIP3    H231659   8.317   7.183   3.536
10592TIP3   OH231660   7.474   6.961   3.615
10592TIP3    H131661   7.506   7.052   3.631
10592TIP3    H231662   7.426   6.947   3.697
10593TIP3   OH231663   7.260   7.083   2.572
10593TIP3    H131664   7.218   7.068   2.486
10593TIP3    H231665   7.229   7.172   2.597
10594TIP3   OH231666   6.699   6.932   2.956
10594TIP3    H131667   6.747   6.924   3.042
10594TIP3    H231668   6.649   6.848   2.956
10595TIP3   OH231669   7.461   6.984   2.212
10595TIP3    H131670   7.521   6.915   2.175
10595TIP3    H231671   7.498   6.995   2.303
10596TIP3   OH231672   7.513   7.034   2.482
10596TIP3    H131673   7.426   7.042   2.527
10596TIP3    H231674   7.567   6.994   2.552
10597TIP3   OH231675   8.285   6.299   3.760
10597TIP3    H131676   8.199   6.306   3.715
10597TIP3    H231677   8.303   6.203   3.752
10598TIP3   OH231678   6.882   6.709   3.785
10598TIP3    H131679   6.932   6.695   3.868
10598TIP3    H231680   6.809   6.645   3.794
10599TIP3   OH231681   7.282   5.542   3.552
10599TIP3    H131682   7.193   5.504   3.541
10599TIP3    H231683   7.263   5.605   3.624
10600TIP3   OH231684   7.801   5.644   3.782
10600TIP3    H131685   7.883   5.616   3.826
10600TIP3    H231686   7.737   5.633   3.855
10601TIP3   OH231687   8.052   6.074   3.683
10601TIP3    H131688   8.004   6.070   3.768
10601TIP3    H231689   8.028   6.162   3.648
10602TIP3   OH231690   7.712   6.209   2.239
10602TIP3    H131691   7.679   6.181   2.152
10602TIP3    H231692   7.797   6.251   2.214
10603TIP3   OH231693   7.424   5.583   2.541
10603TIP3    H131694   7.393   5.579   2.633
10603TIP3    H231695   7.388   5.498   2.508
10604TIP3   OH231696   7.211   6.048   3.589
10604TIP3    H131697   7.162   6.066   3.671
10604TIP3    H231698   7.194   6.129   3.537
10605TIP3   OH231699   7.094   5.938   3.100
10605TIP3    H131700   7.002   5.908   3.120
10605TIP3    H231701   7.108   5.894   3.013
10606TIP3   OH231702   7.587   6.020   2.831
10606TIP3    H131703   7.535   6.091   2.787
10606TIP3    H231704   7.642   5.987   2.757
10607TIP3   OH231705   7.746   6.310   3.922
10607TIP3    H131706   7.731   6.232   3.980
10607TIP3    H231707   7.839   6.329   3.942
10608TIP3   OH231708   7.746   6.049   3.067
10608TIP3    H131709   7.683   6.073   2.996
10608TIP3    H231710   7.780   5.966   3.027
10609TIP3   OH231711   7.031   6.077   3.798
10609TIP3    H131712   7.059   6.134   3.871
10609TIP3    H231713   7.018   5.992   3.844
10610TIP3   OH231714   7.079   5.554   2.506
10610TIP3    H131715   7.074   5.552   2.603
10610TIP3    H231716   7.001   5.607   2.483
10611TIP3   OH231717   6.627   5.600   3.372
10611TIP3    H131718   6.699   5.632   3.431
10611TIP3    H231719   6.676   5.564   3.297
10612TIP3   OH231720   6.591   5.579   2.897
10612TIP3    H131721   6.639   5.616   2.820
10612TIP3    H231722   6.533   5.655   2.918
10613TIP3   OH231723   7.753   6.298   3.492
10613TIP3    H131724   7.788   6.228   3.433
10613TIP3    H231725   7.728   6.243   3.569
10614TIP3   OH231726   7.422   5.763   3.165
10614TIP3    H131727   7.344   5.757   3.222
10614TIP3    H231728   7.495   5.746   3.227
10615TIP3   OH231729   6.859   5.812   3.170
10615TIP3    H131730   6.764   5.817   3.143
10615TIP3    H231731   6.883   5.720   3.149
10616TIP3   OH231732   7.125   5.807   2.861
10616TIP3    H131733   7.220   5.821   2.843
10616TIP3    H231734   7.082   5.830   2.776
10617TIP3   OH231735   7.914   5.837   3.366
10617TIP3    H131736   7.882   5.844   3.459
10617TIP3    H231737   7.852   5.771   3.331
10618TIP3   OH231738   6.968   5.845   2.637
10618TIP3    H131739   6.897   5.798   2.589
10618TIP3    H231740   7.021   5.880   2.562
10619TIP3   OH231741   8.091   7.511   3.585
10619TIP3    H131742   8.089   7.546   3.494
10619TIP3    H231743   8.166   7.562   3.623
10620TIP3   OH231744   7.047   6.631   4.007
10620TIP3    H131745   7.126   6.658   4.057
10620TIP3    H231746   6.981   6.629   4.079
10621TIP3   OH231747   7.505   6.090   3.262
10621TIP3    H131748   7.575   6.040   3.218
10621TIP3    H231749   7.504   6.049   3.351
10622TIP3   OH231750   7.025   5.572   3.140
10622TIP3    H131751   6.992   5.494   3.189
10622TIP3    H231752   7.086   5.532   3.076
10623TIP3   OH231753   7.486   6.001   3.524
10623TIP3    H131754   7.396   6.009   3.561
10623TIP3    H231755   7.542   6.035   3.596
10624TIP3   OH231756   7.215   6.374   2.642
10624TIP3    H131757   7.146   6.305   2.634
10624TIP3    H231758   7.200   6.406   2.735
10625TIP3   OH231759   8.110   6.616   3.289
10625TIP3    H131760   8.140   6.673   3.215
10625TIP3    H231761   8.032   6.571   3.249
10626TIP3   OH231762   7.677   5.684   2.508
10626TIP3    H131763   7.580   5.667   2.518
10626TIP3    H231764   7.686   5.778   2.533
10627TIP3   OH231765   7.578   6.676   3.664
10627TIP3    H131766   7.646   6.703   3.732
10627TIP3    H231767   7.555   6.766   3.633
10628TIP3   OH231768   7.746   5.932   2.612
10628TIP3    H131769   7.843   5.935   2.629
10628TIP3    H231770   7.731   6.011   2.558
10629TIP3   OH231771   6.912   6.396   3.320
10629TIP3    H131772   6.952   6.365   3.236
10629TIP3    H231773   6.951   6.334   3.384
10630TIP3   OH231774   7.364   6.520   2.465
10630TIP3    H131775   7.316   6.606   2.472
10630TIP3    H231776   7.312   6.465   2.527
10631TIP3   OH231777   6.795   6.315   3.933
10631TIP3    H131778   6.816   6.302   4.028
10631TIP3    H231779   6.727   6.247   3.920
10632TIP3   OH231780   7.509   6.447   3.920
10632TIP3    H131781   7.456   6.365   3.908
10632TIP3    H231782   7.600   6.408   3.923
10633TIP3   OH231783   8.188   6.022   2.447
10633TIP3    H131784   8.125   5.977   2.386
10633TIP3    H231785   8.185   6.111   2.406
10634TIP3   OH231786   8.401   6.883   3.522
10634TIP3    H131787   8.310   6.852   3.526
10634TIP3    H231788   8.428   6.853   3.432
10635TIP3   OH231789   7.886   6.841   2.355
10635TIP3    H131790   7.867   6.768   2.416
10635TIP3    H231791   7.903   6.795   2.270
10636TIP3   OH231792   7.882   6.469   3.196
10636TIP3    H131793   7.790   6.437   3.203
10636TIP3    H231794   7.923   6.392   3.152
10637TIP3   OH231795   7.013   6.698   2.947
10637TIP3    H131796   7.013   6.779   2.893
10637TIP3    H231797   6.919   6.681   2.958
10638TIP3   OH231798   6.576   6.002   2.650
10638TIP3    H131799   6.623   6.084   2.673
10638TIP3    H231800   6.499   6.005   2.712
10639TIP3   OH231801   7.149   6.463   2.889
10639TIP3    H131802   7.115   6.552   2.910
10639TIP3    H231803   7.116   6.411   2.964
10640TIP3   OH231804   7.283   7.040   3.412
10640TIP3    H131805   7.328   7.113   3.365
10640TIP3    H231806   7.353   7.008   3.471
10641TIP3   OH231807   6.930   6.935   2.795
10641TIP3    H131808   6.846   6.946   2.844
10641TIP3    H231809   6.967   7.026   2.800
10642TIP3   OH231810   7.689   6.683   3.396
10642TIP3    H131811   7.655   6.643   3.478
10642TIP3    H231812   7.738   6.609   3.355
10643TIP3   OH231813   7.645   6.569   2.259
10643TIP3    H131814   7.701   6.545   2.337
10643TIP3    H231815   7.559   6.540   2.291
10644TIP3   OH231816   7.904   7.169   3.424
10644TIP3    H131817   7.816   7.148   3.385
10644TIP3    H231818   7.932   7.233   3.355
10645TIP3   OH231819   7.984   7.043   2.076
10645TIP3    H131820   8.024   7.115   2.025
10645TIP3    H231821   7.904   7.089   2.109
10646TIP3   OH231822   6.993   5.825   3.933
10646TIP3    H131823   6.897   5.839   3.945
10646TIP3    H231824   7.007   5.748   3.990
10647TIP3   OH231825   7.806   6.505   2.476
10647TIP3    H131826   7.796   6.437   2.545
10647TIP3    H231827   7.903   6.500   2.462
10648TIP3   OH231828   6.715   6.901   3.579
10648TIP3    H131829   6.774   6.828   3.607
10648TIP3    H231830   6.744   6.970   3.640
10649TIP3   OH231831   6.996   6.547   2.253
10649TIP3    H131832   7.027   6.458   2.227
10649TIP3    H231833   6.988   6.536   2.350
10650TIP3   OH231834   6.954   6.554   2.531
10650TIP3    H131835   7.028   6.521   2.583
10650TIP3    H231836   6.962   6.651   2.542
10651TIP3   OH231837   6.690   6.245   2.731
10651TIP3    H131838   6.624   6.290   2.789
10651TIP3    H231839   6.708   6.316   2.667
10652TIP3   OH231840   7.838   5.877   3.628
10652TIP3    H131841   7.917   5.914   3.670
10652TIP3    H231842   7.820   5.798   3.683
10653TIP3   OH231843   7.721   5.635   2.790
10653TIP3    H131844   7.710   5.659   2.696
10653TIP3    H231845   7.762   5.716   2.827
10654TIP3   OH231846   7.218   6.748   2.476
10654TIP3    H131847   7.134   6.781   2.515
10654TIP3    H231848   7.241   6.823   2.419
10655TIP3   OH231849   7.406   5.817   2.893
10655TIP3    H131850   7.473   5.886   2.876
10655TIP3    H231851   7.414   5.806   2.990
10656TIP3   OH231852   7.684   6.138   3.700
10656TIP3    H131853   7.701   6.187   3.783
10656TIP3    H231854   7.733   6.055   3.715
10657TIP3   OH231855   7.554   5.539   2.992
10657TIP3    H131856   7.562   5.608   3.060
10657TIP3    H231857   7.614   5.575   2.923
10658TIP3   OH231858   6.960   6.828   2.543
10658TIP3    H131859   6.937   6.904   2.485
10658TIP3    H231860   6.948   6.868   2.633
10659TIP3   OH231861   7.066   5.540   2.781
10659TIP3    H131862   7.064   5.629   2.822
10659TIP3    H231863   7.162   5.521   2.791
10660TIP3   OH231864   8.319   6.034   3.676
10660TIP3    H131865   8.221   6.032   3.687
10660TIP3    H231866   8.328   5.983   3.595
10661TIP3   OH231867   7.970   6.231   3.070
10661TIP3    H131868   7.896   6.169   3.080
10661TIP3    H231869   8.043   6.183   3.116
10662TIP3   OH231870   6.686   6.460   2.533
10662TIP3    H131871   6.763   6.518   2.550
10662TIP3    H231872   6.728   6.398   2.470
10663TIP3   OH231873   6.628   5.732   2.672
10663TIP3    H131874   6.627   5.829   2.667
10663TIP3    H231875   6.544   5.709   2.630
10664TIP3   OH231876   7.943   7.186   3.022
10664TIP3    H131877   7.898   7.229   2.946
10664TIP3    H231878   8.036   7.204   2.998
10665TIP3   OH231879   7.012   5.454   3.544
10665TIP3    H131880   6.986   5.419   3.456
10665TIP3    H231881   7.006   5.375   3.601
10666TIP3   OH231882   6.554   6.677   2.926
10666TIP3    H131883   6.480   6.701   2.982
10666TIP3    H231884   6.525   6.714   2.839
10667TIP3   OH231885   6.713   7.214   3.993
10667TIP3    H131886   6.798   7.217   4.043
10667TIP3    H231887   6.694   7.119   3.996
10668TIP3   OH231888   7.190   7.184   4.038
10668TIP3    H131889   7.282   7.159   4.052
10668TIP3    H231890   7.164   7.121   3.966
10669TIP3   OH231891   7.172   6.751   2.170
10669TIP3    H131892   7.121   6.676   2.207
10669TIP3    H231893   7.250   6.704   2.134
10670TIP3   OH231894   7.889   7.052   3.735
10670TIP3    H131895   7.835   6.991   3.790
10670TIP3    H231896   7.923   7.115   3.803
10671TIP3   OH231897   7.609   6.792   2.080
10671TIP3    H131898   7.654   6.730   2.140
10671TIP3    H231899   7.666   6.791   2.001
10672TIP3   OH231900   6.843   6.620   4.194
10672TIP3    H131901   6.859   6.524   4.206
10672TIP3    H231902   6.754   6.620   4.153
10673TIP3   OH231903   6.820   6.270   2.392
10673TIP3    H131904   6.873   6.233   2.465
10673TIP3    H231905   6.887   6.271   2.321
10674TIP3   OH231906   7.319   6.466   2.199
10674TIP3    H131907   7.331   6.479   2.295
10674TIP3    H231908   7.327   6.368   2.192
10675TIP3   OH231909   7.968   6.751   3.559
10675TIP3    H131910   7.993   6.704   3.477
10675TIP3    H231911   7.872   6.740   3.561
10676TIP3   OH231912   6.965   6.353   4.176
10676TIP3    H131913   7.035   6.288   4.163
10676TIP3    H231914   6.988   6.387   4.266
10677TIP3   OH231915   7.024   6.174   2.610
10677TIP3    H131916   7.001   6.132   2.695
10677TIP3    H231917   7.063   6.099   2.561
10678TIP3   OH231918   7.297   6.242   3.842
10678TIP3    H131919   7.216   6.296   3.843
10678TIP3    H231920   7.342   6.273   3.761
10679TIP3   OH231921   7.128   5.969   2.452
10679TIP3    H131922   7.104   5.970   2.358
10679TIP3    H231923   7.226   5.972   2.446
10680TIP3   OH231924   7.947   6.298   2.117
10680TIP3    H131925   7.928   6.251   2.034
10680TIP3    H231926   7.915   6.388   2.093
10681TIP3   OH231927   7.414   6.027   3.973
10681TIP3    H131928   7.420   5.948   3.914
10681TIP3    H231929   7.372   6.092   3.913
10682TIP3   OH231930   7.414   5.841   3.776
10682TIP3    H131931   7.458   5.828   3.692
10682TIP3    H231932   7.332   5.788   3.766
10683TIP3   OH231933   7.454   6.364   3.651
10683TIP3    H131934   7.528   6.333   3.597
10683TIP3    H231935   7.395   6.409   3.586
10684TIP3   OH231936   8.024   6.318   4.025
10684TIP3    H131937   8.073   6.237   4.044
10684TIP3    H231938   8.094   6.380   4.001
10685TIP3   OH231939   8.078   6.559   3.746
10685TIP3    H131940   8.027   6.636   3.717
10685TIP3    H231941   8.167   6.582   3.711
10686TIP3   OH231942   7.293   6.143   4.195
10686TIP3    H131943   7.224   6.077   4.215
10686TIP3    H231944   7.330   6.107   4.111
10687TIP3   OH231945   7.679   6.083   4.057
10687TIP3    H131946   7.679   6.067   4.153
10687TIP3    H231947   7.589   6.051   4.034
10688TIP3   OH231948   7.917   6.028   3.911
10688TIP3    H131949   7.844   6.028   3.975
10688TIP3    H231950   7.992   5.998   3.966
10689TIP3   OH231951   8.148   5.970   4.060
10689TIP3    H131952   8.161   5.874   4.079
10689TIP3    H231953   8.142   6.009   4.150
10690TIP3   OH231954   7.140   5.920   4.248
10690TIP3    H131955   7.187   5.850   4.200
10690TIP3    H231956   7.173   5.905   4.339
10691TIP3   OH231957   7.664   5.578   4.040
10691TIP3    H131958   7.736   5.516   4.063
10691TIP3    H231959   7.595   5.511   4.022
10692TIP3   OH231960   7.713   5.793   4.244
10692TIP3    H131961   7.692   5.726   4.176
10692TIP3    H231962   7.633   5.849   4.244
10693TIP3   OH231963   6.933   7.022   2.350
10693TIP3    H131964   7.030   7.020   2.338
10693TIP3    H231965   6.909   7.078   2.273
10694TIP3   OH231966   6.415   6.414   2.566
10694TIP3    H131967   6.511   6.433   2.558
10694TIP3    H231968   6.410   6.322   2.532
10695TIP3   OH231969   6.329   7.017   2.986
10695TIP3    H131970   6.262   6.956   2.949
10695TIP3    H231971   6.373   6.960   3.052
10696TIP3   OH231972   6.458   6.875   3.182
10696TIP3    H131973   6.458   6.798   3.241
10696TIP3    H231974   6.521   6.932   3.230
10697TIP3   OH231975   8.196   7.279   2.980
10697TIP3    H131976   8.226   7.339   3.051
10697TIP3    H231977   8.255   7.306   2.907
10698TIP3   OH231978   8.217   7.302   3.269
10698TIP3    H131979   8.197   7.221   3.221
10698TIP3    H231980   8.299   7.277   3.315
10699TIP3   OH231981   8.248   6.976   3.812
10699TIP3    H131982   8.187   6.980   3.889
10699TIP3    H231983   8.300   7.059   3.823
10700TIP3   OH231984   8.084   6.485   2.450
10700TIP3    H131985   8.153   6.548   2.420
10700TIP3    H231986   8.127   6.446   2.529
10701TIP3   OH231987   8.211   6.353   2.653
10701TIP3    H131988   8.147   6.310   2.714
10701TIP3    H231989   8.279   6.388   2.715
10702TIP3   OH231990   8.266   6.742   3.090
10702TIP3    H131991   8.318   6.674   3.042
10702TIP3    H231992   8.257   6.812   3.023
10703TIP3   OH231993   8.150   6.260   2.300
10703TIP3    H131994   8.078   6.262   2.233
10703TIP3    H231995   8.122   6.336   2.355
10704TIP3   OH231996   8.018   5.934   2.254
10704TIP3    H131997   7.979   5.968   2.173
10704TIP3    H231998   7.996   5.838   2.247
10705TIP3   OH231999   8.024   6.208   2.799
10705TIP3    H132000   8.034   6.112   2.793
10705TIP3    H232001   8.012   6.222   2.896
10706TIP3   OH232002   6.651   6.290   3.543
10706TIP3    H132003   6.650   6.252   3.452
10706TIP3    H232004   6.747   6.286   3.563
10707TIP3   OH232005   8.324   6.639   3.648
10707TIP3    H132006   8.381   6.559   3.650
10707TIP3    H232007   8.380   6.699   3.596
10708TIP3   OH232008   8.497   6.439   3.672
10708TIP3    H132009   8.426   6.384   3.712
10708TIP3    H232010   8.573   6.378   3.687
10709TIP3   OH232011   7.964   5.668   2.240
10709TIP3    H132012   8.040   5.636   2.293
10709TIP3    H232013   7.893   5.607   2.263
10710TIP3   OH232014   8.022   5.924   2.692
10710TIP3    H132015   8.062   5.836   2.709
10710TIP3    H232016   8.081   5.956   2.622
10711TIP3   OH232017   8.183   6.100   3.187
10711TIP3    H132018   8.269   6.125   3.147
10711TIP3    H232019   8.197   6.134   3.277
10712TIP3   OH232020   8.253   6.241   3.419
10712TIP3    H132021   8.177   6.274   3.470
10712TIP3    H232022   8.284   6.324   3.375
10713TIP3   OH232023   6.871   5.970   4.224
10713TIP3    H132024   6.969   5.961   4.225
10713TIP3    H232025   6.845   5.887   4.267
10714TIP3   OH232026   8.700   5.835   3.974
10714TIP3    H132027   8.762   5.769   3.935
10714TIP3    H232028   8.676   5.889   3.896
10715TIP3   OH232029   8.130   5.675   2.732
10715TIP3    H132030   8.179   5.659   2.815
10715TIP3    H232031   8.070   5.597   2.731
10716TIP3   OH232032   6.830   5.663   3.548
10716TIP3    H132033   6.890   5.587   3.561
10716TIP3    H232034   6.895   5.736   3.544
10717TIP3   OH232035   6.632   5.935   3.621
10717TIP3    H132036   6.684   5.930   3.538
10717TIP3    H232037   6.669   6.013   3.663
10718TIP3   OH232038   8.576   5.976   3.777
10718TIP3    H132039   8.491   6.014   3.805
10718TIP3    H232040   8.544   5.902   3.723
10719TIP3   OH232041   8.211   5.609   2.363
10719TIP3    H132042   8.251   5.537   2.312
10719TIP3    H232043   8.279   5.679   2.360
10720TIP3   OH232044   6.616   5.431   3.121
10720TIP3    H132045   6.525   5.433   3.155
10720TIP3    H232046   6.612   5.494   3.046
10721TIP3   OH232047   7.774   7.144   2.631
10721TIP3    H132048   7.825   7.127   2.549
10721TIP3    H232049   7.832   7.205   2.678
10722TIP3   OH232050   6.823   5.529   3.954
10722TIP3    H132051   6.767   5.490   4.021
10722TIP3    H232052   6.758   5.565   3.891
10723TIP3   OH232053   6.876   6.943   4.018
10723TIP3    H132054   6.784   6.916   4.003
10723TIP3    H232055   6.887   6.924   4.112
10724TIP3   OH232056   7.057   6.973   3.560
10724TIP3    H132057   7.010   7.052   3.528
10724TIP3    H232058   7.143   6.988   3.516
10725TIP3   OH232059   7.501   7.223   3.698
10725TIP3    H132060   7.539   7.220   3.789
10725TIP3    H232061   7.565   7.284   3.654
10726TIP3   OH232062   7.675   7.382   3.563
10726TIP3    H132063   7.744   7.331   3.518
10726TIP3    H232064   7.728   7.438   3.623
10727TIP3   OH232065   8.475   5.735   3.660
10727TIP3    H132066   8.383   5.724   3.631
10727TIP3    H232067   8.508   5.643   3.651
10728TIP3   OH232068   6.735   7.234   3.585
10728TIP3    H132069   6.643   7.268   3.568
10728TIP3    H232070   6.749   7.269   3.674
10729TIP3   OH232071   6.970   7.216   3.446
10729TIP3    H132072   6.883   7.226   3.492
10729TIP3    H232073   6.947   7.245   3.356
10730TIP3   OH232074   7.399   7.241   3.244
10730TIP3    H132075   7.328   7.259   3.180
10730TIP3    H232076   7.410   7.328   3.288
10731TIP3   OH232077   7.665   7.183   3.301
10731TIP3    H132078   7.571   7.200   3.282
10731TIP3    H232079   7.708   7.258   3.254
10732TIP3   OH232080   7.876   7.369   3.217
10732TIP3    H132081   7.859   7.453   3.170
10732TIP3    H232082   7.901   7.310   3.143
10733TIP3   OH232083   6.635   7.024   3.338
10733TIP3    H132084   6.665   7.002   3.428
10733TIP3    H232085   6.709   6.984   3.287
10734TIP3   OH232086   6.834   6.903   3.193
10734TIP3    H132087   6.849   6.818   3.240
10734TIP3    H232088   6.925   6.938   3.189
10735TIP3   OH232089   7.103   6.994   3.194
10735TIP3    H132090   7.132   6.902   3.182
10735TIP3    H232091   7.149   7.015   3.277
10736TIP3   OH232092   7.668   5.644   3.267
10736TIP3    H132093   7.633   5.580   3.331
10736TIP3    H232094   7.750   5.601   3.237
10737TIP3   OH232095   8.201   5.529   3.183
10737TIP3    H132096   8.237   5.582   3.108
10737TIP3    H232097   8.106   5.549   3.178
10738TIP3   OH232098   8.297   5.632   2.947
10738TIP3    H132099   8.370   5.580   2.909
10738TIP3    H232100   8.331   5.724   2.933
10739TIP3   OH232101   6.928   5.359   3.294
10739TIP3    H132102   6.836   5.324   3.298
10739TIP3    H232103   6.979   5.275   3.292
10740TIP3   OH232104   6.705   5.235   2.940
10740TIP3    H132105   6.744   5.293   2.872
10740TIP3    H232106   6.680   5.299   3.010
10741TIP3   OH232107   7.368   5.395   3.179
10741TIP3    H132108   7.429   5.441   3.120
10741TIP3    H232109   7.395   5.428   3.266
10742TIP3   OH232110   7.918   5.541   3.161
10742TIP3    H132111   7.919   5.499   3.074
10742TIP3    H232112   7.903   5.461   3.218
10743TIP3   OH232113   7.948   5.461   2.723
10743TIP3    H132114   7.861   5.502   2.737
10743TIP3    H232115   7.935   5.376   2.770
10744TIP3   OH232116   6.432   6.798   2.721
10744TIP3    H132117   6.345   6.769   2.688
10744TIP3    H232118   6.423   6.894   2.708
10745TIP3   OH232119   6.833   5.389   2.705
10745TIP3    H132120   6.883   5.325   2.651
10745TIP3    H232121   6.906   5.443   2.742
10746TIP3   OH232122   7.343   5.565   2.806
10746TIP3    H132123   7.403   5.518   2.867
10746TIP3    H232124   7.365   5.657   2.832
10747TIP3   OH232125   7.202   6.988   2.306
10747TIP3    H132126   7.291   7.010   2.271
10747TIP3    H232127   7.182   6.912   2.247
10748TIP3   OH232128   7.920   7.107   2.400
10748TIP3    H132129   7.912   7.009   2.387
10748TIP3    H232130   7.878   7.139   2.318
10749TIP3   OH232131   6.525   6.821   2.342
10749TIP3    H132132   6.475   6.870   2.410
10749TIP3    H232133   6.605   6.799   2.393
10750TIP3   OH232134   8.210   5.700   4.094
10750TIP3    H132135   8.227   5.668   4.186
10750TIP3    H232136   8.299   5.694   4.054
10751TIP3   OH232137   8.117   7.232   3.576
10751TIP3    H132138   8.042   7.280   3.536
10751TIP3    H232139   8.171   7.310   3.596
10752TIP3   OH232140   9.423   6.613   2.336
10752TIP3    H132141   9.402   6.708   2.326
10752TIP3    H232142   9.337   6.573   2.316
10753TIP3   OH232143   9.362   6.625   2.746
10753TIP3    H132144   9.426   6.613   2.818
10753TIP3    H232145   9.366   6.541   2.700
10754TIP3   OH232146   8.711   6.520   3.103
10754TIP3    H132147   8.742   6.451   3.165
10754TIP3    H232148   8.792   6.569   3.088
10755TIP3   OH232149   8.683   6.927   2.823
10755TIP3    H132150   8.676   6.829   2.824
10755TIP3    H232151   8.780   6.938   2.818
10756TIP3   OH232152   8.391   6.131   2.606
10756TIP3    H132153   8.343   6.215   2.622
10756TIP3    H232154   8.320   6.077   2.568
10757TIP3   OH232155   8.449   6.418   2.780
10757TIP3    H132156   8.498   6.341   2.818
10757TIP3    H232157   8.513   6.452   2.717
10758TIP3   OH232158   9.301   7.375   2.445
10758TIP3    H132159   9.337   7.289   2.420
10758TIP3    H232160   9.292   7.362   2.541
10759TIP3   OH232161   9.207   6.852   2.785
10759TIP3    H132162   9.249   6.768   2.757
10759TIP3    H232163   9.289   6.903   2.802
10760TIP3   OH232164   9.629   6.372   2.814
10760TIP3    H132165   9.632   6.276   2.834
10760TIP3    H232166   9.608   6.368   2.719
10761TIP3   OH232167   8.962   6.011   2.780
10761TIP3    H132168   8.943   6.083   2.717
10761TIP3    H232169   8.914   5.937   2.736
10762TIP3   OH232170   9.646   6.099   2.422
10762TIP3    H132171   9.716   6.059   2.475
10762TIP3    H232172   9.696   6.162   2.368
10763TIP3   OH232173   8.597   6.213   2.886
10763TIP3    H132174   8.679   6.193   2.934
10763TIP3    H232175   8.610   6.157   2.806
10764TIP3   OH232176   9.036   6.409   2.681
10764TIP3    H132177   9.131   6.385   2.693
10764TIP3    H232178   8.999   6.325   2.648
10765TIP3   OH232179   8.959   5.994   3.213
10765TIP3    H132180   8.899   6.031   3.146
10765TIP3    H232181   8.907   6.010   3.295
10766TIP3   OH232182   9.310   6.852   2.221
10766TIP3    H132183   9.263   6.826   2.140
10766TIP3    H232184   9.262   6.933   2.245
10767TIP3   OH232185   9.065   6.768   3.009
10767TIP3    H132186   9.006   6.837   3.045
10767TIP3    H232187   9.112   6.816   2.938
10768TIP3   OH232188   8.829   6.109   2.998
10768TIP3    H132189   8.892   6.182   3.021
10768TIP3    H232190   8.879   6.068   2.923
10769TIP3   OH232191   8.892   6.965   3.106
10769TIP3    H132192   8.869   7.052   3.068
10769TIP3    H232193   8.813   6.950   3.163
10770TIP3   OH232194   8.287   6.654   2.342
10770TIP3    H132195   8.248   6.681   2.257
10770TIP3    H232196   8.320   6.738   2.379
10771TIP3   OH232197   9.307   5.712   2.924
10771TIP3    H132198   9.298   5.616   2.939
10771TIP3    H232199   9.229   5.745   2.974
10772TIP3   OH232200   9.431   7.216   2.241
10772TIP3    H132201   9.497   7.154   2.275
10772TIP3    H232202   9.477   7.302   2.249
10773TIP3   OH232203   9.235   6.468   2.176
10773TIP3    H132204   9.155   6.524   2.166
10773TIP3    H232205   9.279   6.481   2.090
10774TIP3   OH232206   9.201   6.261   1.895
10774TIP3    H132207   9.259   6.300   1.962
10774TIP3    H232208   9.262   6.197   1.852
10775TIP3   OH232209   8.826   6.556   2.572
10775TIP3    H132210   8.787   6.497   2.505
10775TIP3    H232211   8.903   6.503   2.604
10776TIP3   OH232212   8.954   6.967   2.721
10776TIP3    H132213   8.940   6.921   2.637
10776TIP3    H232214   9.045   6.936   2.744
10777TIP3   OH232215   8.956   6.529   2.925
10777TIP3    H132216   8.994   6.504   2.838
10777TIP3    H232217   9.004   6.612   2.946
10778TIP3   OH232218   9.442   7.163   2.684
10778TIP3    H132219   9.471   7.246   2.727
10778TIP3    H232220   9.460   7.096   2.753
10779TIP3   OH232221   9.099   7.083   3.255
10779TIP3    H132222   9.038   7.146   3.299
10779TIP3    H232223   9.035   7.029   3.203
10780TIP3   OH232224   9.446   6.425   1.987
10780TIP3    H132225   9.485   6.487   2.051
10780TIP3    H232226   9.477   6.460   1.902
10781TIP3   OH232227   8.855   6.639   3.354
10781TIP3    H132228   8.860   6.727   3.397
10781TIP3    H232229   8.760   6.621   3.362
10782TIP3   OH232230   9.171   7.094   2.254
10782TIP3    H132231   9.249   7.149   2.271
10782TIP3    H232232   9.107   7.157   2.219
10783TIP3   OH232233   8.892   7.253   3.336
10783TIP3    H132234   8.858   7.252   3.245
10783TIP3    H232235   8.812   7.233   3.389
10784TIP3   OH232236   8.693   6.398   2.373
10784TIP3    H132237   8.624   6.441   2.319
10784TIP3    H232238   8.655   6.311   2.390
10785TIP3   OH232239   8.471   6.782   3.283
10785TIP3    H132240   8.408   6.756   3.213
10785TIP3    H232241   8.510   6.696   3.309
10786TIP3   OH232242   8.329   6.978   2.915
10786TIP3    H132243   8.423   6.958   2.903
10786TIP3    H232244   8.334   7.056   2.971
10787TIP3   OH232245   9.282   7.221   3.096
10787TIP3    H132246   9.289   7.309   3.138
10787TIP3    H232247   9.224   7.174   3.160
10788TIP3   OH232248   9.053   7.349   2.056
10788TIP3    H132249   9.006   7.326   1.974
10788TIP3    H232250   9.017   7.436   2.079
10789TIP3   OH232251   8.495   7.190   2.444
10789TIP3    H132252   8.545   7.181   2.529
10789TIP3    H232253   8.444   7.107   2.445
10790TIP3   OH232254   9.265   7.245   1.716
10790TIP3    H132255   9.339   7.189   1.689
10790TIP3    H232256   9.290   7.263   1.809
10791TIP3   OH232257   9.305   7.289   1.982
10791TIP3    H132258   9.214   7.300   2.018
10791TIP3    H232259   9.350   7.248   2.058
10792TIP3   OH232260   8.675   6.967   3.274
10792TIP3    H132261   8.729   6.948   3.353
10792TIP3    H232262   8.604   6.900   3.280
10793TIP3   OH232263   9.075   5.788   3.058
10793TIP3    H132264   8.986   5.758   3.031
10793TIP3    H232265   9.050   5.871   3.104
10794TIP3   OH232266   9.598   5.904   3.258
10794TIP3    H132267   9.642   5.890   3.342
10794TIP3    H232268   9.505   5.884   3.283
10795TIP3   OH232269   9.229   5.838   2.029
10795TIP3    H132270   9.197   5.837   2.122
10795TIP3    H232271   9.186   5.757   1.996
10796TIP3   OH232272   9.007   6.305   3.073
10796TIP3    H132273   8.960   6.328   3.155
10796TIP3    H232274   8.991   6.387   3.020
10797TIP3   OH232275   8.891   6.190   2.589
10797TIP3    H132276   8.799   6.163   2.608
10797TIP3    H232277   8.904   6.148   2.501
10798TIP3   OH232278   9.375   6.268   2.308
10798TIP3    H132279   9.326   6.344   2.271
10798TIP3    H232280   9.439   6.248   2.239
10799TIP3   OH232281   9.560   6.553   3.401
10799TIP3    H132282   9.535   6.482   3.465
10799TIP3    H232283   9.654   6.566   3.424
10800TIP3   OH232284   9.517   6.302   2.572
10800TIP3    H132285   9.489   6.352   2.493
10800TIP3    H232286   9.555   6.224   2.528
10801TIP3   OH232287   8.826   6.333   3.284
10801TIP3    H132288   8.862   6.394   3.351
10801TIP3    H232289   8.815   6.251   3.335
10802TIP3   OH232290   8.879   5.812   1.992
10802TIP3    H132291   8.872   5.809   2.090
10802TIP3    H232292   8.799   5.863   1.969
10803TIP3   OH232293   8.421   5.856   2.863
10803TIP3    H132294   8.496   5.887   2.918
10803TIP3    H232295   8.464   5.822   2.784
10804TIP3   OH232296   8.391   5.835   2.383
10804TIP3    H132297   8.438   5.873   2.305
10804TIP3    H232298   8.331   5.909   2.404
10805TIP3   OH232299   9.517   6.559   2.975
10805TIP3    H132300   9.573   6.502   2.917
10805TIP3    H232301   9.509   6.501   3.053
10806TIP3   OH232302   9.218   6.004   2.649
10806TIP3    H132303   9.136   6.007   2.702
10806TIP3    H232304   9.284   6.027   2.717
10807TIP3   OH232305   8.654   6.068   2.658
10807TIP3    H132306   8.559   6.074   2.631
10807TIP3    H232307   8.678   5.976   2.636
10808TIP3   OH232308   8.919   6.062   2.349
10808TIP3    H132309   9.014   6.077   2.333
10808TIP3    H232310   8.876   6.087   2.264
10809TIP3   OH232311   9.625   6.099   2.853
10809TIP3    H132312   9.618   6.105   2.951
10809TIP3    H232313   9.566   6.024   2.831
10810TIP3   OH232314   8.764   6.101   2.125
10810TIP3    H132315   8.692   6.054   2.078
10810TIP3    H232316   8.816   6.135   2.049
10811TIP3   OH232317   8.838   6.889   3.491
10811TIP3    H132318   8.920   6.918   3.536
10811TIP3    H232319   8.776   6.886   3.566
10812TIP3   OH232320   9.295   6.322   2.740
10812TIP3    H132321   9.376   6.306   2.687
10812TIP3    H232322   9.322   6.295   2.829
10813TIP3   OH232323   8.823   5.829   2.627
10813TIP3    H132324   8.789   5.750   2.675
10813TIP3    H232325   8.880   5.789   2.560
10814TIP3   OH232326   9.281   6.233   3.049
10814TIP3    H132327   9.191   6.273   3.050
10814TIP3    H232328   9.335   6.302   3.092
10815TIP3   OH232329   9.012   6.627   2.133
10815TIP3    H132330   8.939   6.561   2.122
10815TIP3    H232331   8.993   6.661   2.224
10816TIP3   OH232332   9.467   5.962   1.970
10816TIP3    H132333   9.381   5.931   2.008
10816TIP3    H232334   9.487   6.041   2.024
10817TIP3   OH232335   9.403   6.939   3.138
10817TIP3    H132336   9.440   6.933   3.226
10817TIP3    H232337   9.396   7.035   3.125
10818TIP3   OH232338   9.563   6.194   2.085
10818TIP3    H132339   9.651   6.222   2.113
10818TIP3    H232340   9.532   6.272   2.035
10819TIP3   OH232341   8.706   6.648   2.807
10819TIP3    H132342   8.746   6.622   2.721
10819TIP3    H232343   8.756   6.592   2.868
10820TIP3   OH232344   9.155   6.775   1.954
10820TIP3    H132345   9.110   6.862   1.960
10820TIP3    H232346   9.100   6.721   2.016
10821TIP3   OH232347   8.586   6.576   3.426
10821TIP3    H132348   8.614   6.560   3.518
10821TIP3    H232349   8.523   6.503   3.411
10822TIP3   OH232350   9.315   6.682   3.442
10822TIP3    H132351   9.256   6.627   3.388
10822TIP3    H232352   9.403   6.652   3.410
10823TIP3   OH232353   9.562   7.183   3.042
10823TIP3    H132354   9.470   7.210   3.030
10823TIP3    H232355   9.598   7.257   3.093
10824TIP3   OH232356   8.808   6.954   2.430
10824TIP3    H132357   8.809   7.036   2.378
10824TIP3    H232358   8.714   6.939   2.443
10825TIP3   OH232359   8.372   6.258   2.137
10825TIP3    H132360   8.419   6.342   2.158
10825TIP3    H232361   8.296   6.263   2.198
10826TIP3   OH232362   8.944   6.719   2.375
10826TIP3    H132363   8.910   6.809   2.395
10826TIP3    H232364   8.913   6.669   2.453
10827TIP3   OH232365   9.078   7.295   2.902
10827TIP3    H132366   9.124   7.366   2.852
10827TIP3    H232367   9.153   7.259   2.953
10828TIP3   OH232368   8.727   7.195   2.284
10828TIP3    H132369   8.642   7.203   2.331
10828TIP3    H232370   8.759   7.287   2.289
10829TIP3   OH232371   9.460   6.934   2.861
10829TIP3    H132372   9.453   6.935   2.959
10829TIP3    H232373   9.540   6.881   2.848
10830TIP3   OH232374   8.801   6.077   3.429
10830TIP3    H132375   8.704   6.080   3.443
10830TIP3    H232376   8.830   6.019   3.502
10831TIP3   OH232377   8.511   7.161   3.067
10831TIP3    H132378   8.567   7.087   3.093
10831TIP3    H232379   8.552   7.233   3.117
10832TIP3   OH232380   8.805   6.804   1.744
10832TIP3    H132381   8.820   6.712   1.717
10832TIP3    H232382   8.787   6.793   1.839
10833TIP3   OH232383   8.751   6.810   2.017
10833TIP3    H132384   8.823   6.783   2.076
10833TIP3    H232385   8.756   6.908   2.024
10834TIP3   OH232386   8.486   6.502   2.219
10834TIP3    H132387   8.420   6.547   2.276
10834TIP3    H232388   8.502   6.572   2.153
10835TIP3   OH232389   9.672   6.138   3.138
10835TIP3    H132390   9.696   6.187   3.220
10835TIP3    H232391   9.634   6.057   3.177
10836TIP3   OH232392   9.482   5.917   2.279
10836TIP3    H132393   9.521   5.908   2.192
10836TIP3    H232394   9.544   5.979   2.323
10837TIP3   OH232395   9.018   7.008   1.963
10837TIP3    H132396   8.932   7.034   2.001
10837TIP3    H232397   9.032   7.080   1.900
10838TIP3   OH232398   9.196   6.072   2.380
10838TIP3    H132399   9.266   6.139   2.360
10838TIP3    H232400   9.207   6.063   2.477
10839TIP3   OH232401   9.478   6.388   3.187
10839TIP3    H132402   9.493   6.450   3.262
10839TIP3    H232403   9.540   6.317   3.208
10840TIP3   OH232404   9.347   5.797   2.485
10840TIP3    H132405   9.330   5.877   2.538
10840TIP3    H232406   9.402   5.835   2.412
10841TIP3   OH232407   8.762   7.083   2.033
10841TIP3    H132408   8.733   7.153   1.970
10841TIP3    H232409   8.746   7.126   2.119
10842TIP3   OH232410   8.863   5.797   2.268
10842TIP3    H132411   8.860   5.886   2.308
10842TIP3    H232412   8.959   5.778   2.278
10843TIP3   OH232413   8.480   6.713   2.024
10843TIP3    H132414   8.548   6.781   2.033
10843TIP3    H232415   8.524   6.656   1.957
10844TIP3   OH232416   8.425   5.988   2.158
10844TIP3    H132417   8.424   6.086   2.154
10844TIP3    H232418   8.342   5.966   2.114
10845TIP3   OH232419   8.811   5.709   3.031
10845TIP3    H132420   8.781   5.674   2.945
10845TIP3    H232421   8.801   5.631   3.089
10846TIP3   OH232422   8.352   6.930   2.412
10846TIP3    H132423   8.279   6.959   2.469
10846TIP3    H232424   8.324   6.969   2.326
10847TIP3   OH232425   8.511   7.471   3.485
10847TIP3    H132426   8.597   7.478   3.533
10847TIP3    H232427   8.504   7.374   3.479
10848TIP3   OH232428   8.987   7.433   3.528
10848TIP3    H132429   9.082   7.416   3.536
10848TIP3    H232430   8.965   7.374   3.454
10849TIP3   OH232431   8.968   7.008   1.658
10849TIP3    H132432   8.911   6.938   1.696
10849TIP3    H232433   9.042   6.955   1.625
10850TIP3   OH232434   9.595   7.357   3.269
10850TIP3    H132435   9.622   7.282   3.325
10850TIP3    H232436   9.678   7.398   3.238
10851TIP3   OH232437   8.638   6.877   3.683
10851TIP3    H132438   8.657   6.782   3.692
10851TIP3    H232439   8.550   6.876   3.640
10852TIP3   OH232440   8.615   6.525   1.878
10852TIP3    H132441   8.670   6.493   1.951
10852TIP3    H232442   8.683   6.530   1.807
10853TIP3   OH232443   9.244   6.958   3.459
10853TIP3    H132444   9.209   6.980   3.370
10853TIP3    H232445   9.277   6.867   3.447
10854TIP3   OH232446   9.121   6.725   1.685
10854TIP3    H132447   9.134   6.741   1.781
10854TIP3    H232448   9.119   6.627   1.684
10855TIP3   OH232449   8.756   6.610   3.665
10855TIP3    H132450   8.830   6.553   3.643
10855TIP3    H232451   8.782   6.641   3.754
10856TIP3   OH232452   8.820   6.429   2.098
10856TIP3    H132453   8.795   6.391   2.184
10856TIP3    H232454   8.856   6.352   2.050
10857TIP3   OH232455   9.091   6.491   3.322
10857TIP3    H132456   9.016   6.554   3.326
10857TIP3    H232457   9.143   6.526   3.246
10858TIP3   OH232458   8.922   6.224   1.938
10858TIP3    H132459   8.895   6.228   1.844
10858TIP3    H232460   9.019   6.230   1.930
10859TIP3   OH232461   9.600   6.889   3.469
10859TIP3    H132462   9.674   6.866   3.413
10859TIP3    H232463   9.603   6.820   3.538
10860TIP3   OH232464   9.218   6.284   3.452
10860TIP3    H132465   9.216   6.203   3.398
10860TIP3    H232466   9.173   6.349   3.394
10861TIP3   OH232467   9.217   6.067   3.264
10861TIP3    H132468   9.244   6.113   3.182
10861TIP3    H232469   9.124   6.045   3.244
10862TIP3   OH232470   9.248   6.602   3.132
10862TIP3    H132471   9.331   6.610   3.082
10862TIP3    H232472   9.193   6.671   3.089
10863TIP3   OH232473   9.835   6.575   3.512
10863TIP3    H132474   9.867   6.490   3.548
10863TIP3    H232475   9.918   6.624   3.502
10864TIP3   OH232476   9.093   6.393   3.683
10864TIP3    H132477   9.025   6.324   3.699
10864TIP3    H232478   9.128   6.366   3.596
10865TIP3   OH232479   9.345   5.829   3.319
10865TIP3    H132480   9.294   5.912   3.303
10865TIP3    H232481   9.275   5.761   3.312
10866TIP3   OH232482   9.479   6.335   3.541
10866TIP3    H132483   9.466   6.321   3.637
10866TIP3    H232484   9.388   6.313   3.511
10867TIP3   OH232485   9.704   6.252   3.388
10867TIP3    H132486   9.628   6.275   3.446
10867TIP3    H232487   9.775   6.240   3.454
10868TIP3   OH232488   9.920   6.206   3.568
10868TIP3    H132489   9.972   6.139   3.615
10868TIP3    H232490   9.915   6.276   3.638
10869TIP3   OH232491   8.933   6.173   3.737
10869TIP3    H132492   8.938   6.081   3.705
10869TIP3    H232493   8.970   6.162   3.827
10870TIP3   OH232494   9.459   5.855   3.568
10870TIP3    H132495   9.502   5.769   3.582
10870TIP3    H232496   9.407   5.838   3.488
10871TIP3   OH232497   9.516   6.064   3.735
10871TIP3    H132498   9.493   5.992   3.672
10871TIP3    H232499   9.435   6.119   3.735
10872TIP3   OH232500   8.732   7.285   1.847
10872TIP3    H132501   8.827   7.280   1.826
10872TIP3    H232502   8.700   7.333   1.768
10873TIP3   OH232503   8.211   6.668   2.060
10873TIP3    H132504   8.306   6.689   2.046
10873TIP3    H232505   8.206   6.579   2.019
10874TIP3   OH232506   8.123   7.280   2.476
10874TIP3    H132507   8.058   7.216   2.439
10874TIP3    H232508   8.169   7.222   2.541
10875TIP3   OH232509   8.259   7.131   2.663
10875TIP3    H132510   8.252   7.056   2.725
10875TIP3    H232511   8.317   7.190   2.714
10876TIP3   OH232512   8.447   6.542   3.032
10876TIP3    H132513   8.447   6.508   2.940
10876TIP3    H232514   8.544   6.542   3.050
10877TIP3   OH232515   8.667   6.230   3.708
10877TIP3    H132516   8.765   6.222   3.711
10877TIP3    H232517   8.642   6.144   3.746
10878TIP3   OH232518   8.626   5.918   3.039
10878TIP3    H132519   8.688   5.842   3.049
10878TIP3    H232520   8.689   5.992   3.032
10879TIP3   OH232521   8.428   6.192   3.109
10879TIP3    H132522   8.478   6.185   3.025
10879TIP3    H232523   8.465   6.273   3.146
10880TIP3   OH232524   8.413   5.693   2.612
10880TIP3    H132525   8.320   5.690   2.639
10880TIP3    H232526   8.410   5.752   2.533
10881TIP3   OH232527   8.634   5.775   3.426
10881TIP3    H132528   8.584   5.768   3.509
10881TIP3    H232529   8.566   5.812   3.366
10882TIP3   OH232530   8.671   7.209   3.503
10882TIP3    H132531   8.584   7.170   3.485
10882TIP3    H232532   8.687   7.185   3.595
10883TIP3   OH232533   8.850   7.235   3.050
10883TIP3    H132534   8.808   7.314   3.009
10883TIP3    H232535   8.939   7.245   3.009
10884TIP3   OH232536   9.295   7.483   3.193
10884TIP3    H132537   9.344   7.483   3.278
10884TIP3    H232538   9.361   7.527   3.134
10885TIP3   OH232539   9.469   7.627   3.035
10885TIP3    H132540   9.557   7.585   3.026
10885TIP3    H232541   9.493   7.697   3.099
10886TIP3   OH232542   8.525   7.489   3.076
10886TIP3    H132543   8.435   7.523   3.055
10886TIP3    H232544   8.544   7.535   3.159
10887TIP3   OH232545   8.761   7.468   2.933
10887TIP3    H132546   8.674   7.481   2.976
10887TIP3    H232547   8.744   7.502   2.843
10888TIP3   OH232548   9.186   7.495   2.725
10888TIP3    H132549   9.111   7.519   2.668
10888TIP3    H232550   9.201   7.579   2.774
10889TIP3   OH232551   9.458   7.431   2.758
10889TIP3    H132552   9.364   7.456   2.759
10889TIP3    H232553   9.503   7.516   2.772
10890TIP3   OH232554   8.438   7.283   2.819
10890TIP3    H132555   8.466   7.261   2.910
10890TIP3    H232556   8.512   7.241   2.769
10891TIP3   OH232557   8.634   7.156   2.678
10891TIP3    H132558   8.650   7.072   2.725
10891TIP3    H232559   8.726   7.193   2.675
10892TIP3   OH232560   8.900   7.249   2.684
10892TIP3    H132561   8.932   7.158   2.672
10892TIP3    H232562   8.950   7.271   2.766
10893TIP3   OH232563   9.476   5.876   2.768
10893TIP3    H132564   9.417   5.816   2.818
10893TIP3    H232565   9.503   5.819   2.694
10894TIP3   OH232566   8.723   5.616   2.782
10894TIP3    H132567   8.631   5.582   2.785
10894TIP3    H232568   8.773   5.531   2.779
10895TIP3   OH232569   8.508   5.486   2.431
10895TIP3    H132570   8.540   5.544   2.359
10895TIP3    H232571   8.482   5.551   2.499
10896TIP3   OH232572   9.161   5.650   2.663
10896TIP3    H132573   9.222   5.692   2.600
10896TIP3    H232574   9.191   5.687   2.747
10897TIP3   OH232575   8.227   7.058   2.210
10897TIP3    H132576   8.142   7.025   2.176
10897TIP3    H232577   8.217   7.152   2.190
10898TIP3   OH232578   8.628   5.647   2.193
10898TIP3    H132579   8.677   5.583   2.138
10898TIP3    H232580   8.702   5.700   2.230
10899TIP3   OH232581   9.141   5.820   2.291
10899TIP3    H132582   9.201   5.774   2.352
10899TIP3    H232583   9.161   5.913   2.317
10900TIP3   OH232584   8.999   7.246   1.792
10900TIP3    H132585   9.086   7.269   1.754
10900TIP3    H232586   8.975   7.172   1.731
10901TIP3   OH232587   8.934   5.897   3.675
10901TIP3    H132588   8.898   5.826   3.731
10901TIP3    H232589   9.028   5.895   3.703
10902TIP3   OH232590   9.183   5.887   3.798
10902TIP3    H132591   9.269   5.856   3.767
10902TIP3    H232592   9.167   5.821   3.870
10903TIP3   OH232593   8.303   7.081   1.849
10903TIP3    H132594   8.308   7.105   1.942
10903TIP3    H232595   8.391   7.039   1.834
10904TIP3   OH232596   0.372   7.456   4.603
10904TIP3    H132597   0.423   7.395   4.659
10904TIP3    H232598   0.409   7.542   4.628
10905TIP3   OH232599   0.881   6.702   4.981
10905TIP3    H132600   0.913   6.785   5.022
10905TIP3    H232601   0.905   6.717   4.888
10906TIP3   OH232602   0.357   6.880   5.010
10906TIP3    H132603   0.388   6.789   5.029
10906TIP3    H232604   0.327   6.867   4.918
10907TIP3   OH232605   0.310   6.633   4.609
10907TIP3    H132606   0.386   6.616   4.669
10907TIP3    H232607   0.357   6.664   4.530
10908TIP3   OH232608   0.962   6.908   5.150
10908TIP3    H132609   0.877   6.953   5.129
10908TIP3    H232610   0.974   6.934   5.243
10909TIP3   OH232611   0.525   6.635   4.776
10909TIP3    H132612   0.501   6.599   4.863
10909TIP3    H232613   0.581   6.711   4.799
10910TIP3   OH232614   0.688   6.597   5.155
10910TIP3    H132615   0.601   6.635   5.135
10910TIP3    H232616   0.741   6.629   5.079
10911TIP3   OH232617   0.247   7.529   4.346
10911TIP3    H132618   0.183   7.460   4.322
10911TIP3    H232619   0.292   7.489   4.422
10912TIP3   OH232620   0.625   7.620   5.136
10912TIP3    H132621   0.590   7.538   5.096
10912TIP3    H232622   0.597   7.686   5.070
10913TIP3   OH232623   0.826   7.238   4.972
10913TIP3    H132624   0.741   7.287   4.981
10913TIP3    H232625   0.850   7.266   4.881
10914TIP3   OH232626   0.260   7.098   4.346
10914TIP3    H132627   0.198   7.121   4.419
10914TIP3    H232628   0.337   7.064   4.396
10915TIP3   OH232629   0.511   7.153   5.245
10915TIP3    H132630   0.494   7.218   5.316
10915TIP3    H232631   0.421   7.136   5.214
10916TIP3   OH232632   0.160   6.905   4.166
10916TIP3    H132633   0.165   6.976   4.234
10916TIP3    H232634   0.125   6.956   4.092
10917TIP3   OH232635   0.606   6.188   4.231
10917TIP3    H132636   0.525   6.209   4.283
10917TIP3    H232637   0.619   6.272   4.183
10918TIP3   OH232638   0.407   7.556   3.780
10918TIP3    H132639   0.419   7.653   3.771
10918TIP3    H232640   0.499   7.524   3.767
10919TIP3   OH232641   0.863   7.949   5.172
10919TIP3    H132642   0.862   7.853   5.192
10919TIP3    H232643   0.769   7.972   5.190
10920TIP3   OH232644   0.735   7.089   5.448
10920TIP3    H132645   0.659   7.097   5.388
10920TIP3    H232646   0.753   6.994   5.444
10921TIP3   OH232647   0.280   6.428   5.453
10921TIP3    H132648   0.354   6.397   5.511
10921TIP3    H232649   0.215   6.462   5.515
10922TIP3   OH232650   0.531   6.873   5.349
10922TIP3    H132651   0.498   6.874   5.442
10922TIP3    H232652   0.473   6.942   5.312
10923TIP3   OH232653   0.150   7.020   3.906
10923TIP3    H132654   0.136   6.965   3.826
10923TIP3    H232655   0.245   7.041   3.900
10924TIP3   OH232656   0.209   6.841   4.767
10924TIP3    H132657   0.128   6.860   4.717
10924TIP3    H232658   0.236   6.759   4.719
10925TIP3   OH232659   0.383   6.605   5.027
10925TIP3    H132660   0.383   6.608   5.125
10925TIP3    H232661   0.306   6.547   5.012
10926TIP3   OH232662   0.601   7.383   4.967
10926TIP3    H132663   0.619   7.439   4.889
10926TIP3    H232664   0.503   7.385   4.969
10927TIP3   OH232665   0.084   6.480   4.190
10927TIP3    H132666   0.007   6.536   4.207
10927TIP3    H232667   0.155   6.545   4.211
10928TIP3   OH232668   0.238   6.676   4.281
10928TIP3    H132669   0.321   6.710   4.317
10928TIP3    H232670   0.198   6.759   4.245
10929TIP3   OH232671   0.642   6.809   4.137
10929TIP3    H132672   0.580   6.765   4.074
10929TIP3    H232673   0.637   6.899   4.098
10930TIP3   OH232674   0.872   7.670   5.219
10930TIP3    H132675   0.774   7.662   5.212
10930TIP3    H232676   0.896   7.638   5.129
10931TIP3   OH232677   0.339   7.633   4.049
10931TIP3    H132678   0.316   7.569   4.119
10931TIP3    H232679   0.358   7.576   3.972
10932TIP3   OH232680   0.339   7.261   4.859
10932TIP3    H132681   0.267   7.219   4.908
10932TIP3    H232682   0.382   7.184   4.819
10933TIP3   OH232683   0.433   7.837   3.768
10933TIP3    H132684   0.488   7.909   3.729
10933TIP3    H232685   0.345   7.870   3.744
10934TIP3   OH232686   0.253   7.291   4.144
10934TIP3    H132687   0.239   7.223   4.214
10934TIP3    H232688   0.350   7.289   4.141
10935TIP3   OH232689   0.386   6.634   5.290
10935TIP3    H132690   0.424   6.714   5.330
10935TIP3    H232691   0.363   6.578   5.367
10936TIP3   OH232692   0.189   6.413   4.465
10936TIP3    H132693   0.158   6.458   4.385
10936TIP3    H232694   0.212   6.490   4.522
10937TIP3   OH232695   0.791   6.818   5.368
10937TIP3    H132696   0.693   6.827   5.363
10937TIP3    H232697   0.807   6.772   5.284
10938TIP3   OH232698   0.428   7.021   4.752
10938TIP3    H132699   0.353   6.959   4.755
10938TIP3    H232700   0.498   6.972   4.802
10939TIP3   OH232701   0.459   7.918   4.688
10939TIP3    H132702   0.364   7.941   4.678
10939TIP3    H232703   0.497   8.003   4.712
10940TIP3   OH232704   0.402   7.091   3.804
10940TIP3    H132705   0.385   7.039   3.723
10940TIP3    H232706   0.375   7.179   3.771
10941TIP3   OH232707   0.509   7.133   5.764
10941TIP3    H132708   0.504   7.040   5.736
10941TIP3    H232709   0.563   7.171   5.694
10942TIP3   OH232710   0.531   7.356   5.444
10942TIP3    H132711   0.470   7.411   5.393
10942TIP3    H232712   0.618   7.376   5.401
10943TIP3   OH232713   0.426   6.861   5.594
10943TIP3    H132714   0.344   6.832   5.637
10943TIP3    H232715   0.493   6.816   5.650
10944TIP3   OH232716   0.595   6.745   5.765
10944TIP3    H132717   0.617   6.652   5.783
10944TIP3    H232718   0.593   6.788   5.853
10945TIP3   OH232719   0.687   8.168   4.667
10945TIP3    H132720   0.688   8.121   4.753
10945TIP3    H232721   0.667   8.099   4.603
10946TIP3   OH232722   0.664   8.066   4.922
10946TIP3    H132723   0.638   7.977   4.952
10946TIP3    H232724   0.737   8.084   4.982
10947TIP3   OH232725   0.715   7.767   5.511
10947TIP3    H132726   0.667   7.769   5.594
10947TIP3    H232727   0.765   7.852   5.514
10948TIP3   OH232728   0.537   7.275   4.137
10948TIP3    H132729   0.609   7.335   4.111
10948TIP3    H232730   0.576   7.234   4.218
10949TIP3   OH232731   0.664   7.143   4.342
10949TIP3    H132732   0.599   7.096   4.399
10949TIP3    H232733   0.729   7.176   4.407
10950TIP3   OH232734   0.702   7.531   4.759
10950TIP3    H132735   0.767   7.466   4.724
10950TIP3    H232736   0.720   7.610   4.704
10951TIP3   OH232737   0.521   7.815   4.962
10951TIP3    H132738   0.462   7.881   5.002
10951TIP3    H232739   0.502   7.825   4.867
10952TIP3   OH232740   0.603   7.049   3.989
10952TIP3    H132741   0.530   7.051   3.923
10952TIP3    H232742   0.575   7.123   4.047
10953TIP3   OH232743   0.480   6.720   3.936
10953TIP3    H132744   0.430   6.754   3.861
10953TIP3    H232745   0.453   6.625   3.935
10954TIP3   OH232746   0.485   6.994   4.486
10954TIP3    H132747   0.490   6.897   4.477
10954TIP3    H232748   0.472   7.005   4.583
10955TIP3   OH232749   0.773   7.424   5.344
10955TIP3    H132750   0.843   7.355   5.336
10955TIP3    H232751   0.800   7.487   5.276
10956TIP3   OH232752   0.953   7.226   5.365
10956TIP3    H132753   0.877   7.174   5.401
10956TIP3    H232754   1.026   7.162   5.379
10957TIP3   OH232755   0.417   6.455   3.932
10957TIP3    H132756   0.497   6.427   3.982
10957TIP3    H232757   0.350   6.390   3.958
10958TIP3   OH232758   0.489   6.720   4.395
10958TIP3    H132759   0.527   6.630   4.409
10958TIP3    H232760   0.541   6.748   4.317
10959TIP3   OH232761   0.637   6.885   4.873
10959TIP3    H132762   0.724   6.911   4.835
10959TIP3    H232763   0.648   6.920   4.964
10960TIP3   OH232764   0.714   7.025   5.106
10960TIP3    H132765   0.638   7.065   5.153
10960TIP3    H232766   0.750   7.104   5.060
10961TIP3   OH232767   1.155   6.618   5.670
10961TIP3    H132768   1.216   6.553   5.628
10961TIP3    H232769   1.130   6.674   5.593
10962TIP3   OH232770   0.586   6.464   4.420
10962TIP3    H132771   0.633   6.446   4.505
10962TIP3    H232772   0.524   6.388   4.418
10963TIP3   OH232773   1.035   6.760   5.472
10963TIP3    H132774   0.946   6.798   5.479
10963TIP3    H232775   1.015   6.684   5.414
10964TIP3   OH232776   0.663   6.398   4.052
10964TIP3    H132777   0.706   6.325   4.003
10964TIP3    H232778   0.732   6.467   4.050
10965TIP3   OH232779   0.929   6.521   5.351
10965TIP3    H132780   0.839   6.516   5.314
10965TIP3    H232781   0.961   6.429   5.340
10966TIP3   OH232782   0.179   6.409   4.992
10966TIP3    H132783   0.157   6.322   5.029
10966TIP3    H232784   0.253   6.384   4.933
10967TIP3   OH232785   0.657   6.319   4.875
10967TIP3    H132786   0.695   6.372   4.800
10967TIP3    H232787   0.562   6.341   4.867
10968TIP3   OH232788   0.750   6.419   4.638
10968TIP3    H132789   0.824   6.368   4.599
10968TIP3    H232790   0.783   6.511   4.624
10969TIP3   OH232791   0.381   6.317   4.838
10969TIP3    H132792   0.388   6.280   4.749
10969TIP3    H232793   0.368   6.236   4.892
10970TIP3   OH232794   0.404   6.251   4.410
10970TIP3    H132795   0.320   6.299   4.428
10970TIP3    H232796   0.386   6.165   4.455
10971TIP3   OH232797   0.379   7.901   4.070
10971TIP3    H132798   0.371   7.804   4.087
10971TIP3    H232799   0.340   7.903   3.982
10972TIP3   OH232800   0.661   6.481   5.786
10972TIP3    H132801   0.683   6.449   5.876
10972TIP3    H232802   0.748   6.479   5.742
10973TIP3   OH232803   0.606   8.031   5.211
10973TIP3    H132804   0.529   7.989   5.253
10973TIP3    H232805   0.612   8.110   5.267
10974TIP3   OH232806   1.869   7.413   4.039
10974TIP3    H132807   1.839   7.505   4.020
10974TIP3    H232808   1.791   7.363   4.012
10975TIP3   OH232809   1.864   7.411   4.427
10975TIP3    H132810   1.900   7.386   4.514
10975TIP3    H232811   1.825   7.327   4.398
10976TIP3   OH232812   1.161   7.307   4.792
10976TIP3    H132813   1.192   7.238   4.853
10976TIP3    H232814   1.243   7.358   4.780
10977TIP3   OH232815   2.110   7.716   4.105
10977TIP3    H132816   2.096   7.645   4.169
10977TIP3    H232817   2.139   7.789   4.162
10978TIP3   OH232818   1.137   7.713   4.513
10978TIP3    H132819   1.130   7.615   4.514
10978TIP3    H232820   1.234   7.723   4.513
10979TIP3   OH232821   0.843   6.921   4.297
10979TIP3    H132822   0.794   7.003   4.312
10979TIP3    H232823   0.773   6.864   4.260
10980TIP3   OH232824   0.902   7.207   4.474
10980TIP3    H132825   0.950   7.129   4.510
10980TIP3    H232826   0.961   7.236   4.404
10981TIP3   OH232827   1.760   8.177   4.121
10981TIP3    H132828   1.805   8.105   4.073
10981TIP3    H232829   1.751   8.139   4.210
10982TIP3   OH232830   1.665   7.638   4.471
10982TIP3    H132831   1.704   7.559   4.429
10982TIP3    H232832   1.749   7.684   4.495
10983TIP3   OH232833   2.678   6.960   4.470
10983TIP3    H132834   2.707   7.040   4.518
10983TIP3    H232835   2.698   6.983   4.378
10984TIP3   OH232836   2.080   7.142   4.502
10984TIP3    H132837   2.119   7.056   4.525
10984TIP3    H232838   2.045   7.123   4.413
10985TIP3   OH232839   1.412   6.799   4.470
10985TIP3    H132840   1.395   6.870   4.405
10985TIP3    H232841   1.368   6.723   4.425
10986TIP3   OH232842   2.110   6.888   4.090
10986TIP3    H132843   2.180   6.872   4.157
10986TIP3    H232844   2.164   6.925   4.018
10987TIP3   OH232845   1.050   7.001   4.575
10987TIP3    H132846   1.132   6.980   4.623
10987TIP3    H232847   1.062   6.945   4.496
10988TIP3   OH232848   1.489   7.198   4.371
10988TIP3    H132849   1.583   7.173   4.384
10988TIP3    H232850   1.451   7.114   4.339
10989TIP3   OH232851   2.752   7.165   4.638
10989TIP3    H132852   2.666   7.212   4.627
10989TIP3    H232853   2.764   7.174   4.734
10990TIP3   OH232854   1.412   6.783   4.903
10990TIP3    H132855   1.351   6.818   4.835
10990TIP3    H232856   1.360   6.800   4.984
10991TIP3   OH232857   1.762   7.637   3.908
10991TIP3    H132858   1.714   7.612   3.828
10991TIP3    H232859   1.715   7.718   3.934
10992TIP3   OH232860   1.518   7.557   4.697
10992TIP3    H132861   1.457   7.624   4.735
10992TIP3    H232862   1.562   7.608   4.625
10993TIP3   OH232863   2.319   6.893   4.263
10993TIP3    H132864   2.302   6.845   4.345
10993TIP3    H232865   2.370   6.970   4.294
10994TIP3   OH232866   1.282   6.897   4.688
10994TIP3    H132867   1.346   6.968   4.711
10994TIP3    H232868   1.330   6.855   4.613
10995TIP3   OH232869   1.346   7.752   4.795
10995TIP3    H132870   1.320   7.839   4.759
10995TIP3    H232871   1.268   7.735   4.852
10996TIP3   OH232872   0.742   7.443   4.033
10996TIP3    H132873   0.701   7.470   3.949
10996TIP3    H232874   0.774   7.527   4.070
10997TIP3   OH232875   2.179   7.958   4.271
10997TIP3    H132876   2.090   7.948   4.312
10997TIP3    H232877   2.170   8.045   4.228
10998TIP3   OH232878   2.471   6.856   4.634
10998TIP3    H132879   2.384   6.888   4.605
10998TIP3    H232880   2.531   6.890   4.564
10999TIP3   OH232881   1.789   6.520   4.621
10999TIP3    H132882   1.782   6.425   4.597
10999TIP3    H232883   1.701   6.534   4.662
11000TIP3   OH232884   1.881   8.003   3.944
11000TIP3    H132885   1.932   7.921   3.926
11000TIP3    H232886   1.942   8.068   3.904
11001TIP3   OH232887   2.027   7.788   3.852
11001TIP3    H132888   1.978   7.710   3.822
11001TIP3    H232889   2.064   7.756   3.937
11002TIP3   OH232890   2.405   7.871   4.615
11002TIP3    H132891   2.394   7.792   4.558
11002TIP3    H232892   2.390   7.944   4.552
11003TIP3   OH232893   1.697   7.263   3.873
11003TIP3    H132894   1.616   7.314   3.851
11003TIP3    H232895   1.743   7.261   3.787
11004TIP3   OH232896   1.655   7.050   3.587
11004TIP3    H132897   1.723   7.099   3.638
11004TIP3    H232898   1.712   6.986   3.541
11005TIP3   OH232899   2.601   7.507   4.459
11005TIP3    H132900   2.518   7.558   4.466
11005TIP3    H232901   2.630   7.531   4.369
11006TIP3   OH232902   2.047   7.347   3.843
11006TIP3    H132903   1.991   7.370   3.922
11006TIP3    H232904   2.129   7.320   3.888
11007TIP3   OH232905   2.281   7.385   4.759
11007TIP3    H132906   2.278   7.466   4.812
11007TIP3    H232907   2.194   7.391   4.714
11008TIP3   OH232908   1.279   7.344   4.261
11008TIP3    H132909   1.238   7.285   4.195
11008TIP3    H232910   1.355   7.290   4.292
11009TIP3   OH232911   1.409   7.758   4.409
11009TIP3    H132912   1.388   7.712   4.326
11009TIP3    H232913   1.498   7.722   4.429
11010TIP3   OH232914   1.409   7.316   4.616
11010TIP3    H132915   1.445   7.291   4.528
11010TIP3    H232916   1.456   7.400   4.635
11011TIP3   OH232917   1.939   7.952   4.393
11011TIP3    H132918   1.927   8.031   4.449
11011TIP3    H232919   1.925   7.878   4.455
11012TIP3   OH232920   1.552   7.872   4.938
11012TIP3    H132921   1.493   7.934   4.986
11012TIP3    H232922   1.487   7.818   4.890
11013TIP3   OH232923   1.886   7.204   3.671
11013TIP3    H132924   1.945   7.263   3.723
11013TIP3    H232925   1.912   7.228   3.579
11014TIP3   OH232926   1.307   7.430   5.042
11014TIP3    H132927   1.310   7.517   5.087
11014TIP3    H232928   1.212   7.409   5.052
11015TIP3   OH232929   1.630   7.882   3.944
11015TIP3    H132930   1.709   7.935   3.961
11015TIP3    H232931   1.568   7.947   3.908
11016TIP3   OH232932   1.347   8.040   5.025
11016TIP3    H132933   1.310   8.039   4.935
11016TIP3    H232934   1.269   8.018   5.081
11017TIP3   OH232935   2.400   6.444   3.719
11017TIP3    H132936   2.319   6.463   3.771
11017TIP3    H232937   2.412   6.529   3.672
11018TIP3   OH232938   1.145   7.188   4.065
11018TIP3    H132939   1.075   7.228   4.009
11018TIP3    H232940   1.109   7.100   4.081
11019TIP3   OH232941   2.200   7.812   3.266
11019TIP3    H132942   2.208   7.909   3.253
11019TIP3    H232943   2.292   7.783   3.252
11020TIP3   OH232944   0.926   7.570   4.973
11020TIP3    H132945   0.864   7.541   4.905
11020TIP3    H232946   0.966   7.485   5.003
11021TIP3   OH232947   0.791   7.764   4.615
11021TIP3    H132948   0.880   7.741   4.584
11021TIP3    H232949   0.813   7.837   4.676
11022TIP3   OH232950   2.641   8.214   4.659
11022TIP3    H132951   2.643   8.117   4.677
11022TIP3    H232952   2.559   8.239   4.707
11023TIP3   OH232953   1.748   8.002   4.795
11023TIP3    H132954   1.747   8.094   4.830
11023TIP3    H232955   1.678   7.961   4.850
11024TIP3   OH232956   1.512   8.131   3.748
11024TIP3    H132957   1.463   8.112   3.666
11024TIP3    H232958   1.477   8.218   3.774
11025TIP3   OH232959   0.948   7.979   4.133
11025TIP3    H132960   1.001   7.967   4.215
11025TIP3    H232961   0.895   7.897   4.135
11026TIP3   OH232962   1.712   8.032   3.388
11026TIP3    H132963   1.770   7.961   3.353
11026TIP3    H232964   1.745   8.040   3.480
11027TIP3   OH232965   1.762   8.078   3.658
11027TIP3    H132966   1.674   8.089   3.699
11027TIP3    H232967   1.812   8.037   3.731
11028TIP3   OH232968   2.534   7.347   4.937
11028TIP3    H132969   2.452   7.353   4.886
11028TIP3    H232970   2.554   7.251   4.928
11029TIP3   OH232971   1.130   7.754   4.961
11029TIP3    H132972   1.180   7.737   5.044
11029TIP3    H232973   1.057   7.690   4.969
11030TIP3   OH232974   1.528   6.572   4.749
11030TIP3    H132975   1.439   6.543   4.719
11030TIP3    H232976   1.504   6.656   4.793
11031TIP3   OH232977   2.062   6.696   4.943
11031TIP3    H132978   2.131   6.664   5.005
11031TIP3    H232979   1.979   6.671   4.988
11032TIP3   OH232980   2.293   7.119   4.855
11032TIP3    H132981   2.249   7.116   4.943
11032TIP3    H232982   2.274   7.209   4.824
11033TIP3   OH232983   1.962   7.250   3.415
11033TIP3    H132984   1.928   7.225   3.327
11033TIP3    H232985   2.044   7.297   3.391
11034TIP3   OH232986   1.676   6.626   3.718
11034TIP3    H132987   1.644   6.623   3.811
11034TIP3    H232988   1.636   6.543   3.685
11035TIP3   OH232989   1.460   7.093   4.765
11035TIP3    H132990   1.411   7.114   4.847
11035TIP3    H232991   1.443   7.174   4.712
11036TIP3   OH232992   1.343   6.980   4.278
11036TIP3    H132993   1.251   6.951   4.298
11036TIP3    H232994   1.357   6.937   4.191
11037TIP3   OH232995   1.836   7.065   4.007
11037TIP3    H132996   1.783   7.136   3.965
11037TIP3    H232997   1.889   7.032   3.933
11038TIP3   OH232998   2.010   7.343   5.094
11038TIP3    H132999   1.989   7.269   5.154
11038TIP3    H233000   2.105   7.356   5.114
11039TIP3   OH233001   1.994   7.092   4.244
11039TIP3    H133002   1.931   7.119   4.174
11039TIP3    H233003   2.027   7.010   4.203
11040TIP3   OH233004   1.277   7.122   4.974
11040TIP3    H133005   1.316   7.181   5.041
11040TIP3    H233006   1.268   7.039   5.024
11041TIP3   OH233007   1.330   6.599   3.682
11041TIP3    H133008   1.323   6.596   3.780
11041TIP3    H233009   1.250   6.651   3.660
11042TIP3   OH233010   0.874   6.643   4.554
11042TIP3    H133011   0.949   6.675   4.609
11042TIP3    H233012   0.917   6.609   4.474
11043TIP3   OH233013   0.843   6.623   4.072
11043TIP3    H133014   0.890   6.661   3.995
11043TIP3    H233015   0.783   6.697   4.093
11044TIP3   OH233016   2.000   7.339   4.667
11044TIP3    H133017   2.035   7.268   4.609
11044TIP3    H233018   1.973   7.286   4.745
11045TIP3   OH233019   1.673   6.814   4.341
11045TIP3    H133020   1.594   6.795   4.394
11045TIP3    H233021   1.745   6.790   4.403
11046TIP3   OH233022   1.107   6.856   4.348
11046TIP3    H133023   1.012   6.861   4.320
11046TIP3    H233024   1.132   6.765   4.325
11047TIP3   OH233025   1.374   6.853   4.038
11047TIP3    H133026   1.469   6.866   4.018
11047TIP3    H233027   1.329   6.874   3.953
11048TIP3   OH233028   2.162   6.878   4.540
11048TIP3    H133029   2.130   6.889   4.633
11048TIP3    H233030   2.097   6.814   4.506
11049TIP3   OH233031   1.217   6.889   3.815
11049TIP3    H133032   1.145   6.842   3.768
11049TIP3    H233033   1.268   6.923   3.739
11050TIP3   OH233034   2.334   8.566   4.762
11050TIP3    H133035   2.335   8.587   4.667
11050TIP3    H233036   2.416   8.611   4.793
11051TIP3   OH233037   1.290   7.677   5.183
11051TIP3    H133038   1.372   7.705   5.230
11051TIP3    H233039   1.228   7.675   5.258
11052TIP3   OH233040   1.755   7.133   4.440
11052TIP3    H133041   1.822   7.084   4.390
11052TIP3    H233042   1.758   7.088   4.527
11053TIP3   OH233043   1.275   6.616   4.315
11053TIP3    H133044   1.242   6.538   4.365
11053TIP3    H233045   1.345   6.575   4.261
11054TIP3   OH233046   1.732   7.030   4.722
11054TIP3    H133047   1.642   7.063   4.742
11054TIP3    H233048   1.789   7.087   4.777
11055TIP3   OH233049   1.467   7.417   3.820
11055TIP3    H133050   1.396   7.350   3.810
11055TIP3    H233051   1.449   7.450   3.912
11056TIP3   OH233052   2.368   7.653   4.451
11056TIP3    H133053   2.392   7.702   4.369
11056TIP3    H233054   2.283   7.610   4.426
11057TIP3   OH233055   1.923   6.733   3.674
11057TIP3    H133056   1.829   6.712   3.692
11057TIP3    H233057   1.934   6.824   3.709
11058TIP3   OH233058   1.868   7.735   4.818
11058TIP3    H133059   1.896   7.711   4.908
11058TIP3    H233060   1.828   7.823   4.831
11059TIP3   OH233061   1.995   6.974   3.788
11059TIP3    H133062   2.091   6.980   3.806
11059TIP3    H233063   1.978   7.056   3.737
11060TIP3   OH233064   1.160   7.438   4.497
11060TIP3    H133065   1.199   7.409   4.411
11060TIP3    H233066   1.204   7.378   4.559
11061TIP3   OH233067   1.612   7.565   3.642
11061TIP3    H133068   1.565   7.651   3.649
11061TIP3    H233069   1.558   7.510   3.703
11062TIP3   OH233070   1.041   7.364   5.114
11062TIP3    H133071   1.062   7.344   5.208
11062TIP3    H233072   0.979   7.292   5.093
11063TIP3   OH233073   1.768   7.474   5.131
11063TIP3    H133074   1.711   7.414   5.081
11063TIP3    H233075   1.857   7.440   5.105
11064TIP3   OH233076   2.027   8.000   4.712
11064TIP3    H133077   1.931   7.994   4.728
11064TIP3    H233078   2.055   8.048   4.793
11065TIP3   OH233079   2.438   7.065   3.623
11065TIP3    H133080   2.375   7.021   3.561
11065TIP3    H233081   2.434   7.155   3.584
11066TIP3   OH233082   2.656   7.925   4.704
11066TIP3    H133083   2.558   7.918   4.697
11066TIP3    H233084   2.681   7.894   4.614
11067TIP3   OH233085   2.141   7.886   3.533
11067TIP3    H133086   2.111   7.820   3.598
11067TIP3    H233087   2.148   7.834   3.451
11068TIP3   OH233088   2.133   7.516   4.366
11068TIP3    H133089   2.041   7.489   4.382
11068TIP3    H233090   2.168   7.435   4.324
11069TIP3   OH233091   1.262   7.741   4.121
11069TIP3    H133092   1.260   7.823   4.068
11069TIP3    H233093   1.168   7.728   4.138
11070TIP3   OH233094   0.825   7.046   3.828
11070TIP3    H133095   0.872   7.130   3.849
11070TIP3    H233096   0.749   7.050   3.889
11071TIP3   OH233097   1.399   7.507   4.065
11071TIP3    H133098   1.363   7.596   4.085
11071TIP3    H233099   1.365   7.456   4.141
11072TIP3   OH233100   1.531   8.085   4.593
11072TIP3    H133101   1.574   8.158   4.543
11072TIP3    H233102   1.607   8.049   4.642
11073TIP3   OH233103   1.180   7.982   3.974
11073TIP3    H133104   1.095   7.990   4.021
11073TIP3    H233105   1.212   8.075   3.978
11074TIP3   OH233106   1.919   7.721   4.551
11074TIP3    H133107   1.908   7.719   4.648
11074TIP3    H233108   1.998   7.666   4.540
11075TIP3   OH233109   1.894   7.615   3.433
11075TIP3    H133110   1.948   7.589   3.511
11075TIP3    H233111   1.806   7.586   3.462
11076TIP3   OH233112   2.167   8.253   4.603
11076TIP3    H133113   2.090   8.194   4.599
11076TIP3    H233114   2.149   8.316   4.530
11077TIP3   OH233115   2.234   8.090   3.252
11077TIP3    H133116   2.265   8.167   3.203
11077TIP3    H233117   2.151   8.128   3.289
11078TIP3   OH233118   1.253   6.867   5.119
11078TIP3    H133119   1.156   6.867   5.130
11078TIP3    H233120   1.281   6.806   5.189
11079TIP3   OH233121   2.055   7.544   3.646
11079TIP3    H133122   2.043   7.481   3.720
11079TIP3    H233123   2.152   7.543   3.637
11080TIP3   OH233124   0.962   7.939   4.756
11080TIP3    H133125   1.025   7.875   4.793
11080TIP3    H233126   0.989   8.020   4.801
11081TIP3   OH233127   1.259   7.593   3.434
11081TIP3    H133128   1.273   7.501   3.406
11081TIP3    H233129   1.240   7.582   3.529
11082TIP3   OH233130   1.203   7.599   3.706
11082TIP3    H133131   1.275   7.569   3.764
11082TIP3    H233132   1.209   7.696   3.714
11083TIP3   OH233133   0.939   7.291   3.909
11083TIP3    H133134   0.874   7.335   3.966
11083TIP3    H233135   0.954   7.360   3.842
11084TIP3   OH233136   2.088   6.929   4.799
11084TIP3    H133137   2.168   6.969   4.837
11084TIP3    H233138   2.076   6.849   4.855
11085TIP3   OH233139   1.975   6.679   3.964
11085TIP3    H133140   1.960   6.707   3.872
11085TIP3    H233141   2.013   6.760   4.005
11086TIP3   OH233142   1.470   7.796   3.653
11086TIP3    H133143   1.384   7.821   3.691
11086TIP3    H233144   1.486   7.870   3.594
11087TIP3   OH233145   1.656   6.861   4.069
11087TIP3    H133146   1.722   6.932   4.054
11087TIP3    H233147   1.662   6.851   4.167
11088TIP3   OH233148   1.930   7.178   4.876
11088TIP3    H133149   1.953   7.229   4.956
11088TIP3    H233150   1.984   7.098   4.887
11089TIP3   OH233151   1.805   6.585   4.169
11089TIP3    H133152   1.808   6.656   4.236
11089TIP3    H233153   1.866   6.622   4.100
11090TIP3   OH233154   1.215   7.872   3.722
11090TIP3    H133155   1.184   7.942   3.660
11090TIP3    H233156   1.198   7.914   3.809
11091TIP3   OH233157   1.315   6.585   3.956
11091TIP3    H133158   1.311   6.672   4.000
11091TIP3    H233159   1.410   6.565   3.969
11092TIP3   OH233160   2.560   7.085   4.850
11092TIP3    H133161   2.462   7.080   4.857
11092TIP3    H233162   2.576   7.027   4.774
11093TIP3   OH233163   2.219   7.273   4.244
11093TIP3    H133164   2.143   7.214   4.258
11093TIP3    H233165   2.291   7.226   4.293
11094TIP3   OH233166   0.932   7.501   3.713
11094TIP3    H133167   1.001   7.569   3.724
11094TIP3    H233168   0.976   7.444   3.647
11095TIP3   OH233169   0.877   6.776   3.846
11095TIP3    H133170   0.875   6.874   3.844
11095TIP3    H233171   0.791   6.753   3.809
11096TIP3   OH233172   2.187   8.230   4.194
11096TIP3    H133173   2.145   8.277   4.118
11096TIP3    H233174   2.282   8.248   4.174
11097TIP3   OH233175   1.258   6.497   4.723
11097TIP3    H133176   1.233   6.462   4.635
11097TIP3    H233177   1.253   6.417   4.779
11098TIP3   OH233178   0.803   7.718   4.103
11098TIP3    H133179   0.731   7.747   4.161
11098TIP3    H233180   0.776   7.757   4.017
11099TIP3   OH233181   0.959   8.254   5.179
11099TIP3    H133182   1.046   8.259   5.223
11099TIP3    H233183   0.948   8.158   5.171
11100TIP3   OH233184   1.439   8.222   5.217
11100TIP3    H133185   1.534   8.203   5.227
11100TIP3    H233186   1.416   8.161   5.144
11101TIP3   OH233187   1.422   7.796   3.345
11101TIP3    H133188   1.366   7.726   3.384
11101TIP3    H233189   1.497   7.743   3.314
11102TIP3   OH233190   2.081   8.127   4.950
11102TIP3    H133191   2.071   8.057   5.019
11102TIP3    H233192   2.159   8.177   4.982
11103TIP3   OH233193   1.860   7.837   3.259
11103TIP3    H133194   1.898   7.770   3.318
11103TIP3    H233195   1.918   7.833   3.180
11104TIP3   OH233196   1.094   7.661   5.379
11104TIP3    H133197   1.112   7.565   5.380
11104TIP3    H233198   1.009   7.664   5.329
11105TIP3   OH233199   1.068   7.314   3.568
11105TIP3    H133200   1.122   7.279   3.641
11105TIP3    H233201   1.135   7.318   3.497
11106TIP3   OH233202   1.697   7.748   5.148
11106TIP3    H133203   1.658   7.764   5.060
11106TIP3    H233204   1.730   7.656   5.140
11107TIP3   OH233205   1.579   7.513   3.374
11107TIP3    H133206   1.581   7.525   3.471
11107TIP3    H233207   1.579   7.415   3.368
11108TIP3   OH233208   2.190   7.758   4.752
11108TIP3    H133209   2.266   7.803   4.710
11108TIP3    H233210   2.119   7.824   4.738
11109TIP3   OH233211   1.210   7.398   5.356
11109TIP3    H133212   1.287   7.344   5.331
11109TIP3    H233213   1.237   7.429   5.445
11110TIP3   OH233214   1.275   7.218   3.788
11110TIP3    H133215   1.248   7.178   3.873
11110TIP3    H233216   1.311   7.142   3.739
11111TIP3   OH233217   1.541   7.279   5.015
11111TIP3    H133218   1.466   7.343   5.018
11111TIP3    H233219   1.594   7.314   4.940
11112TIP3   OH233220   1.376   7.012   3.628
11112TIP3    H133221   1.351   7.016   3.534
11112TIP3    H233222   1.474   7.017   3.622
11113TIP3   OH233223   2.062   7.684   5.150
11113TIP3    H133224   2.144   7.659   5.105
11113TIP3    H233225   2.058   7.619   5.222
11114TIP3   OH233226   2.198   7.343   3.292
11114TIP3    H133227   2.176   7.296   3.209
11114TIP3    H233228   2.164   7.433   3.269
11115TIP3   OH233229   1.665   7.070   5.145
11115TIP3    H133230   1.669   6.990   5.088
11115TIP3    H233231   1.623   7.135   5.085
11116TIP3   OH233232   1.670   6.861   4.951
11116TIP3    H133233   1.699   6.895   4.864
11116TIP3    H233234   1.577   6.835   4.931
11117TIP3   OH233235   1.695   7.392   4.826
11117TIP3    H133236   1.780   7.396   4.780
11117TIP3    H233237   1.642   7.458   4.778
11118TIP3   OH233238   2.279   7.359   5.204
11118TIP3    H133239   2.324   7.274   5.222
11118TIP3    H233240   2.352   7.413   5.172
11119TIP3   OH233241   2.320   7.612   4.939
11119TIP3    H133242   2.263   7.666   4.880
11119TIP3    H233243   2.408   7.631   4.900
11120TIP3   OH233244   1.542   7.183   5.374
11120TIP3    H133245   1.476   7.112   5.388
11120TIP3    H233246   1.580   7.156   5.287
11121TIP3   OH233247   1.803   6.622   5.020
11121TIP3    H133248   1.752   6.702   4.996
11121TIP3    H233249   1.737   6.552   5.006
11122TIP3   OH233250   1.927   7.126   5.234
11122TIP3    H133251   1.921   7.112   5.330
11122TIP3    H233252   1.837   7.099   5.207
11123TIP3   OH233253   2.165   7.076   5.088
11123TIP3    H133254   2.091   7.074   5.152
11123TIP3    H233255   2.240   7.044   5.143
11124TIP3   OH233256   2.385   7.012   5.239
11124TIP3    H133257   2.407   6.918   5.257
11124TIP3    H233258   2.390   7.052   5.328
11125TIP3   OH233259   1.385   6.962   5.428
11125TIP3    H133260   1.391   6.871   5.393
11125TIP3    H233261   1.423   6.948   5.518
11126TIP3   OH233262   1.896   6.628   5.278
11126TIP3    H133263   1.963   6.558   5.270
11126TIP3    H233264   1.857   6.624   5.188
11127TIP3   OH233265   1.962   6.844   5.436
11127TIP3    H133266   1.941   6.772   5.371
11127TIP3    H233267   1.884   6.902   5.427
11128TIP3   OH233268   1.184   8.074   3.534
11128TIP3    H133269   1.279   8.068   3.515
11128TIP3    H233270   1.155   8.124   3.455
11129TIP3   OH233271   0.663   7.456   3.749
11129TIP3    H133272   0.758   7.478   3.736
11129TIP3    H233273   0.659   7.366   3.709
11130TIP3   OH233274   0.586   8.064   4.158
11130TIP3    H133275   0.516   8.006   4.122
11130TIP3    H233276   0.625   8.007   4.228
11131TIP3   OH233277   0.708   7.917   4.353
11131TIP3    H133278   0.702   7.848   4.422
11131TIP3    H233279   0.774   7.977   4.395
11132TIP3   OH233280   2.440   8.322   4.151
11132TIP3    H133281   2.467   8.349   4.241
11132TIP3    H233282   2.508   8.365   4.096
11133TIP3   OH233283   2.472   8.339   4.433
11133TIP3    H133284   2.426   8.252   4.430
11133TIP3    H233285   2.545   8.315   4.493
11134TIP3   OH233286   2.514   8.018   5.003
11134TIP3    H133287   2.444   8.025   5.071
11134TIP3    H233288   2.558   8.105   5.011
11135TIP3   OH233289   2.335   7.529   3.626
11135TIP3    H133290   2.404   7.592   3.600
11135TIP3    H233291   2.375   7.489   3.707
11136TIP3   OH233292   2.460   7.397   3.830
11136TIP3    H133293   2.395   7.354   3.890
11136TIP3    H233294   2.526   7.433   3.893
11137TIP3   OH233295   2.514   7.789   4.260
11137TIP3    H133296   2.570   7.723   4.214
11137TIP3    H233297   2.506   7.859   4.193
11138TIP3   OH233298   2.346   8.091   4.454
11138TIP3    H133299   2.275   8.129   4.509
11138TIP3    H233300   2.295   8.041   4.386
11139TIP3   OH233301   2.399   7.305   3.476
11139TIP3    H133302   2.326   7.307   3.409
11139TIP3    H233303   2.371   7.379   3.533
11140TIP3   OH233304   2.271   6.976   3.427
11140TIP3    H133305   2.223   7.013   3.352
11140TIP3    H233306   2.247   6.881   3.420
11141TIP3   OH233307   2.274   7.253   3.976
11141TIP3    H133308   2.282   7.156   3.972
11141TIP3    H233309   2.260   7.268   4.072
11142TIP3   OH233310   0.899   7.339   4.721
11142TIP3    H133311   0.897   7.300   4.631
11142TIP3    H233312   0.996   7.336   4.739
11143TIP3   OH233313   2.564   7.678   4.832
11143TIP3    H133314   2.635   7.610   4.825
11143TIP3    H233315   2.596   7.747   4.772
11144TIP3   OH233316   2.749   7.484   4.845
11144TIP3    H133317   2.675   7.432   4.885
11144TIP3    H233318   2.823   7.421   4.861
11145TIP3   OH233319   2.214   6.710   3.413
11145TIP3    H133320   2.289   6.681   3.469
11145TIP3    H233321   2.141   6.653   3.441
11146TIP3   OH233322   2.270   6.968   3.869
11146TIP3    H133323   2.310   6.879   3.886
11146TIP3    H233324   2.330   7.001   3.800
11147TIP3   OH233325   2.431   7.142   4.364
11147TIP3    H133326   2.517   7.168   4.325
11147TIP3    H233327   2.444   7.178   4.454
11148TIP3   OH233328   2.499   7.286   4.595
11148TIP3    H133329   2.423   7.320   4.647
11148TIP3    H233330   2.533   7.368   4.553
11149TIP3   OH233331   1.118   7.015   5.401
11149TIP3    H133332   1.216   7.008   5.400
11149TIP3    H233333   1.097   6.928   5.440
11150TIP3   OH233334   2.380   6.718   3.907
11150TIP3    H133335   2.427   6.704   3.991
11150TIP3    H233336   2.318   6.642   3.907
11151TIP3   OH233337   1.078   6.707   4.731
11151TIP3    H133338   1.139   6.630   4.738
11151TIP3    H233339   1.142   6.779   4.722
11152TIP3   OH233340   0.882   6.978   4.800
11152TIP3    H133341   0.933   6.973   4.716
11152TIP3    H233342   0.919   7.058   4.839
11153TIP3   OH233343   2.828   7.030   4.941
11153TIP3    H133344   2.752   7.056   4.996
11153TIP3    H233345   2.802   6.941   4.912
11154TIP3   OH233346   2.459   6.655   3.539
11154TIP3    H133347   2.501   6.582   3.491
11154TIP3    H233348   2.528   6.724   3.537
11155TIP3   OH233349   0.865   6.480   4.301
11155TIP3    H133350   0.772   6.479   4.329
11155TIP3    H233351   0.862   6.540   4.223
11156TIP3   OH233352   2.025   8.187   3.807
11156TIP3    H133353   2.079   8.174   3.726
11156TIP3    H233354   2.077   8.251   3.857
11157TIP3   OH233355   1.086   6.567   5.119
11157TIP3    H133356   1.034   6.557   5.200
11157TIP3    H233357   1.018   6.601   5.057
11158TIP3   OH233358   1.133   7.992   5.193
11158TIP3    H133359   1.041   7.963   5.176
11158TIP3    H233360   1.142   7.972   5.287
11159TIP3   OH233361   1.302   8.022   4.739
11159TIP3    H133362   1.257   8.100   4.701
11159TIP3    H233363   1.389   8.035   4.696
11160TIP3   OH233364   1.748   8.268   4.878
11160TIP3    H133365   1.790   8.266   4.967
11160TIP3    H233366   1.815   8.318   4.827
11161TIP3   OH233367   1.928   8.420   4.736
11161TIP3    H133368   1.999   8.366   4.699
11161TIP3    H233369   1.980   8.476   4.799
11162TIP3   OH233370   2.723   6.779   4.839
11162TIP3    H133371   2.632   6.771   4.806
11162TIP3    H233372   2.755   6.687   4.826
11163TIP3   OH233373   0.978   8.272   4.764
11163TIP3    H133374   0.890   8.300   4.733
11163TIP3    H233375   0.985   8.326   4.845
11164TIP3   OH233376   1.217   8.258   4.623
11164TIP3    H133377   1.131   8.270   4.668
11164TIP3    H233378   1.197   8.292   4.533
11165TIP3   OH233379   1.643   8.287   4.419
11165TIP3    H133380   1.572   8.307   4.355
11165TIP3    H233381   1.654   8.374   4.463
11166TIP3   OH233382   1.911   8.226   4.471
11166TIP3    H133383   1.817   8.242   4.451
11166TIP3    H233384   1.953   8.304   4.430
11167TIP3   OH233385   2.120   8.420   4.387
11167TIP3    H133386   2.106   8.503   4.337
11167TIP3    H233387   2.145   8.357   4.315
11168TIP3   OH233388   0.900   8.062   4.486
11168TIP3    H133389   0.916   8.057   4.582
11168TIP3    H233390   0.979   8.015   4.451
11169TIP3   OH233391   1.100   7.932   4.354
11169TIP3    H133392   1.114   7.850   4.407
11169TIP3    H233393   1.190   7.971   4.354
11170TIP3   OH233394   1.359   8.039   4.370
11170TIP3    H133395   1.390   7.947   4.360
11170TIP3    H233396   1.401   8.062   4.454
11171TIP3   OH233397   1.920   6.695   4.445
11171TIP3    H133398   1.879   6.634   4.510
11171TIP3    H233399   1.997   6.643   4.414
11172TIP3   OH233400   2.452   6.569   4.356
11172TIP3    H133401   2.487   6.626   4.284
11172TIP3    H233402   2.357   6.592   4.355
11173TIP3   OH233403   2.546   6.678   4.122
11173TIP3    H133404   2.621   6.627   4.085
11173TIP3    H233405   2.579   6.770   4.109
11174TIP3   OH233406   1.176   6.405   4.473
11174TIP3    H133407   1.085   6.369   4.474
11174TIP3    H233408   1.227   6.321   4.470
11175TIP3   OH233409   0.959   6.274   4.119
11175TIP3    H133410   0.992   6.333   4.049
11175TIP3    H233411   0.934   6.339   4.189
11176TIP3   OH233412   1.604   6.480   4.353
11176TIP3    H133413   1.680   6.494   4.296
11176TIP3    H233414   1.645   6.435   4.429
11177TIP3   OH233415   2.172   6.588   4.337
11177TIP3    H133416   2.163   6.544   4.252
11177TIP3    H233417   2.163   6.512   4.399
11178TIP3   OH233418   2.196   6.505   3.900
11178TIP3    H133419   2.110   6.549   3.917
11178TIP3    H233420   2.182   6.420   3.948
11179TIP3   OH233421   0.681   7.843   3.899
11179TIP3    H133422   0.594   7.813   3.869
11179TIP3    H233423   0.672   7.939   3.885
11180TIP3   OH233424   1.081   6.435   3.882
11180TIP3    H133425   1.130   6.371   3.827
11180TIP3    H233426   1.153   6.488   3.920
11181TIP3   OH233427   1.594   6.610   3.982
11181TIP3    H133428   1.648   6.562   4.047
11181TIP3    H233429   1.614   6.702   4.009
11182TIP3   OH233430   1.451   8.032   3.481
11182TIP3    H133431   1.540   8.055   3.446
11182TIP3    H233432   1.429   7.957   3.422
11183TIP3   OH233433   2.174   8.153   3.575
11183TIP3    H133434   2.165   8.055   3.564
11183TIP3    H233435   2.125   8.184   3.496
11184TIP3   OH233436   1.383   6.686   5.365
11184TIP3    H133437   1.350   6.613   5.421
11184TIP3    H233438   1.478   6.686   5.391
11185TIP3   OH233439   1.633   6.683   5.482
11185TIP3    H133440   1.717   6.659   5.441
11185TIP3    H233441   1.622   6.612   5.549
11186TIP3   OH233442   0.756   7.870   3.539
11186TIP3    H133443   0.760   7.893   3.633
11186TIP3    H233444   0.843   7.827   3.524
11187TIP3   OH233445   2.460   6.743   5.270
11187TIP3    H133446   2.479   6.715   5.362
11187TIP3    H233447   2.550   6.741   5.231
11188TIP3   OH233448   2.397   8.297   4.761
11188TIP3    H133449   2.317   8.265   4.715
11188TIP3    H233450   2.375   8.392   4.769
11189TIP3   OH233451   3.666   7.668   3.526
11189TIP3    H133452   3.638   7.760   3.510
11189TIP3    H233453   3.586   7.619   3.500
11190TIP3   OH233454   3.660   7.666   3.912
11190TIP3    H133455   3.696   7.645   4.001
11190TIP3    H233456   3.619   7.582   3.887
11191TIP3   OH233457   2.961   7.562   4.274
11191TIP3    H133458   2.988   7.492   4.338
11191TIP3    H233459   3.036   7.622   4.281
11192TIP3   OH233460   3.904   7.973   3.593
11192TIP3    H133461   3.893   7.903   3.658
11192TIP3    H233462   3.936   8.047   3.648
11193TIP3   OH233463   2.931   7.973   3.995
11193TIP3    H133464   2.922   7.875   3.998
11193TIP3    H233465   3.027   7.982   4.004
11194TIP3   OH233466   2.642   7.178   3.782
11194TIP3    H133467   2.592   7.260   3.800
11194TIP3    H233468   2.570   7.122   3.748
11195TIP3   OH233469   2.698   7.463   3.957
11195TIP3    H133470   2.746   7.386   3.995
11195TIP3    H233471   2.762   7.494   3.891
11196TIP3   OH233472   3.552   8.430   3.606
11196TIP3    H133473   3.601   8.358   3.562
11196TIP3    H233474   3.550   8.401   3.698
11197TIP3   OH233475   3.462   7.896   3.955
11197TIP3    H133476   3.502   7.816   3.916
11197TIP3    H233477   3.545   7.941   3.982
11198TIP3   OH233478   4.476   7.215   3.956
11198TIP3    H133479   4.504   7.297   4.002
11198TIP3    H233480   4.493   7.239   3.864
11199TIP3   OH233481   3.876   7.397   3.989
11199TIP3    H133482   3.916   7.311   4.012
11199TIP3    H233483   3.843   7.378   3.899
11200TIP3   OH233484   3.213   7.055   3.954
11200TIP3    H133485   3.191   7.128   3.893
11200TIP3    H233486   3.163   6.982   3.912
11201TIP3   OH233487   3.907   7.144   3.577
11201TIP3    H133488   3.977   7.129   3.644
11201TIP3    H233489   3.960   7.181   3.505
11202TIP3   OH233490   2.846   7.259   4.062
11202TIP3    H133491   2.928   7.238   4.111
11202TIP3    H233492   2.859   7.201   3.984
11203TIP3   OH233493   3.287   7.455   3.852
11203TIP3    H133494   3.380   7.429   3.869
11203TIP3    H233495   3.247   7.370   3.824
11204TIP3   OH233496   4.548   7.423   4.125
11204TIP3    H133497   4.463   7.470   4.107
11204TIP3    H233498   4.560   7.447   4.219
11205TIP3   OH233499   3.208   7.037   4.390
11205TIP3    H133500   3.146   7.076   4.325
11205TIP3    H233501   3.158   7.051   4.473
11206TIP3   OH233502   3.557   7.891   3.396
11206TIP3    H133503   3.512   7.865   3.315
11206TIP3    H233504   3.512   7.975   3.418
11207TIP3   OH233505   3.314   7.814   4.184
11207TIP3    H133506   3.251   7.879   4.224
11207TIP3    H233507   3.358   7.868   4.115
11208TIP3   OH233508   4.115   7.149   3.752
11208TIP3    H133509   4.096   7.107   3.837
11208TIP3    H233510   4.167   7.227   3.780
11209TIP3   OH233511   3.078   7.154   4.174
11209TIP3    H133512   3.140   7.226   4.199
11209TIP3    H233513   3.130   7.113   4.101
11210TIP3   OH233514   3.139   8.007   4.280
11210TIP3    H133515   3.115   8.097   4.248
11210TIP3    H233516   3.063   7.990   4.339
11211TIP3   OH233517   2.539   7.699   3.518
11211TIP3    H133518   2.492   7.729   3.439
11211TIP3    H233519   2.570   7.783   3.557
11212TIP3   OH233520   3.974   8.213   3.756
11212TIP3    H133521   3.885   8.204   3.797
11212TIP3    H233522   3.967   8.301   3.715
11213TIP3   OH233523   4.268   7.112   4.121
11213TIP3    H133524   4.181   7.144   4.094
11213TIP3    H233525   4.327   7.146   4.050
11214TIP3   OH233526   3.563   6.757   4.104
11214TIP3    H133527   3.549   6.662   4.124
11214TIP3    H233528   3.486   6.796   4.152
11215TIP3   OH233529   3.677   8.257   3.430
11215TIP3    H133530   3.729   8.176   3.412
11215TIP3    H233531   3.737   8.324   3.391
11216TIP3   OH233532   3.822   8.044   3.340
11216TIP3    H133533   3.779   7.964   3.308
11216TIP3    H233534   3.860   8.013   3.425
11217TIP3   OH233535   4.202   8.127   4.102
11217TIP3    H133536   4.191   8.049   4.044
11217TIP3    H233537   4.186   8.201   4.040
11218TIP3   OH233538   3.492   7.519   3.359
11218TIP3    H133539   3.411   7.570   3.336
11218TIP3    H233540   3.540   7.517   3.274
11219TIP3   OH233541   3.452   7.307   3.074
11219TIP3    H133542   3.519   7.356   3.125
11219TIP3    H233543   3.508   7.242   3.027
11220TIP3   OH233544   4.398   7.762   3.946
11220TIP3    H133545   4.315   7.814   3.953
11220TIP3    H233546   4.427   7.788   3.856
11221TIP3   OH233547   3.843   7.602   3.330
11221TIP3    H133548   3.788   7.626   3.408
11221TIP3    H233549   3.926   7.577   3.374
11222TIP3   OH233550   4.076   7.641   4.244
11222TIP3    H133551   4.076   7.722   4.299
11222TIP3    H233552   3.989   7.649   4.200
11223TIP3   OH233553   3.077   7.601   3.746
11223TIP3    H133554   3.035   7.541   3.680
11223TIP3    H233555   3.152   7.547   3.778
11224TIP3   OH233556   3.210   8.019   3.892
11224TIP3    H133557   3.186   7.962   3.817
11224TIP3    H233558   3.299   7.984   3.915
11225TIP3   OH233559   3.211   7.571   4.100
11225TIP3    H133560   3.247   7.551   4.012
11225TIP3    H233561   3.254   7.656   4.123
11226TIP3   OH233562   3.733   8.208   3.878
11226TIP3    H133563   3.723   8.288   3.933
11226TIP3    H233564   3.720   8.136   3.943
11227TIP3   OH233565   3.348   8.130   4.422
11227TIP3    H133566   3.290   8.190   4.474
11227TIP3    H233567   3.281   8.075   4.377
11228TIP3   OH233568   3.682   7.461   3.158
11228TIP3    H133569   3.741   7.520   3.210
11228TIP3    H233570   3.709   7.484   3.066
11229TIP3   OH233571   3.100   7.688   4.522
11229TIP3    H133572   3.107   7.772   4.572
11229TIP3    H233573   3.007   7.665   4.541
11230TIP3   OH233574   3.422   8.144   3.412
11230TIP3    H133575   3.506   8.185   3.442
11230TIP3    H233576   3.362   8.218   3.413
11231TIP3   OH233577   3.141   8.296   4.514
11231TIP3    H133578   3.104   8.293   4.423
11231TIP3    H233579   3.062   8.276   4.569
11232TIP3   OH233580   4.196   6.701   3.206
11232TIP3    H133581   4.115   6.720   3.258
11232TIP3    H233582   4.209   6.785   3.158
11233TIP3   OH233583   2.942   7.442   3.549
11233TIP3    H133584   2.871   7.483   3.496
11233TIP3    H233585   2.904   7.357   3.571
11234TIP3   OH233586   3.997   8.068   2.754
11234TIP3    H133587   4.005   8.165   2.741
11234TIP3    H233588   4.089   8.039   2.740
11235TIP3   OH233589   2.722   7.826   4.460
11235TIP3    H133590   2.655   7.801   4.393
11235TIP3    H233591   2.759   7.740   4.488
11236TIP3   OH233592   2.575   8.024   4.085
11236TIP3    H133593   2.671   8.012   4.085
11236TIP3    H233594   2.566   8.097   4.149
11237TIP3   OH233595   4.440   8.471   4.148
11237TIP3    H133596   4.439   8.375   4.165
11237TIP3    H233597   4.357   8.497   4.195
11238TIP3   OH233598   3.543   8.260   4.279
11238TIP3    H133599   3.543   8.351   4.316
11238TIP3    H233600   3.474   8.218   4.336
11239TIP3   OH233601   3.298   8.385   3.234
11239TIP3    H133602   3.259   8.385   3.145
11239TIP3    H233603   3.276   8.474   3.267
11240TIP3   OH233604   2.747   8.233   3.619
11240TIP3    H133605   2.793   8.227   3.706
11240TIP3    H233606   2.690   8.154   3.624
11241TIP3   OH233607   3.510   8.284   2.879
11241TIP3    H133608   3.570   8.216   2.839
11241TIP3    H233609   3.549   8.294   2.968
11242TIP3   OH233610   3.555   8.334   3.149
11242TIP3    H133611   3.471   8.343   3.199
11242TIP3    H233612   3.615   8.300   3.217
11243TIP3   OH233613   4.333   7.603   4.422
11243TIP3    H133614   4.246   7.615   4.382
11243TIP3    H233615   4.344   7.506   4.415
11244TIP3   OH233616   2.926   8.011   4.449
11244TIP3    H133617   2.976   7.994   4.531
11244TIP3    H233618   2.852   7.946   4.457
11245TIP3   OH233619   3.325   6.835   4.233
11245TIP3    H133620   3.235   6.804   4.207
11245TIP3    H233621   3.300   6.915   4.283
11246TIP3   OH233622   3.859   6.946   4.427
11246TIP3    H133623   3.927   6.923   4.493
11246TIP3    H233624   3.775   6.929   4.475
11247TIP3   OH233625   4.099   7.380   4.348
11247TIP3    H133626   4.050   7.373   4.432
11247TIP3    H233627   4.073   7.467   4.314
11248TIP3   OH233628   3.758   7.506   2.901
11248TIP3    H133629   3.725   7.481   2.813
11248TIP3    H233630   3.840   7.554   2.878
11249TIP3   OH233631   3.472   6.882   3.205
11249TIP3    H133632   3.439   6.879   3.297
11249TIP3    H233633   3.432   6.799   3.171
11250TIP3   OH233634   3.256   7.349   4.252
11250TIP3    H133635   3.208   7.370   4.334
11250TIP3    H233636   3.240   7.431   4.199
11251TIP3   OH233637   3.139   7.236   3.765
11251TIP3    H133638   3.048   7.208   3.785
11251TIP3    H233639   3.152   7.193   3.677
11252TIP3   OH233640   3.631   7.321   3.494
11252TIP3    H133641   3.578   7.392   3.452
11252TIP3    H233642   3.686   7.290   3.419
11253TIP3   OH233643   3.804   7.596   4.575
11253TIP3    H133644   3.783   7.526   4.641
11253TIP3    H233645   3.895   7.620   4.604
11254TIP3   OH233646   3.789   7.348   3.732
11254TIP3    H133647   3.727   7.377   3.662
11254TIP3    H233648   3.822   7.266   3.689
11255TIP3   OH233649   3.074   7.376   4.461
11255TIP3    H133650   3.105   7.436   4.530
11255TIP3    H233651   3.062   7.293   4.512
11256TIP3   OH233652   3.127   6.856   3.169
11256TIP3    H133653   3.119   6.853   3.267
11256TIP3    H233654   3.047   6.908   3.146
11257TIP3   OH233655   2.670   6.902   4.035
11257TIP3    H133656   2.743   6.932   4.094
11257TIP3    H233657   2.717   6.864   3.960
11258TIP3   OH233658   2.640   6.880   3.559
11258TIP3    H133659   2.687   6.919   3.482
11258TIP3    H233660   2.579   6.954   3.581
11259TIP3   OH233661   3.795   7.596   4.152
11259TIP3    H133662   3.831   7.524   4.096
11259TIP3    H233663   3.769   7.544   4.231
11260TIP3   OH233664   3.468   7.058   3.826
11260TIP3    H133665   3.386   7.056   3.880
11260TIP3    H233666   3.537   7.054   3.895
11261TIP3   OH233667   2.903   7.114   3.833
11261TIP3    H133668   2.808   7.121   3.807
11261TIP3    H233669   2.925   7.021   3.813
11262TIP3   OH233670   3.171   7.107   3.524
11262TIP3    H133671   3.265   7.124   3.504
11262TIP3    H233672   3.124   7.131   3.441
11263TIP3   OH233673   3.960   7.132   4.024
11263TIP3    H133674   3.932   7.145   4.118
11263TIP3    H233675   3.890   7.072   3.993
11264TIP3   OH233676   3.013   7.145   3.302
11264TIP3    H133677   2.941   7.099   3.256
11264TIP3    H233678   3.065   7.179   3.226
11265TIP3   OH233679   4.131   8.822   4.249
11265TIP3    H133680   4.131   8.846   4.154
11265TIP3    H233681   4.211   8.868   4.281
11266TIP3   OH233682   3.088   7.935   4.668
11266TIP3    H133683   3.169   7.961   4.718
11266TIP3    H233684   3.024   7.929   4.742
11267TIP3   OH233685   3.550   7.387   3.926
11267TIP3    H133686   3.624   7.344   3.880
11267TIP3    H233687   3.554   7.347   4.015
11268TIP3   OH233688   3.071   6.872   3.805
11268TIP3    H133689   3.036   6.795   3.854
11268TIP3    H233690   3.125   6.829   3.737
11269TIP3   OH233691   3.528   7.288   4.209
11269TIP3    H133692   3.438   7.321   4.228
11269TIP3    H233693   3.585   7.345   4.264
11270TIP3   OH233694   3.261   7.676   3.305
11270TIP3    H133695   3.192   7.606   3.297
11270TIP3    H233696   3.245   7.707   3.398
11271TIP3   OH233697   4.166   7.909   3.937
11271TIP3    H133698   4.189   7.959   3.856
11271TIP3    H233699   4.080   7.868   3.912
11272TIP3   OH233700   3.720   6.988   3.163
11272TIP3    H133701   3.625   6.968   3.180
11272TIP3    H233702   3.730   7.080   3.196
11273TIP3   OH233703   3.663   7.991   4.307
11273TIP3    H133704   3.694   7.967   4.395
11273TIP3    H233705   3.625   8.079   4.320
11274TIP3   OH233706   3.791   7.231   3.274
11274TIP3    H133707   3.887   7.237   3.293
11274TIP3    H233708   3.774   7.313   3.224
11275TIP3   OH233709   2.957   7.695   3.984
11275TIP3    H133710   2.998   7.664   3.902
11275TIP3    H233711   2.996   7.637   4.051
11276TIP3   OH233712   3.408   7.823   3.129
11276TIP3    H133713   3.354   7.905   3.127
11276TIP3    H233714   3.356   7.766   3.189
11277TIP3   OH233715   2.838   7.617   4.599
11277TIP3    H133716   2.861   7.604   4.693
11277TIP3    H233717   2.772   7.547   4.587
11278TIP3   OH233718   3.564   7.731   4.615
11278TIP3    H133719   3.506   7.666   4.573
11278TIP3    H233720   3.653   7.698   4.590
11279TIP3   OH233721   3.822   8.254   4.198
11279TIP3    H133722   3.726   8.251   4.215
11279TIP3    H233723   3.852   8.302   4.278
11280TIP3   OH233724   4.234   7.322   3.110
11280TIP3    H133725   4.171   7.278   3.048
11280TIP3    H233726   4.230   7.412   3.071
11281TIP3   OH233727   4.452   8.180   4.192
11281TIP3    H133728   4.354   8.176   4.185
11281TIP3    H233729   4.477   8.151   4.102
11282TIP3   OH233730   3.929   8.143   3.019
11282TIP3    H133731   3.910   8.074   3.084
11282TIP3    H233732   3.945   8.093   2.937
11283TIP3   OH233733   3.930   7.773   3.852
11283TIP3    H133734   3.837   7.747   3.869
11283TIP3    H233735   3.964   7.691   3.810
11284TIP3   OH233736   3.054   7.995   3.600
11284TIP3    H133737   3.051   8.083   3.558
11284TIP3    H233738   2.963   7.983   3.629
11285TIP3   OH233739   2.620   7.303   3.314
11285TIP3    H133740   2.667   7.386   3.337
11285TIP3    H233741   2.544   7.307   3.375
11286TIP3   OH233742   3.197   7.764   3.552
11286TIP3    H133743   3.158   7.851   3.571
11286TIP3    H233744   3.164   7.711   3.627
11287TIP3   OH233745   3.327   8.342   4.078
11287TIP3    H133746   3.372   8.415   4.031
11287TIP3    H233747   3.402   8.306   4.130
11288TIP3   OH233748   2.973   8.240   3.457
11288TIP3    H133749   2.890   8.245   3.509
11288TIP3    H233750   3.006   8.332   3.466
11289TIP3   OH233751   3.714   7.976   4.038
11289TIP3    H133752   3.702   7.977   4.136
11289TIP3    H233753   3.797   7.926   4.030
11290TIP3   OH233754   3.690   7.872   2.920
11290TIP3    H133755   3.745   7.846   2.998
11290TIP3    H233756   3.603   7.841   2.949
11291TIP3   OH233757   3.964   8.508   4.089
11291TIP3    H133758   3.886   8.450   4.085
11291TIP3    H233759   3.945   8.572   4.016
11292TIP3   OH233760   4.030   8.345   2.740
11292TIP3    H133761   4.070   8.420   2.693
11292TIP3    H233762   3.949   8.388   2.772
11293TIP3   OH233763   3.051   7.118   4.606
11293TIP3    H133764   2.956   7.125   4.626
11293TIP3    H233765   3.083   7.066   4.681
11294TIP3   OH233766   3.851   7.800   3.133
11294TIP3    H133767   3.840   7.736   3.207
11294TIP3    H233768   3.948   7.800   3.124
11295TIP3   OH233769   2.766   8.203   4.238
11295TIP3    H133770   2.818   8.129   4.273
11295TIP3    H233771   2.790   8.273   4.300
11296TIP3   OH233772   2.985   7.865   3.197
11296TIP3    H133773   3.059   7.814   3.233
11296TIP3    H233774   3.007   7.956   3.223
11297TIP3   OH233775   2.735   7.547   3.396
11297TIP3    H133776   2.669   7.591   3.453
11297TIP3    H233777   2.751   7.618   3.331
11298TIP3   OH233778   3.893   7.179   4.283
11298TIP3    H133779   3.963   7.224   4.333
11298TIP3    H233780   3.874   7.101   4.340
11299TIP3   OH233781   3.770   6.935   3.452
11299TIP3    H133782   3.755   6.962   3.360
11299TIP3    H233783   3.808   7.016   3.492
11300TIP3   OH233784   3.252   8.054   3.113
11300TIP3    H133785   3.186   8.081   3.179
11300TIP3    H233786   3.313   8.130   3.116
11301TIP3   OH233787   3.454   7.116   3.555
11301TIP3    H133788   3.519   7.189   3.540
11301TIP3    H233789   3.458   7.107   3.653
11302TIP3   OH233790   3.727   7.435   4.362
11302TIP3    H133791   3.745   7.492   4.440
11302TIP3    H233792   3.779   7.356   4.384
11303TIP3   OH233793   3.599   6.841   3.657
11303TIP3    H133794   3.595   6.916   3.720
11303TIP3    H233795   3.660   6.877   3.589
11304TIP3   OH233796   3.002   8.139   3.207
11304TIP3    H133797   2.967   8.222   3.171
11304TIP3    H233798   2.996   8.161   3.303
11305TIP3   OH233799   3.112   6.841   3.445
11305TIP3    H133800   3.108   6.930   3.485
11305TIP3    H233801   3.208   6.823   3.455
11306TIP3   OH233802   4.365   7.332   4.341
11306TIP3    H133803   4.267   7.333   4.353
11306TIP3    H233804   4.370   7.290   4.254
11307TIP3   OH233805   4.016   7.528   3.730
11307TIP3    H133806   3.940   7.470   3.746
11307TIP3    H233807   4.087   7.482   3.780
11308TIP3   OH233808   2.730   7.762   3.196
11308TIP3    H133809   2.812   7.813   3.215
11308TIP3    H233810   2.768   7.699   3.131
11309TIP3   OH233811   2.674   7.033   3.332
11309TIP3    H133812   2.672   7.131   3.330
11309TIP3    H233813   2.587   7.010   3.297
11310TIP3   OH233814   3.984   8.485   3.679
11310TIP3    H133815   3.943   8.531   3.602
11310TIP3    H233816   4.078   8.505   3.661
11311TIP3   OH233817   3.061   6.753   4.207
11311TIP3    H133818   3.029   6.718   4.122
11311TIP3    H233819   3.051   6.676   4.266
11312TIP3   OH233820   2.598   7.973   3.586
11312TIP3    H133821   2.532   8.001   3.652
11312TIP3    H233822   2.563   8.014   3.504
11313TIP3   OH233823   2.757   8.516   4.660
11313TIP3    H133824   2.843   8.515   4.707
11313TIP3    H233825   2.737   8.421   4.659
11314TIP3   OH233826   3.236   8.482   4.700
11314TIP3    H133827   3.329   8.458   4.716
11314TIP3    H233828   3.214   8.419   4.629
11315TIP3   OH233829   3.881   8.382   4.433
11315TIP3    H133830   3.867   8.313   4.502
11315TIP3    H233831   3.956   8.432   4.469
11316TIP3   OH233832   3.655   8.095   2.745
11316TIP3    H133833   3.696   8.029   2.804
11316TIP3    H233834   3.712   8.092   2.666
11317TIP3   OH233835   2.887   7.922   4.859
11317TIP3    H133836   2.905   7.826   4.871
11317TIP3    H233837   2.799   7.921   4.816
11318TIP3   OH233838   2.864   7.574   3.056
11318TIP3    H133839   2.918   7.535   3.127
11318TIP3    H233840   2.931   7.576   2.983
11319TIP3   OH233841   3.493   8.005   4.634
11319TIP3    H133842   3.454   8.019   4.546
11319TIP3    H233843   3.528   7.914   4.629
11320TIP3   OH233844   3.364   7.770   2.859
11320TIP3    H133845   3.374   7.781   2.956
11320TIP3    H233846   3.368   7.672   2.852
11321TIP3   OH233847   3.985   8.013   4.236
11321TIP3    H133848   4.061   8.060   4.196
11321TIP3    H233849   3.915   8.080   4.227
11322TIP3   OH233850   3.009   7.656   4.839
11322TIP3    H133851   3.076   7.588   4.827
11322TIP3    H233852   3.032   7.687   4.929
11323TIP3   OH233853   3.071   7.476   3.277
11323TIP3    H133854   3.044   7.435   3.361
11323TIP3    H233855   3.106   7.398   3.228
11324TIP3   OH233856   3.339   7.536   4.501
11324TIP3    H133857   3.263   7.599   4.505
11324TIP3    H233858   3.390   7.571   4.424
11325TIP3   OH233859   3.172   7.269   3.116
11325TIP3    H133860   3.146   7.272   3.021
11325TIP3    H233861   3.270   7.274   3.108
11326TIP3   OH233862   3.854   7.936   4.632
11326TIP3    H133863   3.944   7.920   4.603
11326TIP3    H233864   3.849   7.879   4.711
11327TIP3   OH233865   3.994   7.599   2.779
11327TIP3    H133866   3.972   7.553   2.696
11327TIP3    H233867   3.961   7.689   2.757
11328TIP3   OH233868   3.466   7.328   4.629
11328TIP3    H133869   3.464   7.247   4.575
11328TIP3    H233870   3.420   7.393   4.572
11329TIP3   OH233871   3.468   7.112   4.434
11329TIP3    H133872   3.493   7.154   4.350
11329TIP3    H233873   3.373   7.090   4.419
11330TIP3   OH233874   3.491   7.644   4.306
11330TIP3    H133875   3.578   7.658   4.265
11330TIP3    H233876   3.437   7.714   4.264
11331TIP3   OH233877   4.074   7.614   4.687
11331TIP3    H133878   4.124   7.537   4.717
11331TIP3    H233879   4.143   7.678   4.668
11332TIP3   OH233880   4.118   7.864   4.420
11332TIP3    H133881   4.058   7.920   4.365
11332TIP3    H233882   4.205   7.889   4.381
11333TIP3   OH233883   3.340   7.439   4.858
11333TIP3    H133884   3.273   7.371   4.877
11333TIP3    H233885   3.376   7.408   4.773
11334TIP3   OH233886   3.598   6.875   4.502
11334TIP3    H133887   3.549   6.958   4.482
11334TIP3    H233888   3.527   6.808   4.495
11335TIP3   OH233889   3.727   7.380   4.721
11335TIP3    H133890   3.717   7.370   4.817
11335TIP3    H233891   3.636   7.356   4.693
11336TIP3   OH233892   3.961   7.320   4.571
11336TIP3    H133893   3.887   7.331   4.635
11336TIP3    H233894   4.035   7.297   4.630
11337TIP3   OH233895   4.198   7.269   4.720
11337TIP3    H133896   4.206   7.174   4.744
11337TIP3    H233897   4.187   7.312   4.808
11338TIP3   OH233898   3.184   7.218   4.910
11338TIP3    H133899   3.185   7.125   4.881
11338TIP3    H233900   3.217   7.208   5.002
11339TIP3   OH233901   3.695   6.887   4.760
11339TIP3    H133902   3.761   6.815   4.755
11339TIP3    H233903   3.653   6.880   4.672
11340TIP3   OH233904   3.759   7.102   4.921
11340TIP3    H133905   3.736   7.031   4.857
11340TIP3    H233906   3.681   7.161   4.916
11341TIP3   OH233907   2.979   8.265   2.953
11341TIP3    H133908   3.068   8.302   2.973
11341TIP3    H233909   2.944   8.341   2.900
11342TIP3   OH233910   2.460   7.716   3.229
11342TIP3    H133911   2.556   7.734   3.221
11342TIP3    H233912   2.454   7.625   3.194
11343TIP3   OH233913   2.378   8.323   3.651
11343TIP3    H133914   2.308   8.262   3.617
11343TIP3    H233915   2.420   8.266   3.718
11344TIP3   OH233916   2.512   8.173   3.838
11344TIP3    H133917   2.500   8.102   3.903
11344TIP3    H233918   2.562   8.236   3.893
11345TIP3   OH233919   4.234   8.583   3.637
11345TIP3    H133920   4.262   8.608   3.727
11345TIP3    H233921   4.306   8.617   3.583
11346TIP3   OH233922   4.266   8.595   3.918
11346TIP3    H133923   4.223   8.507   3.917
11346TIP3    H233924   4.342   8.575   3.975
11347TIP3   OH233925   4.311   8.272   4.493
11347TIP3    H133926   4.239   8.280   4.560
11347TIP3    H233927   4.353   8.360   4.499
11348TIP3   OH233928   4.130   7.786   3.112
11348TIP3    H133929   4.199   7.849   3.086
11348TIP3    H233930   4.172   7.746   3.192
11349TIP3   OH233931   4.256   7.652   3.315
11349TIP3    H133932   4.192   7.611   3.377
11349TIP3    H233933   4.324   7.689   3.376
11350TIP3   OH233934   4.311   8.045   3.746
11350TIP3    H133935   4.366   7.981   3.698
11350TIP3    H233936   4.305   8.120   3.682
11351TIP3   OH233937   4.141   8.345   3.942
11351TIP3    H133938   4.071   8.387   3.996
11351TIP3    H233939   4.089   8.297   3.874
11352TIP3   OH233940   4.195   7.560   2.963
11352TIP3    H133941   4.122   7.565   2.896
11352TIP3    H233942   4.169   7.636   3.019
11353TIP3   OH233943   4.068   7.232   2.914
11353TIP3    H133944   4.019   7.271   2.840
11353TIP3    H233945   4.043   7.137   2.905
11354TIP3   OH233946   4.070   7.509   3.462
11354TIP3    H133947   4.079   7.413   3.459
11354TIP3    H233948   4.056   7.525   3.559
11355TIP3   OH233949   2.697   7.588   4.207
11355TIP3    H133950   2.695   7.553   4.116
11355TIP3    H233951   2.794   7.586   4.226
11356TIP3   OH233952   4.361   7.936   4.317
11356TIP3    H133953   4.433   7.869   4.309
11356TIP3    H233954   4.391   8.007   4.259
11357TIP3   OH233955   4.546   7.740   4.329
11357TIP3    H133956   4.471   7.692   4.371
11357TIP3    H233957   4.618   7.676   4.347
11358TIP3   OH233958   4.011   6.965   2.898
11358TIP3    H133959   4.084   6.938   2.956
11358TIP3    H233960   3.936   6.910   2.926
11359TIP3   OH233961   4.066   7.224   3.356
11359TIP3    H133962   4.107   7.136   3.372
11359TIP3    H233963   4.126   7.258   3.288
11360TIP3   OH233964   4.228   7.397   3.852
11360TIP3    H133965   4.314   7.424   3.812
11360TIP3    H233966   4.240   7.436   3.941
11361TIP3   OH233967   4.296   7.542   4.082
11361TIP3    H133968   4.221   7.575   4.135
11361TIP3    H233969   4.328   7.625   4.040
11362TIP3   OH233970   2.920   7.279   4.884
11362TIP3    H133971   3.018   7.267   4.890
11362TIP3    H233972   2.892   7.191   4.918
11363TIP3   OH233973   4.760   7.146   4.639
11363TIP3    H133974   4.810   7.072   4.598
11363TIP3    H233975   4.721   7.191   4.560
11364TIP3   OH233976   4.177   6.975   3.394
11364TIP3    H133977   4.224   6.960   3.478
11364TIP3    H233978   4.115   6.899   3.394
11365TIP3   OH233979   2.876   6.961   4.209
11365TIP3    H133980   2.937   6.887   4.224
11365TIP3    H233981   2.938   7.036   4.208
11366TIP3   OH233982   2.676   7.235   4.285
11366TIP3    H133983   2.728   7.234   4.202
11366TIP3    H233984   2.709   7.315   4.328
11367TIP3   OH233985   4.620   7.274   4.445
11367TIP3    H133986   4.537   7.316   4.475
11367TIP3    H233987   4.583   7.205   4.387
11368TIP3   OH233988   4.255   6.912   3.027
11368TIP3    H133989   4.297   6.839   2.977
11368TIP3    H233990   4.324   6.981   3.024
11369TIP3   OH233991   2.662   6.734   3.785
11369TIP3    H133992   2.570   6.734   3.818
11369TIP3    H233993   2.657   6.796   3.709
11370TIP3   OH233994   3.815   8.443   3.290
11370TIP3    H133995   3.875   8.432   3.213
11370TIP3    H233996   3.865   8.505   3.346
11371TIP3   OH233997   2.880   6.812   4.599
11371TIP3    H133998   2.837   6.815   4.687
11371TIP3    H233999   2.812   6.855   4.544
11372TIP3   OH234000   2.920   8.251   4.679
11372TIP3    H134001   2.829   8.220   4.665
11372TIP3    H234002   2.937   8.225   4.771
11373TIP3   OH234003   3.099   8.277   4.226
11373TIP3    H134004   3.053   8.355   4.188
11373TIP3    H234005   3.186   8.291   4.183
11374TIP3   OH234006   3.544   8.525   4.364
11374TIP3    H134007   3.585   8.521   4.453
11374TIP3    H234008   3.612   8.575   4.315
11375TIP3   OH234009   3.725   8.676   4.223
11375TIP3    H134010   3.798   8.623   4.187
11375TIP3    H234011   3.775   8.734   4.285
11376TIP3   OH234012   4.520   7.037   4.323
11376TIP3    H134013   4.428   7.031   4.292
11376TIP3    H234014   4.550   6.944   4.313
11377TIP3   OH234015   2.776   8.537   4.249
11377TIP3    H134016   2.686   8.572   4.229
11377TIP3    H234017   2.788   8.569   4.339
11378TIP3   OH234018   3.012   8.514   4.109
11378TIP3    H134019   2.926   8.527   4.154
11378TIP3    H234020   2.993   8.548   4.019
11379TIP3   OH234021   3.440   8.545   3.904
11379TIP3    H134022   3.367   8.567   3.843
11379TIP3    H234023   3.452   8.631   3.950
11380TIP3   OH234024   3.708   8.481   3.954
11380TIP3    H134025   3.614   8.501   3.937
11380TIP3    H234026   3.752   8.560   3.920
11381TIP3   OH234027   3.912   8.673   3.873
11381TIP3    H134028   3.901   8.758   3.825
11381TIP3    H234029   3.941   8.613   3.801
11382TIP3   OH234030   2.689   8.329   3.996
11382TIP3    H134031   2.715   8.303   4.087
11382TIP3    H234032   2.761   8.285   3.946
11383TIP3   OH234033   2.884   8.200   3.852
11383TIP3    H134034   2.897   8.117   3.902
11383TIP3    H234035   2.975   8.237   3.853
11384TIP3   OH234036   3.150   8.293   3.857
11384TIP3    H134037   3.181   8.200   3.852
11384TIP3    H234038   3.195   8.319   3.940
11385TIP3   OH234039   3.721   6.950   3.939
11385TIP3    H134040   3.679   6.882   3.996
11385TIP3    H234041   3.797   6.902   3.901
11386TIP3   OH234042   4.246   6.827   3.844
11386TIP3    H134043   4.282   6.883   3.772
11386TIP3    H234044   4.152   6.851   3.843
11387TIP3   OH234045   4.342   6.933   3.610
11387TIP3    H134046   4.417   6.882   3.572
11387TIP3    H234047   4.375   7.025   3.597
11388TIP3   OH234048   2.972   6.660   3.957
11388TIP3    H134049   2.881   6.626   3.962
11388TIP3    H234050   3.022   6.575   3.955
11389TIP3   OH234051   2.753   6.531   3.605
11389TIP3    H134052   2.786   6.590   3.536
11389TIP3    H234053   2.728   6.595   3.675
11390TIP3   OH234054   3.415   6.693   3.840
11390TIP3    H134055   3.475   6.744   3.783
11390TIP3    H234056   3.436   6.729   3.927
11391TIP3   OH234057   3.963   6.840   3.824
11391TIP3    H134058   3.961   6.800   3.736
11391TIP3    H234059   3.950   6.760   3.881
11392TIP3   OH234060   3.992   6.763   3.386
11392TIP3    H134061   3.907   6.806   3.402
11392TIP3    H234062   3.978   6.678   3.433
11393TIP3   OH234063   2.480   8.099   3.379
11393TIP3    H134064   2.392   8.068   3.350
11393TIP3    H234065   2.467   8.195   3.374
11394TIP3   OH234066   2.877   6.692   3.368
11394TIP3    H134067   2.926   6.628   3.314
11394TIP3    H234068   2.950   6.745   3.406
11395TIP3   OH234069   3.389   6.866   3.469
11395TIP3    H134070   3.447   6.819   3.531
11395TIP3    H234071   3.410   6.958   3.495
11396TIP3   OH234072   3.250   8.302   2.958
11396TIP3    H134073   3.341   8.336   2.946
11396TIP3    H234074   3.260   8.225   2.901
11397TIP3   OH234075   3.969   8.409   3.062
11397TIP3    H134076   3.959   8.311   3.051
11397TIP3    H234077   3.923   8.440   2.981
11398TIP3   OH234078   3.181   6.945   4.842
11398TIP3    H134079   3.138   6.880   4.901
11398TIP3    H234080   3.273   6.941   4.876
11399TIP3   OH234081   3.429   6.934   4.969
11399TIP3    H134082   3.515   6.906   4.936
11399TIP3    H234083   3.411   6.865   5.036
11400TIP3   OH234084   2.582   8.138   3.045
11400TIP3    H134085   2.529   8.181   3.114
11400TIP3    H234086   2.603   8.053   3.086
11401TIP3   OH234087   4.254   6.997   4.758
11401TIP3    H134088   4.271   6.969   4.850
11401TIP3    H234089   4.343   6.993   4.719
11402TIP3   OH234090   4.194   8.553   4.248
11402TIP3    H134091   4.114   8.521   4.202
11402TIP3    H234092   4.173   8.648   4.255
11403TIP3   OH234093   5.461   7.924   3.008
11403TIP3    H134094   5.426   8.012   3.024
11403TIP3    H234095   5.381   7.877   2.979
11404TIP3   OH234096   5.473   7.913   3.387
11404TIP3    H134097   5.495   7.902   3.482
11404TIP3    H234098   5.417   7.835   3.372
11405TIP3   OH234099   4.758   7.820   3.762
11405TIP3    H134100   4.791   7.752   3.824
11405TIP3    H234101   4.831   7.883   3.763
11406TIP3   OH234102   5.698   8.229   3.081
11406TIP3    H134103   5.693   8.160   3.149
11406TIP3    H234104   5.729   8.305   3.133
11407TIP3   OH234105   4.703   8.227   3.493
11407TIP3    H134106   4.715   8.130   3.493
11407TIP3    H234107   4.795   8.258   3.481
11408TIP3   OH234108   4.438   7.432   3.269
11408TIP3    H134109   4.393   7.516   3.288
11408TIP3    H234110   4.364   7.380   3.233
11409TIP3   OH234111   4.494   7.719   3.441
11409TIP3    H134112   4.544   7.643   3.479
11409TIP3    H234113   4.563   7.763   3.388
11410TIP3   OH234114   5.346   8.688   3.089
11410TIP3    H134115   5.392   8.610   3.054
11410TIP3    H234116   5.334   8.666   3.183
11411TIP3   OH234117   5.273   8.120   3.464
11411TIP3    H134118   5.316   8.063   3.399
11411TIP3    H234119   5.345   8.183   3.481
11412TIP3   OH234120   6.279   7.452   3.439
11412TIP3    H134121   6.289   7.534   3.493
11412TIP3    H234122   6.292   7.489   3.350
11413TIP3   OH234123   5.675   7.651   3.478
11413TIP3    H134124   5.712   7.563   3.498
11413TIP3    H234125   5.639   7.635   3.388
11414TIP3   OH234126   5.010   7.311   3.442
11414TIP3    H134127   4.988   7.384   3.380
11414TIP3    H234128   4.959   7.238   3.399
11415TIP3   OH234129   5.704   7.403   3.062
11415TIP3    H134130   5.775   7.387   3.128
11415TIP3    H234131   5.756   7.440   2.988
11416TIP3   OH234132   4.641   7.515   3.550
11416TIP3    H134133   4.724   7.496   3.598
11416TIP3    H234134   4.655   7.459   3.470
11417TIP3   OH234135   5.086   7.714   3.332
11417TIP3    H134136   5.177   7.685   3.354
11417TIP3    H234137   5.043   7.630   3.307
11418TIP3   OH234138   6.338   7.673   3.617
11418TIP3    H134139   6.260   7.728   3.595
11418TIP3    H234140   6.367   7.714   3.700
11419TIP3   OH234141   5.005   7.295   3.877
11419TIP3    H134142   4.945   7.333   3.810
11419TIP3    H234143   4.952   7.311   3.958
11420TIP3   OH234144   5.303   8.141   2.888
11420TIP3    H134145   5.356   8.124   2.810
11420TIP3    H234146   5.328   8.231   2.909
11421TIP3   OH234147   5.106   8.068   3.675
11421TIP3    H134148   5.048   8.140   3.706
11421TIP3    H234149   5.150   8.109   3.597
11422TIP3   OH234150   5.915   7.403   3.240
11422TIP3    H134151   5.876   7.370   3.323
11422TIP3    H234152   5.958   7.485   3.271
11423TIP3   OH234153   4.876   7.410   3.661
11423TIP3    H134154   4.936   7.484   3.685
11423TIP3    H234155   4.926   7.370   3.587
11424TIP3   OH234156   4.938   8.264   3.769
11424TIP3    H134157   4.916   8.349   3.724
11424TIP3    H234158   4.859   8.255   3.826
11425TIP3   OH234159   4.333   7.955   3.007
11425TIP3    H134160   4.289   7.987   2.927
11425TIP3    H234161   4.366   8.039   3.046
11426TIP3   OH234162   5.773   8.468   3.239
11426TIP3    H134163   5.685   8.460   3.284
11426TIP3    H234164   5.765   8.557   3.200
11427TIP3   OH234165   5.361   7.012   3.594
11427TIP3    H134166   5.345   6.917   3.612
11427TIP3    H234167   5.284   7.052   3.640
11428TIP3   OH234168   5.460   8.505   2.908
11428TIP3    H134169   5.516   8.427   2.890
11428TIP3    H234170   5.522   8.576   2.879
11429TIP3   OH234171   5.595   8.278   2.831
11429TIP3    H134172   5.624   8.207   2.771
11429TIP3    H234173   5.644   8.258   2.914
11430TIP3   OH234174   6.000   8.383   3.589
11430TIP3    H134175   5.985   8.305   3.531
11430TIP3    H234176   5.979   8.458   3.529
11431TIP3   OH234177   5.286   7.773   2.843
11431TIP3    H134178   5.195   7.780   2.812
11431TIP3    H234179   5.338   7.771   2.760
11432TIP3   OH234180   5.250   7.564   2.564
11432TIP3    H134181   5.322   7.613   2.608
11432TIP3    H234182   5.303   7.496   2.516
11433TIP3   OH234183   6.194   8.020   3.434
11433TIP3    H134184   6.110   8.071   3.441
11433TIP3    H234185   6.222   8.046   3.343
11434TIP3   OH234186   5.640   7.857   2.815
11434TIP3    H134187   5.586   7.880   2.894
11434TIP3    H234188   5.724   7.830   2.858
11435TIP3   OH234189   5.872   7.900   3.729
11435TIP3    H134190   5.870   7.982   3.782
11435TIP3    H234191   5.784   7.903   3.686
11436TIP3   OH234192   4.855   7.844   3.242
11436TIP3    H134193   4.830   7.795   3.162
11436TIP3    H234194   4.944   7.809   3.261
11437TIP3   OH234195   5.011   7.827   3.586
11437TIP3    H134196   5.042   7.816   3.494
11437TIP3    H234197   5.048   7.915   3.611
11438TIP3   OH234198   5.536   8.465   3.364
11438TIP3    H134199   5.518   8.546   3.415
11438TIP3    H234200   5.519   8.393   3.429
11439TIP3   OH234201   5.145   8.381   3.914
11439TIP3    H134202   5.086   8.446   3.958
11439TIP3    H234203   5.079   8.331   3.862
11440TIP3   OH234204   5.475   7.720   2.645
11440TIP3    H134205   5.537   7.775   2.697
11440TIP3    H234206   5.503   7.743   2.553
11441TIP3   OH234207   4.899   7.936   4.017
11441TIP3    H134208   4.905   8.025   4.057
11441TIP3    H234209   4.803   7.919   4.030
11442TIP3   OH234210   5.171   8.411   2.920
11442TIP3    H134211   5.264   8.432   2.938
11442TIP3    H234212   5.145   8.487   2.863
11443TIP3   OH234213   4.940   8.552   4.000
11443TIP3    H134214   4.907   8.554   3.908
11443TIP3    H234215   4.859   8.530   4.051
11444TIP3   OH234216   5.993   6.958   2.693
11444TIP3    H134217   5.911   6.978   2.743
11444TIP3    H234218   6.006   7.041   2.644
11445TIP3   OH234219   4.744   7.695   3.023
11445TIP3    H134220   4.671   7.739   2.975
11445TIP3    H234221   4.700   7.616   3.056
11446TIP3   OH234222   5.788   8.328   2.242
11446TIP3    H134223   5.797   8.425   2.227
11446TIP3    H234224   5.880   8.299   2.225
11447TIP3   OH234225   4.517   8.082   3.948
11447TIP3    H134226   4.451   8.060   3.880
11447TIP3    H234227   4.555   7.995   3.972
11448TIP3   OH234228   4.377   8.277   3.575
11448TIP3    H134229   4.472   8.262   3.566
11448TIP3    H234230   4.376   8.352   3.637
11449TIP3   OH234231   6.237   8.728   3.636
11449TIP3    H134232   6.235   8.632   3.653
11449TIP3    H234233   6.154   8.756   3.681
11450TIP3   OH234234   5.351   8.509   3.778
11450TIP3    H134235   5.344   8.603   3.804
11450TIP3    H234236   5.273   8.471   3.826
11451TIP3   OH234237   5.105   8.635   2.728
11451TIP3    H134238   5.060   8.617   2.643
11451TIP3    H234239   5.072   8.725   2.750
11452TIP3   OH234240   4.541   8.493   3.103
11452TIP3    H134241   4.589   8.487   3.188
11452TIP3    H234242   4.486   8.413   3.110
11453TIP3   OH234243   5.304   8.545   2.361
11453TIP3    H134244   5.363   8.474   2.326
11453TIP3    H234245   5.337   8.554   2.453
11454TIP3   OH234246   5.356   8.592   2.631
11454TIP3    H134247   5.268   8.602   2.672
11454TIP3    H234248   5.409   8.566   2.709
11455TIP3   OH234249   6.130   7.856   3.904
11455TIP3    H134250   6.043   7.874   3.867
11455TIP3    H234251   6.129   7.760   3.916
11456TIP3   OH234252   4.722   8.266   3.935
11456TIP3    H134253   4.772   8.251   4.018
11456TIP3    H234254   4.647   8.204   3.944
11457TIP3   OH234255   5.122   7.091   3.719
11457TIP3    H134256   5.032   7.060   3.693
11457TIP3    H234257   5.096   7.172   3.767
11458TIP3   OH234258   5.656   7.200   3.915
11458TIP3    H134259   5.720   7.179   3.985
11458TIP3    H234260   5.570   7.185   3.959
11459TIP3   OH234261   5.903   7.643   3.836
11459TIP3    H134262   5.849   7.633   3.918
11459TIP3    H234263   5.870   7.727   3.799
11460TIP3   OH234264   5.554   7.767   2.391
11460TIP3    H134265   5.519   7.741   2.304
11460TIP3    H234266   5.639   7.808   2.364
11461TIP3   OH234267   5.268   7.139   2.691
11461TIP3    H134268   5.235   7.136   2.783
11461TIP3    H234269   5.228   7.057   2.657
11462TIP3   OH234270   5.054   7.606   3.737
11462TIP3    H134271   5.003   7.627   3.818
11462TIP3    H234272   5.039   7.687   3.684
11463TIP3   OH234273   4.937   7.490   3.252
11463TIP3    H134274   4.844   7.466   3.272
11463TIP3    H234275   4.948   7.449   3.164
11464TIP3   OH234276   5.428   7.579   2.980
11464TIP3    H134277   5.376   7.652   2.939
11464TIP3    H234278   5.482   7.548   2.904
11465TIP3   OH234279   5.604   7.856   4.057
11465TIP3    H134280   5.583   7.784   4.121
11465TIP3    H234281   5.695   7.878   4.086
11466TIP3   OH234282   5.586   7.604   3.220
11466TIP3    H134283   5.524   7.636   3.152
11466TIP3    H234284   5.617   7.523   3.175
11467TIP3   OH234285   4.874   7.634   3.946
11467TIP3    H134286   4.893   7.701   4.013
11467TIP3    H234287   4.861   7.553   4.000
11468TIP3   OH234288   4.922   7.112   2.656
11468TIP3    H134289   4.914   7.110   2.754
11468TIP3    H234290   4.844   7.166   2.634
11469TIP3   OH234291   4.466   7.156   3.524
11469TIP3    H134292   4.539   7.189   3.582
11469TIP3    H234293   4.512   7.123   3.446
11470TIP3   OH234294   4.436   7.137   3.045
11470TIP3    H134295   4.483   7.176   2.969
11470TIP3    H234296   4.376   7.211   3.068
11471TIP3   OH234297   5.598   7.852   3.641
11471TIP3    H134298   5.630   7.779   3.583
11471TIP3    H234299   5.566   7.800   3.717
11472TIP3   OH234300   5.265   7.311   3.312
11472TIP3    H134301   5.181   7.311   3.364
11472TIP3    H234302   5.331   7.314   3.383
11473TIP3   OH234303   4.699   7.370   3.321
11473TIP3    H134304   4.605   7.379   3.295
11473TIP3    H234305   4.721   7.278   3.299
11474TIP3   OH234306   4.967   7.362   3.011
11474TIP3    H134307   5.060   7.380   2.989
11474TIP3    H234308   4.918   7.386   2.929
11475TIP3   OH234309   5.745   7.384   3.502
11475TIP3    H134310   5.727   7.396   3.598
11475TIP3    H234311   5.673   7.322   3.479
11476TIP3   OH234312   4.812   7.396   2.789
11476TIP3    H134313   4.736   7.355   2.743
11476TIP3    H234314   4.861   7.433   2.713
11477TIP3   OH234315   5.928   9.077   3.735
11477TIP3    H134316   5.925   9.103   3.641
11477TIP3    H234317   6.004   9.128   3.768
11478TIP3   OH234318   4.885   8.186   4.155
11478TIP3    H134319   4.963   8.218   4.203
11478TIP3    H234320   4.819   8.187   4.228
11479TIP3   OH234321   5.347   7.641   3.412
11479TIP3    H134322   5.423   7.601   3.367
11479TIP3    H234323   5.352   7.601   3.501
11480TIP3   OH234324   4.868   7.128   3.292
11480TIP3    H134325   4.832   7.051   3.340
11480TIP3    H234326   4.919   7.086   3.222
11481TIP3   OH234327   5.324   7.541   3.700
11481TIP3    H134328   5.234   7.576   3.714
11481TIP3    H234329   5.380   7.602   3.751
11482TIP3   OH234330   5.962   8.164   3.424
11482TIP3    H134331   5.984   8.215   3.344
11482TIP3    H234332   5.875   8.124   3.400
11483TIP3   OH234333   5.518   7.243   2.656
11483TIP3    H134334   5.422   7.224   2.668
11483TIP3    H234335   5.526   7.337   2.684
11484TIP3   OH234336   5.466   8.251   3.792
11484TIP3    H134337   5.483   8.229   3.884
11484TIP3    H234338   5.423   8.338   3.798
11485TIP3   OH234339   5.590   7.489   2.761
11485TIP3    H134340   5.686   7.493   2.778
11485TIP3    H234341   5.575   7.569   2.707
11486TIP3   OH234342   4.747   7.945   3.474
11486TIP3    H134343   4.786   7.918   3.388
11486TIP3    H234344   4.796   7.888   3.535
11487TIP3   OH234345   4.635   7.869   4.084
11487TIP3    H134346   4.652   7.858   4.180
11487TIP3    H234347   4.563   7.805   4.070
11488TIP3   OH234348   5.359   7.985   4.110
11488TIP3    H134349   5.300   7.928   4.057
11488TIP3    H234350   5.447   7.956   4.078
11489TIP3   OH234351   5.622   8.509   3.687
11489TIP3    H134352   5.526   8.504   3.704
11489TIP3    H234353   5.651   8.559   3.766
11490TIP3   OH234354   6.024   7.565   2.597
11490TIP3    H134355   5.959   7.537   2.528
11490TIP3    H234356   6.032   7.660   2.575
11491TIP3   OH234357   6.249   8.435   3.679
11491TIP3    H134358   6.151   8.432   3.671
11491TIP3    H234359   6.274   8.407   3.588
11492TIP3   OH234360   5.730   8.398   2.506
11492TIP3    H134361   5.706   8.325   2.564
11492TIP3    H234362   5.742   8.356   2.419
11493TIP3   OH234363   5.729   8.029   3.336
11493TIP3    H134364   5.636   8.001   3.355
11493TIP3    H234365   5.763   7.947   3.295
11494TIP3   OH234366   4.874   8.241   3.037
11494TIP3    H134367   4.834   8.321   3.069
11494TIP3    H234368   4.820   8.173   3.071
11495TIP3   OH234369   4.417   7.560   2.800
11495TIP3    H134370   4.463   7.643   2.823
11495TIP3    H234371   4.340   7.564   2.862
11496TIP3   OH234372   5.133   8.615   3.613
11496TIP3    H134373   5.142   8.640   3.520
11496TIP3    H234374   5.217   8.571   3.631
11497TIP3   OH234375   4.775   8.505   2.943
11497TIP3    H134376   4.690   8.506   2.990
11497TIP3    H234377   4.801   8.600   2.948
11498TIP3   OH234378   5.519   8.234   3.525
11498TIP3    H134379   5.502   8.237   3.622
11498TIP3    H234380   5.599   8.181   3.521
11499TIP3   OH234381   5.492   8.124   2.402
11499TIP3    H134382   5.535   8.100   2.487
11499TIP3    H234383   5.404   8.085   2.412
11500TIP3   OH234384   5.762   8.763   3.573
11500TIP3    H134385   5.682   8.707   3.570
11500TIP3    H234386   5.743   8.829   3.502
11501TIP3   OH234387   5.825   8.602   2.228
11501TIP3    H134388   5.864   8.674   2.176
11501TIP3    H234389   5.745   8.648   2.260
11502TIP3   OH234390   4.844   7.376   4.093
11502TIP3    H134391   4.747   7.383   4.106
11502TIP3    H234392   4.869   7.316   4.164
11503TIP3   OH234393   5.646   8.067   2.637
11503TIP3    H134394   5.640   7.991   2.699
11503TIP3    H234395   5.741   8.061   2.613
11504TIP3   OH234396   4.558   8.461   3.725
11504TIP3    H134397   4.617   8.389   3.750
11504TIP3    H234398   4.591   8.532   3.782
11505TIP3   OH234399   4.881   8.087   2.413
11505TIP3    H134400   4.868   8.000   2.371
11505TIP3    H234401   4.828   8.078   2.493
11506TIP3   OH234402   4.528   7.804   2.884
11506TIP3    H134403   4.464   7.848   2.943
11506TIP3    H234404   4.544   7.876   2.819
11507TIP3   OH234405   5.692   7.433   3.768
11507TIP3    H134406   5.758   7.479   3.821
11507TIP3    H234407   5.669   7.357   3.825
11508TIP3   OH234408   5.567   7.191   2.939
11508TIP3    H134409   5.549   7.216   2.847
11508TIP3    H234410   5.603   7.274   2.977
11509TIP3   OH234411   5.252   7.373   3.042
11509TIP3    H134412   5.315   7.446   3.027
11509TIP3    H234413   5.254   7.364   3.139
11510TIP3   OH234414   5.521   7.691   3.848
11510TIP3    H134415   5.539   7.752   3.923
11510TIP3    H234416   5.575   7.614   3.872
11511TIP3   OH234417   5.394   7.099   3.144
11511TIP3    H134418   5.386   7.175   3.204
11511TIP3    H234419   5.457   7.135   3.077
11512TIP3   OH234420   4.799   8.372   2.695
11512TIP3    H134421   4.781   8.444   2.632
11512TIP3    H234422   4.788   8.416   2.781
11513TIP3   OH234423   4.908   7.097   2.932
11513TIP3    H134424   4.904   7.187   2.971
11513TIP3    H234425   5.004   7.079   2.942
11514TIP3   OH234426   6.158   7.560   3.822
11514TIP3    H134427   6.062   7.576   3.832
11514TIP3    H234428   6.173   7.587   3.731
11515TIP3   OH234429   5.813   7.783   3.216
11515TIP3    H134430   5.736   7.727   3.234
11515TIP3    H234431   5.884   7.737   3.266
11516TIP3   OH234432   4.522   8.017   2.693
11516TIP3    H134433   4.564   8.104   2.691
11516TIP3    H234434   4.576   7.967   2.628
11517TIP3   OH234435   4.470   7.290   2.818
11517TIP3    H134436   4.469   7.388   2.817
11517TIP3    H234437   4.381   7.270   2.787
11518TIP3   OH234438   5.781   8.739   3.165
11518TIP3    H134439   5.738   8.786   3.090
11518TIP3    H234440   5.875   8.759   3.146
11519TIP3   OH234441   4.858   7.009   3.694
11519TIP3    H134442   4.825   6.975   3.608
11519TIP3    H234443   4.848   6.932   3.753
11520TIP3   OH234444   4.391   8.222   3.074
11520TIP3    H134445   4.328   8.257   3.138
11520TIP3    H234446   4.363   8.267   2.991
11521TIP3   OH234447   4.553   8.772   4.147
11521TIP3    H134448   4.639   8.772   4.194
11521TIP3    H234449   4.533   8.677   4.146
11522TIP3   OH234450   5.032   8.734   4.191
11522TIP3    H134451   5.127   8.716   4.198
11522TIP3    H234452   5.007   8.674   4.118
11523TIP3   OH234453   5.015   8.312   2.321
11523TIP3    H134454   4.967   8.237   2.362
11523TIP3    H234455   5.092   8.267   2.281
11524TIP3   OH234456   5.678   8.640   3.921
11524TIP3    H134457   5.665   8.571   3.990
11524TIP3    H234458   5.752   8.692   3.957
11525TIP3   OH234459   5.450   8.350   2.228
11525TIP3    H134460   5.498   8.290   2.287
11525TIP3    H234461   5.506   8.351   2.148
11526TIP3   OH234462   4.684   8.177   4.346
11526TIP3    H134463   4.698   8.081   4.353
11526TIP3    H234464   4.595   8.181   4.305
11527TIP3   OH234465   4.669   7.839   2.544
11527TIP3    H134466   4.718   7.796   2.617
11527TIP3    H234467   4.736   7.830   2.472
11528TIP3   OH234468   5.290   8.263   4.121
11528TIP3    H134469   5.247   8.282   4.035
11528TIP3    H234470   5.320   8.171   4.112
11529TIP3   OH234471   5.190   8.026   2.365
11529TIP3    H134472   5.109   8.034   2.418
11529TIP3    H234473   5.194   7.929   2.352
11530TIP3   OH234474   5.783   8.267   3.725
11530TIP3    H134475   5.855   8.320   3.685
11530TIP3    H234476   5.708   8.330   3.717
11531TIP3   OH234477   4.801   7.912   4.331
11531TIP3    H134478   4.877   7.858   4.308
11531TIP3    H234479   4.826   7.946   4.420
11532TIP3   OH234480   4.850   7.728   2.747
11532TIP3    H134481   4.838   7.705   2.841
11532TIP3    H234482   4.897   7.650   2.712
11533TIP3   OH234483   5.141   7.795   3.993
11533TIP3    H134484   5.061   7.852   3.994
11533TIP3    H234485   5.188   7.829   3.914
11534TIP3   OH234486   4.971   7.520   2.602
11534TIP3    H134487   4.943   7.527   2.508
11534TIP3    H234488   5.068   7.526   2.594
11535TIP3   OH234489   5.650   8.194   4.123
11535TIP3    H134490   5.736   8.175   4.084
11535TIP3    H234491   5.648   8.133   4.199
11536TIP3   OH234492   5.786   7.855   2.267
11536TIP3    H134493   5.768   7.809   2.183
11536TIP3    H234494   5.755   7.946   2.242
11537TIP3   OH234495   5.266   7.583   4.119
11537TIP3    H134496   5.263   7.505   4.060
11537TIP3    H234497   5.221   7.651   4.065
11538TIP3   OH234498   5.263   7.371   3.924
11538TIP3    H134499   5.289   7.413   3.840
11538TIP3    H234500   5.169   7.348   3.907
11539TIP3   OH234501   5.289   7.907   3.796
11539TIP3    H134502   5.371   7.923   3.749
11539TIP3    H234503   5.228   7.972   3.754
11540TIP3   OH234504   5.870   7.872   4.174
11540TIP3    H134505   5.923   7.795   4.202
11540TIP3    H234506   5.938   7.936   4.151
11541TIP3   OH234507   5.914   8.121   3.909
11541TIP3    H134508   5.854   8.176   3.854
11541TIP3    H234509   6.001   8.146   3.869
11542TIP3   OH234510   5.173   7.664   4.378
11542TIP3    H134511   5.081   7.632   4.371
11542TIP3    H234512   5.194   7.670   4.282
11543TIP3   OH234513   5.394   7.132   3.986
11543TIP3    H134514   5.344   7.214   3.966
11543TIP3    H234515   5.324   7.064   3.979
11544TIP3   OH234516   5.530   7.639   4.199
11544TIP3    H134517   5.536   7.635   4.296
11544TIP3    H234518   5.436   7.616   4.181
11545TIP3   OH234519   5.760   7.574   4.054
11545TIP3    H134520   5.685   7.586   4.116
11545TIP3    H234521   5.833   7.552   4.114
11546TIP3   OH234522   5.989   7.525   4.209
11546TIP3    H134523   6.002   7.430   4.233
11546TIP3    H234524   5.981   7.567   4.298
11547TIP3   OH234525   4.975   7.474   4.394
11547TIP3    H134526   4.978   7.380   4.365
11547TIP3    H234527   5.019   7.470   4.479
11548TIP3   OH234528   5.505   7.154   4.237
11548TIP3    H134529   5.555   7.071   4.247
11548TIP3    H234530   5.458   7.137   4.153
11549TIP3   OH234531   5.529   7.375   4.388
11549TIP3    H134532   5.547   7.291   4.339
11549TIP3    H234533   5.440   7.390   4.355
11550TIP3   OH234534   4.774   8.577   2.502
11550TIP3    H134535   4.871   8.576   2.491
11550TIP3    H234536   4.750   8.634   2.427
11551TIP3   OH234537   4.254   7.971   2.717
11551TIP3    H134538   4.350   7.989   2.712
11551TIP3    H234539   4.250   7.880   2.679
11552TIP3   OH234540   4.171   8.581   3.141
11552TIP3    H134541   4.105   8.519   3.105
11552TIP3    H234542   4.216   8.524   3.207
11553TIP3   OH234543   4.308   8.430   3.325
11553TIP3    H134544   4.298   8.359   3.390
11553TIP3    H234545   4.359   8.494   3.378
11554TIP3   OH234546   6.035   8.829   3.125
11554TIP3    H134547   6.057   8.862   3.214
11554TIP3    H234548   6.093   8.883   3.069
11555TIP3   OH234549   6.062   8.851   3.405
11555TIP3    H134550   6.018   8.763   3.404
11555TIP3    H234551   6.136   8.832   3.465
11556TIP3   OH234552   6.108   8.528   3.979
11556TIP3    H134553   6.037   8.536   4.046
11556TIP3    H234554   6.150   8.616   3.984
11557TIP3   OH234555   5.921   8.048   2.596
11557TIP3    H134556   5.995   8.106   2.569
11557TIP3    H234557   5.959   8.009   2.679
11558TIP3   OH234558   6.039   7.928   2.805
11558TIP3    H134559   5.987   7.866   2.860
11558TIP3    H234560   6.122   7.937   2.857
11559TIP3   OH234561   6.111   8.302   3.236
11559TIP3    H134562   6.160   8.239   3.181
11559TIP3    H234563   6.100   8.378   3.175
11560TIP3   OH234564   5.937   8.601   3.430
11560TIP3    H134565   5.868   8.645   3.483
11560TIP3    H234566   5.884   8.555   3.361
11561TIP3   OH234567   5.988   7.819   2.448
11561TIP3    H134568   5.913   7.823   2.384
11561TIP3    H234569   5.964   7.893   2.507
11562TIP3   OH234570   5.855   7.491   2.397
11562TIP3    H134571   5.813   7.526   2.317
11562TIP3    H234572   5.833   7.395   2.389
11563TIP3   OH234573   5.865   7.763   2.947
11563TIP3    H134574   5.877   7.667   2.943
11563TIP3    H234575   5.852   7.778   3.043
11564TIP3   OH234576   4.494   7.840   3.696
11564TIP3    H134577   4.492   7.810   3.603
11564TIP3    H234578   4.591   7.842   3.712
11565TIP3   OH234579   6.156   8.191   3.804
11565TIP3    H134580   6.230   8.127   3.795
11565TIP3    H234581   6.184   8.264   3.746
11566TIP3   OH234582   6.343   7.995   3.813
11566TIP3    H134583   6.269   7.947   3.855
11566TIP3    H234584   6.416   7.933   3.833
11567TIP3   OH234585   5.808   7.221   2.382
11567TIP3    H134586   5.881   7.195   2.442
11567TIP3    H234587   5.733   7.167   2.412
11568TIP3   OH234588   5.866   7.481   2.840
11568TIP3    H134589   5.907   7.393   2.855
11568TIP3    H234590   5.925   7.516   2.771
11569TIP3   OH234591   6.027   7.653   3.338
11569TIP3    H134592   6.113   7.682   3.301
11569TIP3    H234593   6.036   7.690   3.428
11570TIP3   OH234594   6.094   7.800   3.572
11570TIP3    H134595   6.016   7.832   3.622
11570TIP3    H234596   6.124   7.882   3.528
11571TIP3   OH234597   4.709   7.526   4.369
11571TIP3    H134598   4.807   7.518   4.370
11571TIP3    H234599   4.683   7.441   4.410
11572TIP3   OH234600   6.543   7.389   4.127
11572TIP3    H134601   6.604   7.324   4.086
11572TIP3    H234602   6.518   7.445   4.051
11573TIP3   OH234603   5.977   7.230   2.887
11573TIP3    H134604   6.017   7.216   2.975
11573TIP3    H234605   5.912   7.157   2.883
11574TIP3   OH234606   4.672   7.217   3.697
11574TIP3    H134607   4.735   7.143   3.710
11574TIP3    H234608   4.734   7.293   3.694
11575TIP3   OH234609   4.474   7.490   3.774
11575TIP3    H134610   4.525   7.490   3.691
11575TIP3    H234611   4.499   7.576   3.812
11576TIP3   OH234612   6.419   7.537   3.935
11576TIP3    H134613   6.338   7.574   3.974
11576TIP3    H234614   6.381   7.470   3.874
11577TIP3   OH234615   6.050   7.167   2.514
11577TIP3    H134616   6.097   7.099   2.462
11577TIP3    H234617   6.114   7.241   2.514
11578TIP3   OH234618   4.458   6.991   3.272
11578TIP3    H134619   4.366   6.991   3.304
11578TIP3    H234620   4.453   7.052   3.196
11579TIP3   OH234621   5.615   8.692   2.784
11579TIP3    H134622   5.670   8.688   2.703
11579TIP3    H234623   5.659   8.762   2.834
11580TIP3   OH234624   4.679   7.075   4.089
11580TIP3    H134625   4.629   7.069   4.172
11580TIP3    H234626   4.612   7.114   4.030
11581TIP3   OH234627   4.718   8.503   4.167
11581TIP3    H134628   4.626   8.476   4.150
11581TIP3    H234629   4.727   8.485   4.262
11582TIP3   OH234630   4.893   8.537   3.717
11582TIP3    H134631   4.850   8.613   3.673
11582TIP3    H234632   4.983   8.550   3.679
11583TIP3   OH234633   5.343   8.779   3.852
11583TIP3    H134634   5.384   8.780   3.941
11583TIP3    H234635   5.407   8.832   3.801
11584TIP3   OH234636   5.521   8.933   3.711
11584TIP3    H134637   5.593   8.879   3.674
11584TIP3    H234638   5.571   8.991   3.773
11585TIP3   OH234639   6.327   7.299   3.811
11585TIP3    H134640   6.231   7.304   3.806
11585TIP3    H234641   6.346   7.203   3.803
11586TIP3   OH234642   4.569   8.791   3.737
11586TIP3    H134643   4.480   8.827   3.718
11586TIP3    H234644   4.585   8.829   3.825
11587TIP3   OH234645   4.808   8.778   3.599
11587TIP3    H134646   4.721   8.788   3.643
11587TIP3    H234647   4.788   8.807   3.508
11588TIP3   OH234648   5.247   8.811   3.374
11588TIP3    H134649   5.166   8.831   3.324
11588TIP3    H234650   5.253   8.888   3.434
11589TIP3   OH234651   5.505   8.737   3.441
11589TIP3    H134652   5.411   8.755   3.423
11589TIP3    H234653   5.546   8.818   3.407
11590TIP3   OH234654   5.713   8.931   3.360
11590TIP3    H134655   5.698   9.016   3.313
11590TIP3    H234656   5.736   8.871   3.287
11591TIP3   OH234657   4.479   8.589   3.486
11591TIP3    H134658   4.508   8.563   3.577
11591TIP3    H234659   4.551   8.546   3.435
11592TIP3   OH234660   4.660   8.452   3.342
11592TIP3    H134661   4.659   8.366   3.389
11592TIP3    H234662   4.758   8.463   3.338
11593TIP3   OH234663   5.520   7.207   3.431
11593TIP3    H134664   5.476   7.139   3.484
11593TIP3    H234665   5.594   7.158   3.390
11594TIP3   OH234666   6.151   7.172   3.126
11594TIP3    H134667   6.213   7.127   3.064
11594TIP3    H234668   6.169   7.265   3.098
11595TIP3   OH234669   4.769   6.916   3.444
11595TIP3    H134670   4.677   6.883   3.448
11595TIP3    H234671   4.818   6.831   3.443
11596TIP3   OH234672   4.551   6.788   3.093
11596TIP3    H134673   4.582   6.847   3.023
11596TIP3    H234674   4.524   6.852   3.163
11597TIP3   OH234675   5.213   6.949   3.326
11597TIP3    H134676   5.272   7.001   3.269
11597TIP3    H234677   5.229   6.987   3.413
11598TIP3   OH234678   5.757   7.100   3.318
11598TIP3    H134679   5.768   7.064   3.229
11598TIP3    H234680   5.749   7.017   3.371
11599TIP3   OH234681   5.790   7.020   2.876
11599TIP3    H134682   5.704   7.064   2.888
11599TIP3    H234683   5.772   6.933   2.919
11600TIP3   OH234684   4.275   8.356   2.871
11600TIP3    H134685   4.188   8.325   2.837
11600TIP3    H234686   4.264   8.451   2.859
11601TIP3   OH234687   4.673   6.949   2.855
11601TIP3    H134688   4.722   6.884   2.801
11601TIP3    H234689   4.746   7.002   2.893
11602TIP3   OH234690   5.186   7.122   2.955
11602TIP3    H134691   5.243   7.075   3.018
11602TIP3    H234692   5.206   7.215   2.982
11603TIP3   OH234693   5.043   8.556   2.457
11603TIP3    H134694   5.132   8.573   2.419
11603TIP3    H234695   5.025   8.470   2.414
11604TIP3   OH234696   5.763   8.667   2.550
11604TIP3    H134697   5.754   8.569   2.537
11604TIP3    H234698   5.718   8.700   2.469
11605TIP3   OH234699   4.981   7.200   4.345
11605TIP3    H134700   4.944   7.126   4.395
11605TIP3    H234701   5.076   7.192   4.368
11606TIP3   OH234702   5.233   7.194   4.467
11606TIP3    H134703   5.313   7.149   4.432
11606TIP3    H234704   5.211   7.128   4.537
11607TIP3   OH234705   4.347   8.386   2.514
11607TIP3    H134706   4.348   8.406   2.608
11607TIP3    H234707   4.434   8.343   2.501
11608TIP3   OH234708   6.050   7.255   4.246
11608TIP3    H134709   6.066   7.225   4.339
11608TIP3    H234710   6.140   7.251   4.209
11609TIP3   OH234711   5.991   8.809   3.733
11609TIP3    H134712   5.911   8.777   3.688
11609TIP3    H234713   5.970   8.904   3.741
11610TIP3   OH234714   7.255   8.179   2.505
11610TIP3    H134715   7.227   8.271   2.486
11610TIP3    H234716   7.178   8.131   2.469
11611TIP3   OH234717   7.256   8.184   2.885
11611TIP3    H134718   7.282   8.156   2.975
11611TIP3    H234719   7.220   8.102   2.848
11612TIP3   OH234720   6.574   8.075   3.231
11612TIP3    H134721   6.588   8.020   3.310
11612TIP3    H234722   6.614   8.158   3.262
11613TIP3   OH234723   7.498   8.484   2.566
11613TIP3    H134724   7.486   8.418   2.636
11613TIP3    H234725   7.528   8.562   2.616
11614TIP3   OH234726   6.527   8.488   2.971
11614TIP3    H134727   6.522   8.391   2.976
11614TIP3    H234728   6.624   8.500   2.968
11615TIP3   OH234729   6.300   7.976   2.929
11615TIP3    H134730   6.336   7.893   2.966
11615TIP3    H234731   6.334   7.968   2.839
11616TIP3   OH234732   7.147   8.947   2.580
11616TIP3    H134733   7.193   8.874   2.533
11616TIP3    H234734   7.141   8.912   2.670
11617TIP3   OH234735   7.053   8.402   2.934
11617TIP3    H134736   7.098   8.331   2.885
11617TIP3    H234737   7.133   8.453   2.961
11618TIP3   OH234738   8.066   7.727   2.930
11618TIP3    H134739   8.095   7.810   2.973
11618TIP3    H234740   8.092   7.744   2.837
11619TIP3   OH234741   7.454   7.903   2.967
11619TIP3    H134742   7.507   7.822   2.985
11619TIP3    H234743   7.434   7.890   2.872
11620TIP3   OH234744   6.806   7.575   2.933
11620TIP3    H134745   6.780   7.639   2.863
11620TIP3    H234746   6.772   7.492   2.891
11621TIP3   OH234747   7.498   7.662   2.551
11621TIP3    H134748   7.569   7.646   2.617
11621TIP3    H234749   7.551   7.694   2.476
11622TIP3   OH234750   6.425   7.754   3.032
11622TIP3    H134751   6.513   7.726   3.061
11622TIP3    H234752   6.428   7.732   2.936
11623TIP3   OH234753   6.878   7.962   2.821
11623TIP3    H134754   6.971   7.935   2.835
11623TIP3    H234755   6.838   7.878   2.789
11624TIP3   OH234756   8.139   7.933   3.102
11624TIP3    H134757   8.056   7.982   3.085
11624TIP3    H234758   8.161   7.965   3.191
11625TIP3   OH234759   6.799   7.553   3.364
11625TIP3    H134760   6.735   7.587   3.298
11625TIP3    H234761   6.747   7.565   3.447
11626TIP3   OH234762   7.137   8.396   2.375
11626TIP3    H134763   7.113   8.394   2.282
11626TIP3    H234764   7.102   8.484   2.401
11627TIP3   OH234765   6.903   8.318   3.169
11627TIP3    H134766   6.843   8.387   3.205
11627TIP3    H234767   6.956   8.370   3.106
11628TIP3   OH234768   7.706   7.664   2.725
11628TIP3    H134769   7.703   7.613   2.807
11628TIP3    H234770   7.763   7.739   2.750
11629TIP3   OH234771   6.669   7.666   3.147
11629TIP3    H134772   6.723   7.745   3.159
11629TIP3    H234773   6.717   7.623   3.073
11630TIP3   OH234774   6.736   8.520   3.255
11630TIP3    H134775   6.712   8.607   3.218
11630TIP3    H234776   6.657   8.506   3.313
11631TIP3   OH234777   6.131   8.210   2.490
11631TIP3    H134778   6.077   8.244   2.418
11631TIP3    H234779   6.167   8.292   2.529
11632TIP3   OH234780   7.566   8.721   2.731
11632TIP3    H134781   7.477   8.714   2.773
11632TIP3    H234782   7.556   8.808   2.687
11633TIP3   OH234783   7.862   7.622   3.096
11633TIP3    H134784   7.775   7.655   3.067
11633TIP3    H234785   7.922   7.656   3.026
11634TIP3   OH234786   7.158   7.271   3.082
11634TIP3    H134787   7.145   7.175   3.095
11634TIP3    H234788   7.078   7.306   3.128
11635TIP3   OH234789   7.269   8.772   2.405
11635TIP3    H134790   7.320   8.690   2.383
11635TIP3    H234791   7.329   8.839   2.366
11636TIP3   OH234792   7.409   8.555   2.315
11636TIP3    H134793   7.389   8.473   2.268
11636TIP3    H234794   7.447   8.522   2.399
11637TIP3   OH234795   7.794   8.640   3.077
11637TIP3    H134796   7.784   8.564   3.016
11637TIP3    H234797   7.776   8.716   3.017
11638TIP3   OH234798   7.085   8.034   2.331
11638TIP3    H134799   7.014   8.093   2.302
11638TIP3    H234800   7.140   8.027   2.250
11639TIP3   OH234801   7.045   7.818   2.052
11639TIP3    H134802   7.114   7.869   2.097
11639TIP3    H234803   7.101   7.754   2.003
11640TIP3   OH234804   7.990   8.276   2.921
11640TIP3    H134805   7.907   8.329   2.926
11640TIP3    H234806   8.019   8.299   2.831
11641TIP3   OH234807   7.433   8.114   2.306
11641TIP3    H134808   7.381   8.140   2.385
11641TIP3    H234809   7.518   8.089   2.347
11642TIP3   OH234810   7.667   8.159   3.219
11642TIP3    H134811   7.670   8.234   3.282
11642TIP3    H234812   7.609   8.195   3.150
11643TIP3   OH234813   6.666   8.107   2.720
11643TIP3    H134814   6.626   8.045   2.656
11643TIP3    H234815   6.744   8.057   2.751
11644TIP3   OH234816   6.797   8.525   2.871
11644TIP3    H134817   6.778   8.484   2.786
11644TIP3    H234818   6.885   8.490   2.893
11645TIP3   OH234819   6.869   8.075   3.073
11645TIP3    H134820   6.844   8.064   2.979
11645TIP3    H234821   6.848   8.170   3.089
11646TIP3   OH234822   7.326   8.721   2.854
11646TIP3    H134823   7.313   8.804   2.903
11646TIP3    H234824   7.309   8.652   2.922
11647TIP3   OH234825   6.939   8.642   3.401
11647TIP3    H134826   6.879   8.704   3.448
11647TIP3    H234827   6.874   8.589   3.351
11648TIP3   OH234828   7.271   7.977   2.132
11648TIP3    H134829   7.334   8.034   2.182
11648TIP3    H234830   7.298   7.997   2.039
11649TIP3   OH234831   6.675   8.197   3.484
11649TIP3    H134832   6.698   8.279   3.533
11649TIP3    H234833   6.586   8.180   3.520
11650TIP3   OH234834   7.019   8.652   2.403
11650TIP3    H134835   7.099   8.705   2.419
11650TIP3    H234836   6.956   8.718   2.370
11651TIP3   OH234837   6.734   8.811   3.491
11651TIP3    H134838   6.699   8.812   3.400
11651TIP3    H234839   6.654   8.787   3.543
11652TIP3   OH234840   7.790   7.215   2.179
11652TIP3    H134841   7.709   7.236   2.230
11652TIP3    H234842   7.804   7.297   2.129
11653TIP3   OH234843   6.523   7.946   2.510
11653TIP3    H134844   6.439   7.986   2.537
11653TIP3    H234845   6.515   7.863   2.562
11654TIP3   OH234846   7.587   8.579   1.728
11654TIP3    H134847   7.589   8.675   1.706
11654TIP3    H234848   7.681   8.554   1.711
11655TIP3   OH234849   6.314   8.338   3.434
11655TIP3    H134850   6.244   8.320   3.368
11655TIP3    H234851   6.346   8.249   3.457
11656TIP3   OH234852   6.167   8.534   3.065
11656TIP3    H134853   6.264   8.534   3.061
11656TIP3    H234854   6.151   8.614   3.119
11657TIP3   OH234855   8.026   8.984   3.118
11657TIP3    H134856   8.028   8.888   3.134
11657TIP3    H234857   7.942   9.008   3.164
11658TIP3   OH234858   7.138   8.769   3.257
11658TIP3    H134859   7.138   8.862   3.289
11658TIP3    H234860   7.067   8.730   3.312
11659TIP3   OH234861   6.900   8.898   2.211
11659TIP3    H134862   6.853   8.883   2.126
11659TIP3    H234863   6.867   8.986   2.237
11660TIP3   OH234864   6.336   8.749   2.594
11660TIP3    H134865   6.387   8.741   2.678
11660TIP3    H234866   6.271   8.677   2.607
11661TIP3   OH234867   7.100   8.799   1.849
11661TIP3    H134868   7.159   8.730   1.812
11661TIP3    H234869   7.135   8.809   1.940
11662TIP3   OH234870   7.150   8.845   2.120
11662TIP3    H134871   7.062   8.857   2.162
11662TIP3    H234872   7.203   8.812   2.194
11663TIP3   OH234873   7.925   8.115   3.398
11663TIP3    H134874   7.841   8.124   3.351
11663TIP3    H234875   7.940   8.019   3.392
11664TIP3   OH234876   6.520   8.521   3.420
11664TIP3    H134877   6.568   8.507   3.505
11664TIP3    H234878   6.444   8.459   3.430
11665TIP3   OH234879   6.916   7.351   3.206
11665TIP3    H134880   6.830   7.315   3.176
11665TIP3    H234881   6.884   7.426   3.259
11666TIP3   OH234882   7.452   7.460   3.402
11666TIP3    H134883   7.522   7.438   3.466
11666TIP3    H234884   7.369   7.441   3.451
11667TIP3   OH234885   7.682   7.889   3.312
11667TIP3    H134886   7.640   7.882   3.401
11667TIP3    H234887   7.664   7.981   3.287
11668TIP3   OH234888   7.349   8.019   1.876
11668TIP3    H134889   7.316   7.994   1.787
11668TIP3    H234890   7.432   8.065   1.852
11669TIP3   OH234891   7.059   7.397   2.176
11669TIP3    H134892   7.029   7.393   2.269
11669TIP3    H234893   7.025   7.312   2.144
11670TIP3   OH234894   6.882   7.892   3.258
11670TIP3    H134895   6.815   7.879   3.330
11670TIP3    H234896   6.826   7.935   3.190
11671TIP3   OH234897   6.744   7.743   2.732
11671TIP3    H134898   6.645   7.745   2.735
11671TIP3    H234899   6.755   7.695   2.647
11672TIP3   OH234900   7.225   7.836   2.467
11672TIP3    H134901   7.173   7.906   2.423
11672TIP3    H234902   7.281   7.803   2.394
11673TIP3   OH234903   7.396   8.120   3.551
11673TIP3    H134904   7.376   8.037   3.599
11673TIP3    H234905   7.490   8.131   3.573
11674TIP3   OH234906   7.376   7.863   2.704
11674TIP3    H134907   7.322   7.891   2.627
11674TIP3    H234908   7.413   7.781   2.665
11675TIP3   OH234909   6.690   7.889   3.445
11675TIP3    H134910   6.673   7.963   3.505
11675TIP3    H234911   6.662   7.812   3.498
11676TIP3   OH234912   6.714   7.362   2.146
11676TIP3    H134913   6.708   7.367   2.243
11676TIP3    H234914   6.641   7.421   2.119
11677TIP3   OH234915   6.264   7.397   3.022
11677TIP3    H134916   6.332   7.442   3.076
11677TIP3    H234917   6.300   7.405   2.933
11678TIP3   OH234918   6.233   7.393   2.529
11678TIP3    H134919   6.293   7.441   2.470
11678TIP3    H234920   6.174   7.465   2.560
11679TIP3   OH234921   7.346   8.083   3.137
11679TIP3    H134922   7.398   8.020   3.083
11679TIP3    H234923   7.401   8.092   3.216
11680TIP3   OH234924   7.062   7.573   2.796
11680TIP3    H134925   6.980   7.569   2.848
11680TIP3    H234926   7.130   7.558   2.864
11681TIP3   OH234927   6.767   7.617   2.492
11681TIP3    H134928   6.860   7.637   2.468
11681TIP3    H234929   6.716   7.646   2.413
11682TIP3   OH234930   7.557   7.646   3.000
11682TIP3    H134931   7.523   7.656   3.092
11682TIP3    H234932   7.495   7.581   2.965
11683TIP3   OH234933   6.610   7.661   2.274
11683TIP3    H134934   6.535   7.615   2.231
11683TIP3    H234935   6.657   7.697   2.196
11684TIP3   OH234936   7.717   9.330   3.222
11684TIP3    H134937   7.718   9.353   3.126
11684TIP3    H234938   7.787   9.387   3.257
11685TIP3   OH234939   6.683   8.442   3.641
11685TIP3    H134940   6.760   8.475   3.691
11685TIP3    H234941   6.616   8.441   3.713
11686TIP3   OH234942   7.155   7.894   2.899
11686TIP3    H134943   7.203   7.868   2.818
11686TIP3    H234944   7.218   7.862   2.966
11687TIP3   OH234945   6.710   7.368   2.789
11687TIP3    H134946   6.650   7.302   2.829
11687TIP3    H234947   6.705   7.348   2.695
11688TIP3   OH234948   6.836   8.184   2.275
11688TIP3    H134949   6.809   8.096   2.306
11688TIP3    H234950   6.839   8.231   2.363
11689TIP3   OH234951   7.757   8.422   2.911
11689TIP3    H134952   7.783   8.473   2.831
11689TIP3    H234953   7.672   8.382   2.884
11690TIP3   OH234954   7.314   7.497   2.149
11690TIP3    H134955   7.217   7.482   2.154
11690TIP3    H234956   7.325   7.592   2.170
11691TIP3   OH234957   7.252   8.501   3.286
11691TIP3    H134958   7.291   8.495   3.375
11691TIP3    H234959   7.218   8.592   3.285
11692TIP3   OH234960   7.384   7.747   2.250
11692TIP3    H134961   7.480   7.750   2.264
11692TIP3    H234962   7.368   7.826   2.194
11693TIP3   OH234963   6.568   8.214   2.965
11693TIP3    H134964   6.586   8.176   2.877
11693TIP3    H234965   6.565   8.137   3.023
11694TIP3   OH234966   7.002   8.334   2.104
11694TIP3    H134967   6.957   8.422   2.107
11694TIP3    H234968   6.949   8.284   2.168
11695TIP3   OH234969   6.429   8.119   3.570
11695TIP3    H134970   6.445   8.110   3.667
11695TIP3    H234971   6.352   8.061   3.559
11696TIP3   OH234972   7.161   8.254   3.597
11696TIP3    H134973   7.104   8.200   3.543
11696TIP3    H234974   7.250   8.216   3.576
11697TIP3   OH234975   7.415   8.753   3.181
11697TIP3    H134976   7.319   8.762   3.191
11697TIP3    H234977   7.446   8.810   3.255
11698TIP3   OH234978   7.825   7.837   2.086
11698TIP3    H134979   7.762   7.793   2.024
11698TIP3    H234980   7.823   7.926   2.044
11699TIP3   OH234981   8.045   8.691   3.166
11699TIP3    H134982   7.947   8.688   3.158
11699TIP3    H234983   8.069   8.662   3.075
11700TIP3   OH234984   7.519   8.652   1.989
11700TIP3    H134985   7.505   8.580   2.052
11700TIP3    H234986   7.539   8.607   1.905
11701TIP3   OH234987   7.523   8.281   2.837
11701TIP3    H134988   7.428   8.260   2.843
11701TIP3    H234989   7.556   8.204   2.787
11702TIP3   OH234990   6.650   8.508   2.578
11702TIP3    H134991   6.652   8.591   2.525
11702TIP3    H234992   6.557   8.506   2.603
11703TIP3   OH234993   6.207   7.812   2.291
11703TIP3    H134994   6.258   7.880   2.337
11703TIP3    H234995   6.125   7.811   2.346
11704TIP3   OH234996   6.783   8.273   2.522
11704TIP3    H134997   6.750   8.364   2.538
11704TIP3    H234998   6.750   8.227   2.602
11705TIP3   OH234999   6.920   8.855   3.051
11705TIP3    H135000   6.959   8.930   3.001
11705TIP3    H235001   6.997   8.823   3.101
11706TIP3   OH235002   6.571   8.749   2.437
11706TIP3    H135003   6.485   8.760   2.481
11706TIP3    H235004   6.604   8.842   2.439
11707TIP3   OH235005   7.304   8.488   3.015
11707TIP3    H135006   7.296   8.486   3.113
11707TIP3    H235007   7.390   8.448   3.002
11708TIP3   OH235008   7.283   8.378   1.897
11708TIP3    H135009   7.339   8.356   1.974
11708TIP3    H235010   7.195   8.359   1.933
11709TIP3   OH235011   7.556   9.022   3.058
11709TIP3    H135012   7.473   8.971   3.048
11709TIP3    H235013   7.543   9.090   2.989
11710TIP3   OH235014   7.601   8.852   1.702
11710TIP3    H135015   7.641   8.914   1.640
11710TIP3    H235016   7.528   8.907   1.738
11711TIP3   OH235017   6.642   7.631   3.582
11711TIP3    H135018   6.547   7.634   3.599
11711TIP3    H235019   6.673   7.576   3.656
11712TIP3   OH235020   7.443   8.318   2.115
11712TIP3    H135021   7.435   8.249   2.183
11712TIP3    H235022   7.540   8.315   2.099
11713TIP3   OH235023   6.359   8.716   3.210
11713TIP3    H135024   6.414   8.647   3.251
11713TIP3    H235025   6.379   8.792   3.266
11714TIP3   OH235026   6.644   8.355   1.917
11714TIP3    H135027   6.654   8.276   1.861
11714TIP3    H235028   6.728   8.359   1.964
11715TIP3   OH235029   7.468   7.691   3.250
11715TIP3    H135030   7.531   7.749   3.297
11715TIP3    H235031   7.460   7.616   3.313
11716TIP3   OH235032   7.357   7.450   2.428
11716TIP3    H135033   7.346   7.471   2.333
11716TIP3    H235034   7.398   7.532   2.463
11717TIP3   OH235035   6.847   8.553   2.105
11717TIP3    H135036   6.761   8.578   2.145
11717TIP3    H235037   6.870   8.638   2.064
11718TIP3   OH235038   7.049   7.630   2.525
11718TIP3    H135039   7.115   7.700   2.510
11718TIP3    H235040   7.053   7.620   2.623
11719TIP3   OH235041   7.190   7.354   2.629
11719TIP3    H135042   7.186   7.431   2.688
11719TIP3    H235043   7.252   7.389   2.560
11720TIP3   OH235044   6.601   8.638   2.181
11720TIP3    H135045   6.570   8.708   2.119
11720TIP3    H235046   6.585   8.680   2.268
11721TIP3   OH235047   6.703   7.357   2.425
11721TIP3    H135048   6.702   7.449   2.459
11721TIP3    H235049   6.799   7.339   2.432
11722TIP3   OH235050   7.952   7.850   3.318
11722TIP3    H135051   7.854   7.844   3.322
11722TIP3    H235052   7.969   7.810   3.232
11723TIP3   OH235053   7.606   8.042   2.707
11723TIP3    H135054   7.533   7.979   2.716
11723TIP3    H235055   7.680   7.996   2.752
11724TIP3   OH235056   6.273   7.545   2.288
11724TIP3    H135057   6.264   7.642   2.296
11724TIP3    H235058   6.181   7.517   2.291
11725TIP3   OH235059   7.548   8.987   2.653
11725TIP3    H135060   7.507   9.037   2.579
11725TIP3    H235061   7.642   9.009   2.633
11726TIP3   OH235062   6.653   7.266   3.182
11726TIP3    H135063   6.622   7.233   3.095
11726TIP3    H235064   6.641   7.187   3.239
11727TIP3   OH235065   6.187   8.476   2.561
11727TIP3    H135066   6.127   8.511   2.627
11727TIP3    H235067   6.157   8.524   2.480
11728TIP3   OH235068   6.348   9.027   3.632
11728TIP3    H135069   6.433   9.027   3.679
11728TIP3    H235070   6.325   8.932   3.633
11729TIP3   OH235071   6.839   8.987   3.685
11729TIP3    H135072   6.932   8.960   3.681
11729TIP3    H235073   6.801   8.931   3.614
11730TIP3   OH235074   6.810   8.569   1.801
11730TIP3    H135075   6.754   8.500   1.840
11730TIP3    H235076   6.885   8.519   1.765
11731TIP3   OH235077   7.472   8.897   3.407
11731TIP3    H135078   7.458   8.828   3.476
11731TIP3    H235079   7.547   8.948   3.443
11732TIP3   OH235080   7.245   8.605   1.717
11732TIP3    H135081   7.299   8.549   1.775
11732TIP3    H235082   7.298   8.608   1.635
11733TIP3   OH235083   6.481   8.435   3.831
11733TIP3    H135084   6.493   8.339   3.845
11733TIP3    H235085   6.392   8.438   3.791
11734TIP3   OH235086   7.087   8.524   3.609
11734TIP3    H135087   7.046   8.539   3.522
11734TIP3    H235088   7.123   8.433   3.602
11735TIP3   OH235089   6.947   8.280   1.841
11735TIP3    H135090   6.975   8.293   1.934
11735TIP3    H235091   6.961   8.184   1.830
11736TIP3   OH235092   7.577   8.525   3.208
11736TIP3    H135093   7.654   8.570   3.168
11736TIP3    H235094   7.510   8.597   3.200
11737TIP3   OH235095   6.602   8.165   3.815
11737TIP3    H135096   6.676   8.104   3.805
11737TIP3    H235097   6.622   8.202   3.904
11738TIP3   OH235098   6.634   7.992   2.249
11738TIP3    H135099   6.607   7.950   2.334
11738TIP3    H235100   6.676   7.915   2.203
11739TIP3   OH235101   6.762   7.802   2.092
11739TIP3    H135102   6.738   7.796   1.997
11739TIP3    H235103   6.860   7.796   2.086
11740TIP3   OH235104   7.446   8.450   3.608
11740TIP3    H135105   7.533   8.433   3.571
11740TIP3    H235106   7.444   8.388   3.683
11741TIP3   OH235107   7.583   8.110   1.755
11741TIP3    H135108   7.566   8.065   1.670
11741TIP3    H235109   7.552   8.201   1.731
11742TIP3   OH235110   7.047   7.839   3.600
11742TIP3    H135111   7.074   7.754   3.558
11742TIP3    H235112   6.963   7.854   3.555
11743TIP3   OH235113   7.055   7.628   3.409
11743TIP3    H135114   7.087   7.630   3.318
11743TIP3    H235115   6.960   7.605   3.397
11744TIP3   OH235116   7.666   8.130   3.662
11744TIP3    H135117   7.713   8.047   3.683
11744TIP3    H235118   7.739   8.187   3.634
11745TIP3   OH235119   7.709   8.378   3.393
11745TIP3    H135120   7.651   8.435   3.338
11745TIP3    H235121   7.797   8.403   3.356
11746TIP3   OH235122   6.928   7.956   3.827
11746TIP3    H135123   6.862   7.887   3.849
11746TIP3    H235124   6.975   7.916   3.752
11747TIP3   OH235125   7.189   7.391   3.475
11747TIP3    H135126   7.136   7.472   3.462
11747TIP3    H235127   7.120   7.322   3.467
11748TIP3   OH235128   7.322   7.896   3.693
11748TIP3    H135129   7.325   7.887   3.790
11748TIP3    H235130   7.230   7.872   3.676
11749TIP3   OH235131   7.561   7.841   3.547
11749TIP3    H135132   7.485   7.846   3.608
11749TIP3    H235133   7.634   7.812   3.607
11750TIP3   OH235134   7.784   7.779   3.701
11750TIP3    H135135   7.797   7.685   3.724
11750TIP3    H235136   7.780   7.823   3.789
11751TIP3   OH235137   6.776   7.730   3.885
11751TIP3    H135138   6.780   7.636   3.858
11751TIP3    H235139   6.812   7.723   3.976
11752TIP3   OH235140   7.288   7.404   3.732
11752TIP3    H135141   7.353   7.330   3.732
11752TIP3    H235142   7.246   7.390   3.644
11753TIP3   OH235143   7.351   7.617   3.892
11753TIP3    H135144   7.330   7.544   3.830
11753TIP3    H235145   7.270   7.672   3.888
11754TIP3   OH235146   6.571   8.839   1.991
11754TIP3    H135147   6.667   8.837   1.976
11754TIP3    H235148   6.543   8.893   1.914
11755TIP3   OH235149   6.041   8.228   2.196
11755TIP3    H135150   6.136   8.237   2.206
11755TIP3    H235151   6.033   8.137   2.160
11756TIP3   OH235152   5.970   8.835   2.625
11756TIP3    H135153   5.901   8.776   2.589
11756TIP3    H235154   6.012   8.777   2.691
11757TIP3   OH235155   6.107   8.683   2.809
11757TIP3    H135156   6.092   8.616   2.878
11757TIP3    H235157   6.156   8.749   2.862
11758TIP3   OH235158   7.790   9.089   2.609
11758TIP3    H135159   7.831   9.110   2.695
11758TIP3    H235160   7.850   9.140   2.552
11759TIP3   OH235161   7.864   9.104   2.887
11759TIP3    H135162   7.818   9.018   2.887
11759TIP3    H235163   7.942   9.080   2.941
11760TIP3   OH235164   7.904   8.784   3.467
11760TIP3    H135165   7.831   8.793   3.531
11760TIP3    H235166   7.945   8.873   3.471
11761TIP3   OH235167   7.720   8.299   2.087
11761TIP3    H135168   7.789   8.361   2.056
11761TIP3    H235169   7.765   8.260   2.165
11762TIP3   OH235170   7.849   8.166   2.290
11762TIP3    H135171   7.784   8.125   2.350
11762TIP3    H235172   7.915   8.204   2.352
11763TIP3   OH235173   7.902   8.556   2.721
11763TIP3    H135174   7.956   8.493   2.669
11763TIP3    H235175   7.898   8.633   2.660
11764TIP3   OH235176   7.733   8.857   2.917
11764TIP3    H135177   7.663   8.903   2.967
11764TIP3    H235178   7.681   8.811   2.847
11765TIP3   OH235179   7.786   8.073   1.937
11765TIP3    H135180   7.715   8.076   1.870
11765TIP3    H235181   7.760   8.151   1.991
11766TIP3   OH235182   7.654   7.748   1.894
11766TIP3    H135183   7.619   7.786   1.813
11766TIP3    H235184   7.631   7.654   1.884
11767TIP3   OH235185   7.661   8.024   2.436
11767TIP3    H135186   7.673   7.927   2.430
11767TIP3    H235187   7.649   8.037   2.533
11768TIP3   OH235188   6.295   8.089   3.183
11768TIP3    H135189   6.287   8.061   3.089
11768TIP3    H235190   6.392   8.093   3.192
11769TIP3   OH235191   7.952   8.448   3.292
11769TIP3    H135192   8.025   8.382   3.283
11769TIP3    H235193   7.981   8.519   3.232
11770TIP3   OH235194   8.138   8.253   3.305
11770TIP3    H135195   8.064   8.203   3.347
11770TIP3    H235196   8.211   8.190   3.321
11771TIP3   OH235197   7.601   7.482   1.878
11771TIP3    H135198   7.679   7.451   1.929
11771TIP3    H235199   7.531   7.419   1.901
11772TIP3   OH235200   7.659   7.739   2.330
11772TIP3    H135201   7.700   7.651   2.345
11772TIP3    H235202   7.717   7.772   2.260
11773TIP3   OH235203   7.820   7.915   2.825
11773TIP3    H135204   7.906   7.939   2.784
11773TIP3    H235205   7.836   7.950   2.915
11774TIP3   OH235206   7.890   8.057   3.057
11774TIP3    H135207   7.815   8.091   3.109
11774TIP3    H235208   7.924   8.138   3.013
11775TIP3   OH235209   6.509   7.780   3.845
11775TIP3    H135210   6.606   7.777   3.858
11775TIP3    H235211   6.483   7.699   3.893
11776TIP3   OH235212   8.338   7.644   3.613
11776TIP3    H135213   8.402   7.583   3.571
11776TIP3    H235214   8.314   7.704   3.539
11777TIP3   OH235215   7.767   7.490   2.370
11777TIP3    H135216   7.817   7.473   2.453
11777TIP3    H235217   7.708   7.411   2.368
11778TIP3   OH235218   6.468   7.473   3.193
11778TIP3    H135219   6.533   7.400   3.198
11778TIP3    H235220   6.526   7.550   3.187
11779TIP3   OH235221   6.274   7.747   3.263
11779TIP3    H135222   6.321   7.742   3.178
11779TIP3    H235223   6.291   7.838   3.290
11780TIP3   OH235224   8.213   7.790   3.418
11780TIP3    H135225   8.128   7.830   3.446
11780TIP3    H235226   8.180   7.717   3.362
11781TIP3   OH235227   7.848   7.423   2.001
11781TIP3    H135228   7.889   7.351   1.949
11781TIP3    H235229   7.916   7.493   1.997
11782TIP3   OH235230   6.250   7.236   2.750
11782TIP3    H135231   6.162   7.246   2.789
11782TIP3    H235232   6.250   7.306   2.681
11783TIP3   OH235233   7.412   8.955   2.270
11783TIP3    H135234   7.462   8.942   2.186
11783TIP3    H235235   7.468   9.020   2.316
11784TIP3   OH235236   6.483   7.335   3.579
11784TIP3    H135237   6.435   7.333   3.663
11784TIP3    H235238   6.418   7.379   3.521
11785TIP3   OH235239   6.515   8.755   3.656
11785TIP3    H135240   6.422   8.734   3.638
11785TIP3    H235241   6.520   8.740   3.751
11786TIP3   OH235242   6.695   8.791   3.201
11786TIP3    H135243   6.644   8.866   3.164
11786TIP3    H235244   6.780   8.807   3.156
11787TIP3   OH235245   7.138   9.035   3.339
11787TIP3    H135246   7.179   9.037   3.428
11787TIP3    H235247   7.203   9.087   3.287
11788TIP3   OH235248   7.316   9.189   3.198
11788TIP3    H135249   7.389   9.140   3.158
11788TIP3    H235250   7.365   9.247   3.261
11789TIP3   OH235251   8.110   7.556   3.299
11789TIP3    H135252   8.020   7.548   3.263
11789TIP3    H235253   8.143   7.464   3.290
11790TIP3   OH235254   6.368   9.046   3.228
11790TIP3    H135255   6.279   9.079   3.203
11790TIP3    H235256   6.380   9.092   3.311
11791TIP3   OH235257   6.604   9.025   3.083
11791TIP3    H135258   6.518   9.039   3.128
11791TIP3    H235259   6.586   9.061   2.994
11792TIP3   OH235260   7.031   9.056   2.880
11792TIP3    H135261   6.962   9.076   2.815
11792TIP3    H235262   7.043   9.143   2.923
11793TIP3   OH235263   7.300   8.992   2.932
11793TIP3    H135264   7.206   9.012   2.914
11793TIP3    H235265   7.344   9.068   2.890
11794TIP3   OH235266   7.504   9.188   2.845
11794TIP3    H135267   7.496   9.274   2.800
11794TIP3    H235268   7.525   9.127   2.771
11795TIP3   OH235269   6.281   8.842   2.966
11795TIP3    H135270   6.305   8.816   3.058
11795TIP3    H235271   6.354   8.799   2.918
11796TIP3   OH235272   6.475   8.713   2.824
11796TIP3    H135273   6.491   8.631   2.877
11796TIP3    H235274   6.566   8.752   2.823
11797TIP3   OH235275   6.739   8.807   2.831
11797TIP3    H135276   6.773   8.716   2.823
11797TIP3    H235277   6.784   8.834   2.914
11798TIP3   OH235278   7.308   7.463   2.915
11798TIP3    H135279   7.272   7.391   2.970
11798TIP3    H235280   7.384   7.421   2.872
11799TIP3   OH235281   7.838   7.345   2.824
11799TIP3    H135282   7.876   7.396   2.748
11799TIP3    H235283   7.743   7.365   2.816
11800TIP3   OH235284   7.933   7.445   2.587
11800TIP3    H135285   8.006   7.392   2.547
11800TIP3    H235286   7.968   7.536   2.572
11801TIP3   OH235287   6.562   7.172   2.937
11801TIP3    H135288   6.469   7.140   2.937
11801TIP3    H235289   6.611   7.087   2.932
11802TIP3   OH235290   6.350   7.044   2.575
11802TIP3    H135291   6.373   7.111   2.509
11802TIP3    H235292   6.316   7.101   2.648
11803TIP3   OH235293   7.018   7.196   2.812
11803TIP3    H135294   7.071   7.251   2.752
11803TIP3    H235295   7.025   7.244   2.895
11804TIP3   OH235296   7.549   7.355   2.798
11804TIP3    H135297   7.557   7.316   2.710
11804TIP3    H235298   7.539   7.275   2.855
11805TIP3   OH235299   7.585   7.276   2.360
11805TIP3    H135300   7.498   7.317   2.373
11805TIP3    H235301   7.572   7.190   2.406
11806TIP3   OH235302   6.069   8.613   2.360
11806TIP3    H135303   5.983   8.585   2.325
11806TIP3    H235304   6.063   8.708   2.344
11807TIP3   OH235305   6.473   7.207   2.342
11807TIP3    H135306   6.544   7.146   2.320
11807TIP3    H235307   6.525   7.279   2.384
11808TIP3   OH235308   6.981   7.378   2.442
11808TIP3    H135309   7.041   7.333   2.504
11808TIP3    H235310   7.001   7.471   2.467
11809TIP3   OH235311   6.841   8.801   1.946
11809TIP3    H135312   6.929   8.825   1.909
11809TIP3    H235313   6.819   8.728   1.884
11810TIP3   OH235314   7.549   8.917   2.035
11810TIP3    H135315   7.542   8.820   2.021
11810TIP3    H235316   7.510   8.951   1.952
11811TIP3   OH235317   6.774   7.455   3.822
11811TIP3    H135318   6.737   7.386   3.880
11811TIP3    H235319   6.868   7.453   3.852
11812TIP3   OH235320   7.022   7.449   3.941
11812TIP3    H135321   7.109   7.420   3.909
11812TIP3    H235322   7.006   7.382   4.011
11813TIP3   OH235323   6.140   8.633   2.001
11813TIP3    H135324   6.146   8.670   2.090
11813TIP3    H235325   6.231   8.596   1.987
11814TIP3   OH235326   7.850   7.507   3.733
11814TIP3    H135327   7.866   7.483   3.827
11814TIP3    H235328   7.941   7.509   3.698
11815TIP3   OH235329   7.783   9.063   3.224
11815TIP3    H135330   7.705   9.032   3.174
11815TIP3    H235331   7.764   9.159   3.226
11816TIP3   OH235332   8.353   8.324   2.732
11816TIP3    H135333   8.379   8.260   2.801
11816TIP3    H235334   8.415   8.397   2.749
11817TIP3   OH235335   8.301   8.714   2.456
11817TIP3    H135336   8.319   8.617   2.458
11817TIP3    H235337   8.384   8.752   2.486
11818TIP3   OH235338   8.027   7.945   2.245
11818TIP3    H135339   7.979   8.028   2.260
11818TIP3    H235340   7.957   7.892   2.203
11819TIP3   OH235341   8.088   8.234   2.418
11819TIP3    H135342   8.136   8.155   2.452
11819TIP3    H235343   8.146   8.264   2.347
11820TIP3   OH235344   8.593   7.826   2.419
11820TIP3    H135345   8.579   7.898   2.353
11820TIP3    H235346   8.549   7.752   2.372
11821TIP3   OH235347   8.234   8.027   2.523
11821TIP3    H135348   8.317   8.005   2.571
11821TIP3    H235349   8.247   7.972   2.443
11822TIP3   OH235350   8.670   8.237   2.317
11822TIP3    H135351   8.766   8.216   2.307
11822TIP3    H235352   8.630   8.153   2.287
11823TIP3   OH235353   8.593   7.806   2.850
11823TIP3    H135354   8.533   7.842   2.782
11823TIP3    H235355   8.543   7.825   2.931
11824TIP3   OH235356   8.466   7.924   2.636
11824TIP3    H135357   8.531   7.994   2.658
11824TIP3    H235358   8.513   7.881   2.560
11825TIP3   OH235359   7.922   8.460   1.977
11825TIP3    H135360   7.876   8.496   1.900
11825TIP3    H235361   7.946   8.543   2.026
11826TIP3   OH235362   8.943   7.514   2.569
11826TIP3    H135363   8.934   7.420   2.593
11826TIP3    H235364   8.866   7.552   2.617
11827TIP3   OH235365   8.431   8.345   2.223
11827TIP3    H135366   8.402   8.309   2.136
11827TIP3    H235367   8.524   8.315   2.224
11828TIP3   OH235368   8.611   8.354   2.559
11828TIP3    H135369   8.611   8.314   2.469
11828TIP3    H235370   8.588   8.446   2.538
11829TIP3   OH235371   8.488   8.451   2.979
11829TIP3    H135372   8.493   8.536   3.028
11829TIP3    H235373   8.394   8.428   2.997
11830TIP3   OH235374   8.332   8.211   2.000
11830TIP3    H135375   8.260   8.254   1.948
11830TIP3    H235376   8.292   8.126   2.022
11831TIP3   OH235377   8.102   8.589   2.920
11831TIP3    H135378   8.036   8.568   2.851
11831TIP3    H235379   8.138   8.501   2.943
11832TIP3   OH235380   7.969   8.785   2.558
11832TIP3    H135381   8.062   8.777   2.531
11832TIP3    H235382   7.970   8.862   2.616
11833TIP3   OH235383   8.300   8.773   2.917
11833TIP3    H135384   8.352   8.741   2.993
11833TIP3    H235385   8.234   8.701   2.909
11834TIP3   OH235386   8.710   7.600   2.695
11834TIP3    H135387   8.620   7.573   2.669
11834TIP3    H235388   8.689   7.684   2.740
11835TIP3   OH235389   9.249   7.709   2.875
11835TIP3    H135390   9.324   7.696   2.936
11835TIP3    H235391   9.172   7.703   2.934
11836TIP3   OH235392   8.853   7.634   1.669
11836TIP3    H135393   8.813   7.640   1.759
11836TIP3    H235394   8.805   7.557   1.634
11837TIP3   OH235395   8.638   8.126   2.711
11837TIP3    H135396   8.585   8.138   2.792
11837TIP3    H235397   8.619   8.209   2.661
11838TIP3   OH235398   8.530   8.011   2.229
11838TIP3    H135399   8.438   7.981   2.243
11838TIP3    H235400   8.547   7.972   2.140
11839TIP3   OH235401   8.464   8.146   2.924
11839TIP3    H135402   8.492   8.205   2.995
11839TIP3    H235403   8.455   8.061   2.972
11840TIP3   OH235404   8.506   7.620   1.636
11840TIP3    H135405   8.499   7.620   1.734
11840TIP3    H235406   8.427   7.672   1.611
11841TIP3   OH235407   8.057   7.669   2.503
11841TIP3    H135408   8.133   7.701   2.556
11841TIP3    H235409   8.098   7.638   2.421
11842TIP3   OH235410   8.027   7.649   2.021
11842TIP3    H135411   8.074   7.687   1.943
11842TIP3    H235412   7.967   7.724   2.041
11843TIP3   OH235413   8.839   7.841   2.287
11843TIP3    H135414   8.765   7.831   2.350
11843TIP3    H235415   8.915   7.812   2.342
11844TIP3   OH235416   8.291   7.883   2.296
11844TIP3    H135417   8.197   7.888   2.267
11844TIP3    H235418   8.317   7.792   2.272
11845TIP3   OH235419   8.558   7.878   1.987
11845TIP3    H135420   8.651   7.901   1.970
11845TIP3    H235421   8.513   7.900   1.902
11846TIP3   OH235422   8.397   7.905   1.765
11846TIP3    H135423   8.321   7.857   1.730
11846TIP3    H235424   8.429   7.948   1.684
11847TIP3   OH235425   8.466   8.685   3.123
11847TIP3    H135426   8.538   8.744   3.150
11847TIP3    H235427   8.408   8.689   3.202
11848TIP3   OH235428   8.459   7.644   2.263
11848TIP3    H135429   8.428   7.563   2.310
11848TIP3    H235430   8.511   7.607   2.190
11849TIP3   OH235431   8.912   8.030   2.693
11849TIP3    H135432   8.829   8.079   2.681
11849TIP3    H235433   8.980   8.099   2.694
11850TIP3   OH235434   8.355   8.448   2.459
11850TIP3    H135435   8.375   8.411   2.369
11850TIP3    H235436   8.366   8.370   2.516
11851TIP3   OH235437   8.230   8.381   3.057
11851TIP3    H135438   8.250   8.372   3.152
11851TIP3    H235439   8.159   8.316   3.045
11852TIP3   OH235440   8.010   8.073   1.773
11852TIP3    H135441   8.056   8.158   1.791
11852TIP3    H235442   7.934   8.079   1.835
11853TIP3   OH235443   8.437   7.892   3.065
11853TIP3    H135444   8.341   7.893   3.083
11853TIP3    H235445   8.470   7.836   3.138
11854TIP3   OH235446   8.148   8.963   2.772
11854TIP3    H135447   8.172   8.881   2.818
11854TIP3    H235448   8.212   9.023   2.816
11855TIP3   OH235449   8.130   8.320   1.850
11855TIP3    H135450   8.066   8.374   1.901
11855TIP3    H235451   8.194   8.386   1.818
11856TIP3   OH235452   8.842   7.879   2.018
11856TIP3    H135453   8.924   7.928   2.007
11856TIP3    H235454   8.837   7.875   2.117
11857TIP3   OH235455   8.980   7.619   2.124
11857TIP3    H135456   8.966   7.678   2.201
11857TIP3    H235457   9.047   7.673   2.077
11858TIP3   OH235458   8.496   7.611   1.912
11858TIP3    H135459   8.498   7.702   1.947
11858TIP3    H235460   8.592   7.590   1.919
11859TIP3   OH235461   8.063   7.804   1.798
11859TIP3    H135462   8.061   7.902   1.793
11859TIP3    H235463   7.986   7.780   1.745
11860TIP3   OH235464   8.444   7.524   2.669
11860TIP3    H135465   8.417   7.489   2.582
11860TIP3    H235466   8.437   7.444   2.726
11861TIP3   OH235467   7.958   8.716   2.066
11861TIP3    H135468   7.895   8.778   2.106
11861TIP3    H235469   7.967   8.753   1.977
11862TIP3   OH235470   8.116   9.259   3.167
11862TIP3    H135471   8.212   9.247   3.157
11862TIP3    H235472   8.087   9.169   3.143
11863TIP3   OH235473   8.274   8.687   3.322
11863TIP3    H135474   8.287   8.591   3.332
11863TIP3    H235475   8.186   8.690   3.277
11864TIP3   OH235476   8.396   8.420   3.302
11864TIP3    H135477   8.472   8.364   3.284
11864TIP3    H235478   8.420   8.455   3.391
11865TIP3   OH235479   8.445   8.206   1.711
11865TIP3    H135480   8.414   8.177   1.798
11865TIP3    H235481   8.518   8.145   1.691
11866TIP3   OH235482   8.721   8.305   2.957
11866TIP3    H135483   8.647   8.366   2.972
11866TIP3    H235484   8.735   8.311   2.862
11867TIP3   OH235485   8.839   8.092   3.095
11867TIP3    H135486   8.847   8.012   3.039
11867TIP3    H235487   8.806   8.159   3.031
11868TIP3   OH235488   8.849   7.877   2.909
11868TIP3    H135489   8.882   7.921   2.827
11868TIP3    H235490   8.758   7.854   2.884
11869TIP3   OH235491   8.723   8.210   3.318
11869TIP3    H135492   8.659   8.139   3.335
11869TIP3    H235493   8.763   8.180   3.233
11870TIP3   OH235494   8.986   7.644   2.968
11870TIP3    H135495   8.937   7.727   2.948
11870TIP3    H235496   8.917   7.576   2.956
11871TIP3   OH235497   9.068   8.214   3.218
11871TIP3    H135498   9.073   8.155   3.295
11871TIP3    H235499   9.000   8.170   3.165
11872TIP3   OH235500   8.569   7.988   3.376
11872TIP3    H135501   8.580   7.898   3.340
11872TIP3    H235502   8.607   7.976   3.466
11873TIP3   OH235503   9.077   7.652   3.225
11873TIP3    H135504   9.150   7.586   3.221
11873TIP3    H235505   9.043   7.646   3.134
11874TIP3   OH235506   9.137   7.863   3.385
11874TIP3    H135507   9.121   7.792   3.319
11874TIP3    H235508   9.057   7.919   3.376
11875TIP3   OH235509   7.845   8.480   1.693
11875TIP3    H135510   7.939   8.505   1.683
11875TIP3    H235511   7.844   8.389   1.656
11876TIP3   OH235512   7.744   9.091   2.117
11876TIP3    H135513   7.685   9.023   2.079
11876TIP3    H235514   7.804   9.037   2.172
11877TIP3   OH235515   7.891   8.937   2.292
11877TIP3    H135516   7.891   8.869   2.361
11877TIP3    H235517   7.932   9.011   2.338
11878TIP3   OH235518   8.085   8.350   2.671
11878TIP3    H135519   8.081   8.320   2.578
11878TIP3    H235520   8.182   8.351   2.685
11879TIP3   OH235521   8.303   8.040   3.340
11879TIP3    H135522   8.401   8.034   3.346
11879TIP3    H235523   8.279   7.955   3.383
11880TIP3   OH235524   8.263   7.733   2.679
11880TIP3    H135525   8.324   7.657   2.686
11880TIP3    H235526   8.326   7.806   2.670
11881TIP3   OH235527   8.065   8.006   2.746
11881TIP3    H135528   8.116   7.998   2.663
11881TIP3    H235529   8.096   8.091   2.780
11882TIP3   OH235530   8.051   7.510   2.250
11882TIP3    H135531   7.957   7.506   2.275
11882TIP3    H235532   8.048   7.567   2.171
11883TIP3   OH235533   8.266   7.582   3.063
11883TIP3    H135534   8.219   7.589   3.147
11883TIP3    H235535   8.202   7.624   3.002
11884TIP3   OH235536   8.298   9.027   3.192
11884TIP3    H135537   8.227   8.998   3.134
11884TIP3    H235538   8.282   8.975   3.272
11885TIP3   OH235539   9.047   7.712   2.394
11885TIP3    H135540   9.034   7.644   2.463
11885TIP3    H235541   9.143   7.710   2.379
11886TIP3   OH235542   8.361   7.429   2.420
11886TIP3    H135543   8.268   7.396   2.421
11886TIP3    H235544   8.410   7.344   2.417
11887TIP3   OH235545   8.146   7.300   2.068
11887TIP3    H135546   8.178   7.356   1.995
11887TIP3    H235547   8.121   7.367   2.135
11888TIP3   OH235548   8.803   7.463   2.306
11888TIP3    H135549   8.861   7.510   2.245
11888TIP3    H235550   8.833   7.494   2.392
11889TIP3   OH235551   9.427   7.501   2.236
11889TIP3    H135552   9.365   7.566   2.201
11889TIP3    H235553   9.375   7.464   2.311
11890TIP3   OH235554   7.832   8.864   1.857
11890TIP3    H135555   7.757   8.814   1.823
11890TIP3    H235556   7.811   8.951   1.818
11891TIP3   OH235557   8.265   7.459   1.832
11891TIP3    H135558   8.314   7.396   1.775
11891TIP3    H235559   8.338   7.512   1.869
11892TIP3   OH235560   8.770   7.631   1.935
11892TIP3    H135561   8.834   7.589   1.994
11892TIP3    H235562   8.790   7.725   1.957
11893TIP3   OH235563   8.569   7.709   3.307
11893TIP3    H135564   8.536   7.640   3.368
11893TIP3    H235565   8.664   7.711   3.335
11894TIP3   OH235566   8.817   7.709   3.428
11894TIP3    H135567   8.903   7.686   3.387
11894TIP3    H235568   8.809   7.638   3.495
11895TIP3   OH235569   9.584   7.774   3.239
11895TIP3    H135570   9.618   7.758   3.329
11895TIP3    H235571   9.652   7.725   3.188
11896TIP3   OH235572   0.541   8.533   4.619
11896TIP3    H135573   0.498   8.617   4.638
11896TIP3    H235574   0.550   8.540   4.523
11897TIP3   OH235575   0.798   8.439   5.314
11897TIP3    H135576   0.854   8.373   5.267
11897TIP3    H235577   0.760   8.488   5.238
11898TIP3   OH235578   0.664   8.572   5.110
11898TIP3    H135579   0.575   8.606   5.121
11898TIP3    H235580   0.647   8.495   5.052
11899TIP3   OH235581   0.292   8.224   3.688
11899TIP3    H135582   0.334   8.146   3.647
11899TIP3    H235583   0.365   8.289   3.687
11900TIP3   OH235584   0.568   8.337   4.980
11900TIP3    H135585   0.475   8.338   4.954
11900TIP3    H235586   0.589   8.242   4.971
11901TIP3   OH235587   0.374   8.221   4.240
11901TIP3    H135588   0.462   8.183   4.221
11901TIP3    H235589   0.397   8.314   4.255
11902TIP3   OH235590   0.462   8.729   3.932
11902TIP3    H135591   0.453   8.820   3.966
11902TIP3    H235592   0.414   8.678   4.000
11903TIP3   OH235593   2.314   8.772   4.105
11903TIP3    H135594   2.348   8.852   4.148
11903TIP3    H235595   2.337   8.789   4.012
11904TIP3   OH235596   1.716   8.957   4.133
11904TIP3    H135597   1.756   8.871   4.156
11904TIP3    H235598   1.677   8.935   4.046
11905TIP3   OH235599   1.054   8.612   4.105
11905TIP3    H135600   1.035   8.686   4.043
11905TIP3    H235601   1.005   8.540   4.062
11906TIP3   OH235602   1.747   8.699   3.729
11906TIP3    H135603   1.820   8.685   3.794
11906TIP3    H235604   1.798   8.737   3.655
11907TIP3   OH235605   0.674   8.797   4.214
11907TIP3    H135606   0.757   8.792   4.265
11907TIP3    H235607   0.700   8.757   4.130
11908TIP3   OH235608   1.143   9.016   3.984
11908TIP3    H135609   1.226   8.979   4.018
11908TIP3    H235610   1.091   8.937   3.961
11909TIP3   OH235611   2.401   8.973   4.276
11909TIP3    H135612   2.322   9.023   4.247
11909TIP3    H235613   2.398   8.989   4.372
11910TIP3   OH235614   1.050   8.597   4.541
11910TIP3    H135615   0.986   8.628   4.473
11910TIP3    H235616   0.998   8.613   4.623
11911TIP3   OH235617   1.957   8.707   3.900
11911TIP3    H135618   1.946   8.660   3.983
11911TIP3    H235619   2.006   8.787   3.928
11912TIP3   OH235620   0.919   8.707   4.325
11912TIP3    H135621   0.979   8.782   4.341
11912TIP3    H235622   0.966   8.664   4.250
11913TIP3   OH235623   2.108   8.675   4.273
11913TIP3    H135624   2.020   8.700   4.240
11913TIP3    H235625   2.168   8.706   4.202
11914TIP3   OH235626   1.405   8.315   4.255
11914TIP3    H135627   1.391   8.220   4.274
11914TIP3    H235628   1.327   8.354   4.302
11915TIP3   OH235629   1.299   8.826   3.257
11915TIP3    H135630   1.344   8.900   3.300
11915TIP3    H235631   1.364   8.797   3.191
11916TIP3   OH235632   1.947   9.198   4.377
11916TIP3    H135633   1.950   9.286   4.335
11916TIP3    H235634   1.856   9.170   4.350
11917TIP3   OH235635   2.038   8.258   3.356
11917TIP3    H135636   1.956   8.277   3.408
11917TIP3    H235637   2.050   8.343   3.309
11918TIP3   OH235638   2.166   9.166   4.567
11918TIP3    H135639   2.084   9.157   4.515
11918TIP3    H235640   2.194   9.073   4.572
11919TIP3   OH235641   1.167   8.392   4.384
11919TIP3    H135642   1.078   8.360   4.358
11919TIP3    H235643   1.142   8.474   4.430
11920TIP3   OH235644   1.700   8.508   4.578
11920TIP3    H135645   1.769   8.478   4.641
11920TIP3    H235646   1.617   8.486   4.624
11921TIP3   OH235647   1.942   8.926   4.503
11921TIP3    H135648   1.893   8.919   4.588
11921TIP3    H235649   1.906   9.006   4.465
11922TIP3   OH235650   1.315   8.437   3.355
11922TIP3    H135651   1.281   8.437   3.446
11922TIP3    H235652   1.274   8.355   3.322
11923TIP3   OH235653   1.088   8.919   4.391
11923TIP3    H135654   1.029   8.923   4.469
11923TIP3    H235655   1.058   8.996   4.339
11924TIP3   OH235656   0.983   8.792   3.916
11924TIP3    H135657   0.890   8.767   3.930
11924TIP3    H235658   0.997   8.755   3.826
11925TIP3   OH235659   1.483   8.880   3.647
11925TIP3    H135660   1.402   8.931   3.625
11925TIP3    H235661   1.522   8.863   3.559
11926TIP3   OH235662   1.653   9.148   4.725
11926TIP3    H135663   1.630   9.076   4.788
11926TIP3    H235664   1.745   9.165   4.750
11927TIP3   OH235665   1.621   8.894   3.884
11927TIP3    H135666   1.560   8.910   3.809
11927TIP3    H235667   1.666   8.815   3.847
11928TIP3   OH235668   0.942   8.935   4.633
11928TIP3    H135669   0.887   8.984   4.695
11928TIP3    H235670   0.920   8.843   4.659
11929TIP3   OH235671   0.967   8.414   3.323
11929TIP3    H135672   0.961   8.412   3.421
11929TIP3    H235673   0.889   8.466   3.301
11930TIP3   OH235674   0.516   8.463   4.163
11930TIP3    H135675   0.572   8.497   4.236
11930TIP3    H235676   0.579   8.408   4.116
11931TIP3   OH235677   0.481   8.454   3.719
11931TIP3    H135678   0.518   8.475   3.631
11931TIP3    H235679   0.456   8.544   3.746
11932TIP3   OH235680   1.692   9.140   4.330
11932TIP3    H135681   1.693   9.075   4.256
11932TIP3    H235682   1.619   9.102   4.383
11933TIP3   OH235683   1.310   8.607   3.976
11933TIP3    H135684   1.227   8.611   4.027
11933TIP3    H235685   1.376   8.620   4.046
11934TIP3   OH235686   0.741   8.674   3.973
11934TIP3    H135687   0.647   8.666   3.947
11934TIP3    H235688   0.775   8.583   3.962
11935TIP3   OH235689   1.015   8.666   3.674
11935TIP3    H135690   1.106   8.689   3.649
11935TIP3    H235691   0.963   8.690   3.593
11936TIP3   OH235692   1.797   8.693   4.180
11936TIP3    H135693   1.764   8.703   4.272
11936TIP3    H235694   1.733   8.629   4.145
11937TIP3   OH235695   0.848   8.684   3.452
11937TIP3    H135696   0.786   8.651   3.384
11937TIP3    H235697   0.897   8.751   3.400
11938TIP3   OH235698   1.386   8.921   4.071
11938TIP3    H135699   1.470   8.900   4.028
11938TIP3    H235700   1.403   8.904   4.164
11939TIP3   OH235701   0.909   8.434   3.956
11939TIP3    H135702   0.877   8.354   4.003
11939TIP3    H235703   0.960   8.395   3.884
11940TIP3   OH235704   1.364   8.833   4.369
11940TIP3    H135705   1.276   8.875   4.366
11940TIP3    H235706   1.419   8.901   4.414
11941TIP3   OH235707   1.560   8.555   3.319
11941TIP3    H135708   1.465   8.531   3.332
11941TIP3    H235709   1.563   8.650   3.343
11942TIP3   OH235710   1.632   8.814   3.408
11942TIP3    H135711   1.723   8.798   3.440
11942TIP3    H235712   1.641   8.902   3.368
11943TIP3   OH235713   1.390   9.177   4.837
11943TIP3    H135714   1.312   9.225   4.801
11943TIP3    H235715   1.438   9.155   4.755
11944TIP3   OH235716   2.071   8.871   3.267
11944TIP3    H135717   2.007   8.834   3.201
11944TIP3    H235718   2.077   8.962   3.235
11945TIP3   OH235719   0.898   8.679   4.761
11945TIP3    H135720   0.803   8.669   4.775
11945TIP3    H235721   0.929   8.609   4.822
11946TIP3   OH235722   1.724   8.746   4.442
11946TIP3    H135723   1.809   8.775   4.479
11946TIP3    H235724   1.708   8.663   4.492
11947TIP3   OH235725   1.610   8.491   3.602
11947TIP3    H135726   1.594   8.518   3.510
11947TIP3    H235727   1.649   8.573   3.641
11948TIP3   OH235728   1.302   8.672   3.707
11948TIP3    H135729   1.369   8.743   3.694
11948TIP3    H235730   1.301   8.664   3.804
11949TIP3   OH235731   1.556   8.986   4.509
11949TIP3    H135732   1.585   9.033   4.589
11949TIP3    H235733   1.607   8.904   4.512
11950TIP3   OH235734   1.439   8.399   3.808
11950TIP3    H135735   1.427   8.476   3.867
11950TIP3    H235736   1.501   8.436   3.741
11951TIP3   OH235737   0.952   8.399   3.598
11951TIP3    H135738   0.949   8.491   3.630
11951TIP3    H235739   1.049   8.382   3.608
11952TIP3   OH235740   2.210   8.897   4.491
11952TIP3    H135741   2.113   8.892   4.504
11952TIP3    H235742   2.218   8.843   4.411
11953TIP3   OH235743   1.849   9.069   3.861
11953TIP3    H135744   1.777   9.013   3.894
11953TIP3    H235745   1.923   9.043   3.920
11954TIP3   OH235746   0.504   8.592   3.486
11954TIP3    H135747   0.526   8.685   3.470
11954TIP3    H235748   0.434   8.572   3.423
11955TIP3   OH235749   0.905   8.309   4.357
11955TIP3    H135750   0.871   8.278   4.271
11955TIP3    H235751   0.892   8.229   4.412
11956TIP3   OH235752   0.889   9.198   4.962
11956TIP3    H135753   0.896   9.108   4.995
11956TIP3    H235754   0.864   9.249   5.042
11957TIP3   OH235755   1.204   9.044   4.608
11957TIP3    H135756   1.112   9.023   4.634
11957TIP3    H235757   1.200   9.033   4.512
11958TIP3   OH235758   1.022   8.823   3.292
11958TIP3    H135759   0.993   8.768   3.216
11958TIP3    H235760   1.119   8.808   3.293
11959TIP3   OH235761   1.313   8.865   4.790
11959TIP3    H135762   1.314   8.781   4.739
11959TIP3    H235763   1.281   8.928   4.722
11960TIP3   OH235764   1.309   8.665   4.589
11960TIP3    H135765   1.335   8.711   4.506
11960TIP3    H235766   1.215   8.645   4.571
11961TIP3   OH235767   1.926   9.180   4.837
11961TIP3    H135768   1.939   9.089   4.867
11961TIP3    H235769   2.017   9.205   4.816
11962TIP3   OH235770   1.180   8.995   5.012
11962TIP3    H135771   1.116   8.921   5.021
11962TIP3    H235772   1.221   8.976   4.926
11963TIP3   OH235773   1.441   8.432   4.654
11963TIP3    H135774   1.392   8.514   4.632
11963TIP3    H235775   1.372   8.364   4.644
11964TIP3   OH235776   1.570   8.931   4.872
11964TIP3    H135777   1.558   8.925   4.968
11964TIP3    H235778   1.479   8.909   4.845
11965TIP3   OH235779   1.808   8.888   4.732
11965TIP3    H135780   1.730   8.882   4.791
11965TIP3    H235781   1.880   8.853   4.789
11966TIP3   OH235782   2.040   8.830   4.878
11966TIP3    H135783   2.051   8.734   4.896
11966TIP3    H235784   2.032   8.868   4.968
11967TIP3   OH235785   1.028   8.772   5.064
11967TIP3    H135786   1.029   8.681   5.029
11967TIP3    H235787   1.063   8.758   5.155
11968TIP3   OH235788   1.534   8.445   4.912
11968TIP3    H135789   1.601   8.374   4.908
11968TIP3    H235790   1.494   8.438   4.823
11969TIP3   OH235791   1.601   8.661   5.070
11969TIP3    H135792   1.578   8.589   5.007
11969TIP3    H235793   1.522   8.719   5.065
11970TIP3   OH235794   1.903   8.797   3.063
11970TIP3    H135795   1.880   8.816   2.971
11970TIP3    H235796   1.881   8.701   3.066
11971TIP3   OH235797   1.943   9.047   3.609
11971TIP3    H135798   1.942   8.951   3.619
11971TIP3    H235799   1.918   9.074   3.700
11972TIP3   OH235800   2.377   9.318   4.487
11972TIP3    H135801   2.301   9.264   4.518
11972TIP3    H235802   2.449   9.251   4.495
11973TIP3   OH235803   1.849   8.531   3.055
11973TIP3    H135804   1.923   8.497   3.107
11973TIP3    H235805   1.775   8.471   3.077
11974TIP3   OH235806   1.899   8.773   3.505
11974TIP3    H135807   1.942   8.685   3.519
11974TIP3    H235808   1.959   8.811   3.440
11975TIP3   OH235809   2.068   8.953   3.995
11975TIP3    H135810   2.151   8.983   3.952
11975TIP3    H235811   2.087   8.987   4.085
11976TIP3   OH235812   2.153   9.092   4.220
11976TIP3    H135813   2.078   9.121   4.277
11976TIP3    H235814   2.190   9.177   4.190
11977TIP3   OH235815   0.766   8.839   5.051
11977TIP3    H135816   0.862   8.820   5.045
11977TIP3    H235817   0.731   8.752   5.073
11978TIP3   OH235818   2.585   8.691   4.788
11978TIP3    H135819   2.648   8.626   4.750
11978TIP3    H235820   2.565   8.748   4.711
11979TIP3   OH235821   2.019   8.530   3.543
11979TIP3    H135822   2.066   8.516   3.628
11979TIP3    H235823   1.957   8.454   3.544
11980TIP3   OH235824   0.711   8.510   4.350
11980TIP3    H135825   0.776   8.441   4.373
11980TIP3    H235826   0.766   8.590   4.354
11981TIP3   OH235827   0.546   8.793   4.462
11981TIP3    H135828   0.577   8.789   4.369
11981TIP3    H235829   0.513   8.884   4.467
11982TIP3   OH235830   2.464   8.838   4.589
11982TIP3    H135831   2.375   8.871   4.611
11982TIP3    H235832   2.440   8.759   4.535
11983TIP3   OH235833   2.096   8.469   3.176
11983TIP3    H135834   2.137   8.397   3.124
11983TIP3    H235835   2.165   8.538   3.174
11984TIP3   OH235836   0.508   8.282   3.923
11984TIP3    H135837   0.438   8.313   3.983
11984TIP3    H235838   0.505   8.349   3.852
11985TIP3   OH235839   0.743   8.439   4.785
11985TIP3    H135840   0.682   8.394   4.846
11985TIP3    H235841   0.682   8.455   4.710
11986TIP3   OH235842   2.361   8.593   4.475
11986TIP3    H135843   2.269   8.580   4.444
11986TIP3    H235844   2.396   8.501   4.465
11987TIP3   OH235845   1.571   8.511   4.098
11987TIP3    H135846   1.522   8.442   4.147
11987TIP3    H235847   1.639   8.459   4.051
11988TIP3   OH235848   2.087   8.389   3.996
11988TIP3    H135849   2.123   8.443   3.922
11988TIP3    H235850   1.992   8.407   3.991
11989TIP3   OH235851   2.184   8.491   3.760
11989TIP3    H135852   2.258   8.440   3.723
11989TIP3    H235853   2.217   8.583   3.747
11990TIP3   OH235854   0.813   8.218   4.107
11990TIP3    H135855   0.723   8.179   4.111
11990TIP3    H235856   0.866   8.135   4.107
11991TIP3   OH235857   0.598   8.082   3.756
11991TIP3    H135858   0.630   8.140   3.684
11991TIP3    H235859   0.571   8.148   3.823
11992TIP3   OH235860   1.256   8.251   3.991
11992TIP3    H135861   1.315   8.301   3.932
11992TIP3    H235862   1.278   8.288   4.077
11993TIP3   OH235863   1.806   8.397   3.973
11993TIP3    H135864   1.801   8.356   3.886
11993TIP3    H235865   1.793   8.318   4.031
11994TIP3   OH235866   1.834   8.320   3.537
11994TIP3    H135867   1.747   8.363   3.552
11994TIP3    H235868   1.819   8.235   3.583
11995TIP3   OH235869   0.718   8.248   3.523
11995TIP3    H135870   0.767   8.185   3.467
11995TIP3    H235871   0.791   8.303   3.559
11996TIP3   OH235872   1.230   8.424   3.619
11996TIP3    H135873   1.288   8.378   3.681
11996TIP3    H235874   1.250   8.517   3.645
11997TIP3   OH235875   1.024   8.498   4.999
11997TIP3    H135876   0.986   8.431   5.058
11997TIP3    H235877   1.117   8.499   5.030
11998TIP3   OH235878   1.271   8.496   5.122
11998TIP3    H135879   1.356   8.471   5.082
11998TIP3    H235880   1.259   8.425   5.188
11999TIP3   OH235881   2.095   8.559   4.908
11999TIP3    H135882   2.113   8.527   4.999
11999TIP3    H235883   2.184   8.553   4.868
12000TIP3   OH235884   2.278   9.004   3.421
12000TIP3    H135885   2.237   9.076   3.472
12000TIP3    H235886   2.203   8.945   3.405
12001TIP3   OH235887   4.109   9.029   3.592
12001TIP3    H135888   4.141   9.107   3.641
12001TIP3    H235889   4.131   9.054   3.501
12002TIP3   OH235890   3.516   9.203   3.614
12002TIP3    H135891   3.558   9.118   3.640
12002TIP3    H235892   3.476   9.178   3.529
12003TIP3   OH235893   2.850   8.868   3.591
12003TIP3    H135894   2.831   8.943   3.530
12003TIP3    H235895   2.798   8.797   3.547
12004TIP3   OH235896   3.541   8.951   3.221
12004TIP3    H135897   3.614   8.939   3.286
12004TIP3    H235898   3.589   8.993   3.148
12005TIP3   OH235899   2.473   9.057   3.709
12005TIP3    H135900   2.559   9.039   3.752
12005TIP3    H235901   2.489   9.020   3.620
12006TIP3   OH235902   2.937   9.272   3.475
12006TIP3    H135903   3.021   9.233   3.507
12006TIP3    H235904   2.884   9.194   3.450
12007TIP3   OH235905   4.193   9.227   3.767
12007TIP3    H135906   4.115   9.278   3.737
12007TIP3    H235907   4.209   9.268   3.854
12008TIP3   OH235908   2.846   8.852   4.027
12008TIP3    H135909   2.784   8.886   3.959
12008TIP3    H235910   2.793   8.870   4.108
12009TIP3   OH235911   3.753   8.966   3.389
12009TIP3    H135912   3.739   8.924   3.475
12009TIP3    H235913   3.801   9.047   3.415
12010TIP3   OH235914   2.712   8.957   3.810
12010TIP3    H135915   2.767   9.036   3.829
12010TIP3    H235916   2.765   8.918   3.736
12011TIP3   OH235917   3.905   8.924   3.755
12011TIP3    H135918   3.820   8.962   3.730
12011TIP3    H235919   3.966   8.960   3.688
12012TIP3   OH235920   3.199   8.570   3.740
12012TIP3    H135921   3.188   8.476   3.763
12012TIP3    H235922   3.123   8.610   3.788
12013TIP3   OH235923   3.099   9.077   2.749
12013TIP3    H135924   3.137   9.159   2.783
12013TIP3    H235925   3.161   9.055   2.677
12014TIP3   OH235926   3.745   9.440   3.878
12014TIP3    H135927   3.761   9.534   3.897
12014TIP3    H235928   3.649   9.446   3.858
12015TIP3   OH235929   3.834   8.515   2.843
12015TIP3    H135930   3.753   8.535   2.894
12015TIP3    H235931   3.847   8.598   2.793
12016TIP3   OH235932   3.975   9.415   4.059
12016TIP3    H135933   3.891   9.419   4.011
12016TIP3    H235934   3.994   9.319   4.056
12017TIP3   OH235935   2.962   8.648   3.869
12017TIP3    H135936   2.872   8.619   3.845
12017TIP3    H235937   2.940   8.730   3.917
12018TIP3   OH235938   3.498   8.762   4.065
12018TIP3    H135939   3.567   8.735   4.129
12018TIP3    H235940   3.415   8.742   4.113
12019TIP3   OH235941   3.732   9.176   3.981
12019TIP3    H135942   3.686   9.179   4.068
12019TIP3    H235943   3.722   9.267   3.948
12020TIP3   OH235944   3.111   8.696   2.843
12020TIP3    H135945   3.078   8.698   2.935
12020TIP3    H235946   3.071   8.614   2.810
12021TIP3   OH235947   2.877   9.165   3.856
12021TIP3    H135948   2.863   9.181   3.951
12021TIP3    H235949   2.883   9.256   3.822
12022TIP3   OH235950   2.779   9.048   3.402
12022TIP3    H135951   2.686   9.023   3.419
12022TIP3    H235952   2.792   9.010   3.313
12023TIP3   OH235953   3.278   9.135   3.132
12023TIP3    H135954   3.197   9.187   3.111
12023TIP3    H235955   3.315   9.117   3.043
12024TIP3   OH235956   3.445   9.412   4.224
12024TIP3    H135957   3.435   9.331   4.279
12024TIP3    H235958   3.541   9.427   4.235
12025TIP3   OH235959   3.411   9.148   3.371
12025TIP3    H135960   3.353   9.164   3.293
12025TIP3    H235961   3.458   9.070   3.335
12026TIP3   OH235962   2.707   9.186   4.114
12026TIP3    H135963   2.714   9.229   4.199
12026TIP3    H235964   2.685   9.094   4.140
12027TIP3   OH235965   2.766   8.671   2.813
12027TIP3    H135966   2.755   8.675   2.910
12027TIP3    H235967   2.690   8.725   2.784
12028TIP3   OH235968   2.306   8.716   3.672
12028TIP3    H135969   2.377   8.748   3.732
12028TIP3    H235970   2.355   8.679   3.598
12029TIP3   OH235971   2.279   8.692   3.196
12029TIP3    H135972   2.323   8.732   3.119
12029TIP3    H235973   2.218   8.764   3.221
12030TIP3   OH235974   3.444   9.399   3.782
12030TIP3    H135975   3.470   9.322   3.727
12030TIP3    H235976   3.395   9.353   3.853
12031TIP3   OH235977   3.103   8.861   3.460
12031TIP3    H135978   3.022   8.868   3.515
12031TIP3    H235979   3.171   8.879   3.527
12032TIP3   OH235980   2.539   8.933   3.467
12032TIP3    H135981   2.444   8.937   3.441
12032TIP3    H235982   2.563   8.840   3.449
12033TIP3   OH235983   2.813   8.920   3.160
12033TIP3    H135984   2.903   8.950   3.137
12033TIP3    H235985   2.760   8.945   3.081
12034TIP3   OH235986   3.594   8.943   3.664
12034TIP3    H135987   3.564   8.958   3.756
12034TIP3    H235988   3.525   8.883   3.632
12035TIP3   OH235989   2.645   8.935   2.942
12035TIP3    H135990   2.582   8.904   2.875
12035TIP3    H235991   2.695   9.002   2.891
12036TIP3   OH235992   3.181   9.175   3.555
12036TIP3    H135993   3.267   9.163   3.512
12036TIP3    H235994   3.202   9.166   3.649
12037TIP3   OH235995   2.705   8.688   3.442
12037TIP3    H135996   2.672   8.609   3.491
12037TIP3    H235997   2.759   8.649   3.373
12038TIP3   OH235998   3.164   9.087   3.860
12038TIP3    H135999   3.078   9.132   3.852
12038TIP3    H236000   3.221   9.154   3.903
12039TIP3   OH236001   3.358   8.810   2.809
12039TIP3    H136002   3.262   8.789   2.818
12039TIP3    H236003   3.362   8.906   2.828
12040TIP3   OH236004   3.425   9.068   2.896
12040TIP3    H136005   3.515   9.051   2.929
12040TIP3    H236006   3.435   9.151   2.848
12041TIP3   OH236007   3.161   9.451   4.275
12041TIP3    H136008   3.200   9.539   4.260
12041TIP3    H236009   3.235   9.393   4.252
12042TIP3   OH236010   2.682   8.931   4.242
12042TIP3    H136011   2.585   8.933   4.255
12042TIP3    H236012   2.712   8.874   4.315
12043TIP3   OH236013   3.521   8.999   3.922
12043TIP3    H136014   3.602   9.039   3.958
12043TIP3    H236015   3.511   8.919   3.979
12044TIP3   OH236016   3.408   8.745   3.088
12044TIP3    H136017   3.392   8.775   2.996
12044TIP3    H236018   3.445   8.826   3.130
12045TIP3   OH236019   3.099   8.926   3.191
12045TIP3    H136020   3.165   8.997   3.180
12045TIP3    H236021   3.097   8.917   3.289
12046TIP3   OH236022   3.355   9.245   3.998
12046TIP3    H136023   3.386   9.299   4.073
12046TIP3    H236024   3.411   9.166   4.004
12047TIP3   OH236025   3.237   8.653   3.294
12047TIP3    H136026   3.231   8.726   3.358
12047TIP3    H236027   3.299   8.693   3.228
12048TIP3   OH236028   2.752   8.654   3.087
12048TIP3    H136029   2.739   8.746   3.118
12048TIP3    H236030   2.849   8.647   3.099
12049TIP3   OH236031   4.002   9.149   3.984
12049TIP3    H136032   3.904   9.139   3.989
12049TIP3    H236033   4.019   9.115   3.896
12050TIP3   OH236034   3.643   9.326   3.347
12050TIP3    H136035   3.574   9.278   3.393
12050TIP3    H236036   3.720   9.310   3.406
12051TIP3   OH236037   2.304   8.850   2.971
12051TIP3    H136038   2.320   8.945   2.965
12051TIP3    H236039   2.218   8.838   2.930
12052TIP3   OH236040   2.698   8.567   3.844
12052TIP3    H136041   2.666   8.532   3.759
12052TIP3    H236042   2.688   8.489   3.904
12053TIP3   OH236043   2.660   9.477   4.430
12053TIP3    H136044   2.692   9.387   4.451
12053TIP3    H236045   2.651   9.516   4.520
12054TIP3   OH236046   2.992   9.267   4.087
12054TIP3    H136047   2.926   9.331   4.122
12054TIP3    H236048   3.031   9.317   4.013
12055TIP3   OH236049   2.821   9.075   2.789
12055TIP3    H136050   2.791   9.033   2.705
12055TIP3    H236051   2.918   9.068   2.782
12056TIP3   OH236052   3.105   9.119   4.282
12056TIP3    H136053   3.113   9.033   4.235
12056TIP3    H236054   3.067   9.173   4.210
12057TIP3   OH236055   3.106   8.920   4.078
12057TIP3    H136056   3.133   8.969   3.998
12057TIP3    H236057   3.011   8.903   4.059
12058TIP3   OH236058   3.706   9.428   4.334
12058TIP3    H136059   3.779   9.366   4.331
12058TIP3    H236060   3.741   9.508   4.289
12059TIP3   OH236061   2.963   9.261   4.488
12059TIP3    H136062   2.903   9.186   4.505
12059TIP3    H236063   3.010   9.230   4.408
12060TIP3   OH236064   3.237   8.687   4.140
12060TIP3    H136065   3.188   8.769   4.118
12060TIP3    H236066   3.167   8.620   4.131
12061TIP3   OH236067   3.360   9.196   4.362
12061TIP3    H136068   3.357   9.177   4.458
12061TIP3    H236069   3.271   9.162   4.337
12062TIP3   OH236070   3.601   9.143   4.216
12062TIP3    H136071   3.528   9.139   4.280
12062TIP3    H236072   3.678   9.117   4.271
12063TIP3   OH236073   3.830   9.087   4.367
12063TIP3    H136074   3.843   8.992   4.384
12063TIP3    H236075   3.826   9.125   4.457
12064TIP3   OH236076   2.817   9.033   4.550
12064TIP3    H136077   2.822   8.942   4.516
12064TIP3    H236078   2.856   9.021   4.639
12065TIP3   OH236079   3.330   8.703   4.398
12065TIP3    H136080   3.398   8.632   4.396
12065TIP3    H236081   3.291   8.693   4.309
12066TIP3   OH236082   3.397   8.917   4.556
12066TIP3    H136083   3.375   8.844   4.493
12066TIP3    H236084   3.317   8.973   4.551
12067TIP3   OH236085   3.694   9.069   2.562
12067TIP3    H136086   3.691   9.081   2.467
12067TIP3    H236087   3.678   8.973   2.568
12068TIP3   OH236088   3.734   9.297   3.100
12068TIP3    H136089   3.742   9.203   3.121
12068TIP3    H236090   3.713   9.331   3.190
12069TIP3   OH236091   4.175   9.577   3.971
12069TIP3    H136092   4.100   9.526   4.009
12069TIP3    H236093   4.246   9.511   3.981
12070TIP3   OH236094   3.646   8.799   2.551
12070TIP3    H136095   3.724   8.759   2.595
12070TIP3    H236096   3.576   8.733   2.565
12071TIP3   OH236097   3.687   9.022   2.997
12071TIP3    H136098   3.723   8.932   3.016
12071TIP3    H236099   3.758   9.054   2.941
12072TIP3   OH236100   3.864   9.209   3.477
12072TIP3    H136101   3.950   9.238   3.438
12072TIP3    H236102   3.878   9.247   3.566
12073TIP3   OH236103   3.944   9.342   3.706
12073TIP3    H136104   3.869   9.374   3.761
12073TIP3    H236105   3.994   9.426   3.693
12074TIP3   OH236106   2.550   9.102   4.533
12074TIP3    H136107   2.647   9.088   4.529
12074TIP3    H236108   2.524   9.013   4.564
12075TIP3   OH236109   4.383   8.948   4.277
12075TIP3    H136110   4.445   8.883   4.236
12075TIP3    H236111   4.358   9.004   4.200
12076TIP3   OH236112   3.814   8.786   3.031
12076TIP3    H136113   3.863   8.773   3.115
12076TIP3    H236114   3.755   8.707   3.032
12077TIP3   OH236115   2.508   8.770   3.854
12077TIP3    H136116   2.573   8.698   3.864
12077TIP3    H236117   2.567   8.847   3.844
12078TIP3   OH236118   2.312   9.060   3.929
12078TIP3    H136119   2.361   9.050   3.845
12078TIP3    H236120   2.343   9.147   3.957
12079TIP3   OH236121   4.258   9.092   4.081
12079TIP3    H136122   4.170   9.129   4.102
12079TIP3    H236123   4.230   9.017   4.023
12080TIP3   OH236124   3.891   8.722   2.662
12080TIP3    H136125   3.931   8.648   2.612
12080TIP3    H236126   3.962   8.790   2.659
12081TIP3   OH236127   2.299   8.545   3.422
12081TIP3    H136128   2.207   8.547   3.455
12081TIP3    H236129   2.296   8.607   3.347
12082TIP3   OH236130   2.520   8.635   4.241
12082TIP3    H136131   2.468   8.627   4.323
12082TIP3    H236132   2.452   8.671   4.180
12083TIP3   OH236133   4.157   8.850   3.961
12083TIP3    H136134   4.066   8.842   3.930
12083TIP3    H236135   4.190   8.758   3.951
12084TIP3   OH236136   3.362   8.764   3.575
12084TIP3    H136137   3.318   8.697   3.630
12084TIP3    H236138   3.438   8.715   3.538
12085TIP3   OH236139   3.883   8.638   3.476
12085TIP3    H136140   3.921   8.698   3.408
12085TIP3    H236141   3.790   8.668   3.480
12086TIP3   OH236142   3.982   8.756   3.245
12086TIP3    H136143   4.056   8.702   3.211
12086TIP3    H236144   4.016   8.847   3.234
12087TIP3   OH236145   2.610   8.472   3.594
12087TIP3    H136146   2.518   8.439   3.599
12087TIP3    H236147   2.659   8.388   3.594
12088TIP3   OH236148   2.398   8.346   3.236
12088TIP3    H136149   2.424   8.411   3.168
12088TIP3    H236150   2.368   8.405   3.308
12089TIP3   OH236151   3.054   8.505   3.476
12089TIP3    H136152   3.111   8.561   3.422
12089TIP3    H236153   3.070   8.542   3.565
12090TIP3   OH236154   3.597   8.653   3.462
12090TIP3    H136155   3.604   8.612   3.375
12090TIP3    H236156   3.585   8.574   3.520
12091TIP3   OH236157   3.629   8.577   3.023
12091TIP3    H136158   3.545   8.622   3.041
12091TIP3    H236159   3.616   8.493   3.072
12092TIP3   OH236160   2.510   8.509   3.012
12092TIP3    H136161   2.557   8.449   2.951
12092TIP3    H236162   2.582   8.564   3.048
12093TIP3   OH236163   3.029   8.676   3.109
12093TIP3    H136164   3.093   8.642   3.175
12093TIP3    H236165   3.040   8.772   3.129
12094TIP3   OH236166   2.817   8.757   4.490
12094TIP3    H136167   2.784   8.684   4.546
12094TIP3    H236168   2.912   8.757   4.516
12095TIP3   OH236169   3.067   8.753   4.607
12095TIP3    H136170   3.152   8.725   4.569
12095TIP3    H236171   3.054   8.684   4.675
12096TIP3   OH236172   3.891   8.816   4.395
12096TIP3    H136173   3.910   8.784   4.486
12096TIP3    H236174   3.980   8.810   4.354
12097TIP3   OH236175   5.908   9.284   3.080
12097TIP3    H136176   5.938   9.365   3.125
12097TIP3    H236177   5.926   9.307   2.987
12098TIP3   OH236178   5.306   9.462   3.103
12098TIP3    H136179   5.348   9.378   3.128
12098TIP3    H236180   5.268   9.438   3.016
12099TIP3   OH236181   4.647   9.126   3.080
12099TIP3    H136182   4.628   9.199   3.018
12099TIP3    H236183   4.598   9.053   3.036
12100TIP3   OH236184   5.340   9.211   2.703
12100TIP3    H136185   5.413   9.198   2.769
12100TIP3    H236186   5.391   9.251   2.630
12101TIP3   OH236187   4.269   9.309   3.188
12101TIP3    H136188   4.352   9.303   3.238
12101TIP3    H236189   4.298   9.280   3.100
12102TIP3   OH236190   4.731   9.525   2.960
12102TIP3    H136191   4.816   9.490   2.993
12102TIP3    H236192   4.682   9.445   2.937
12103TIP3   OH236193   5.991   9.485   3.254
12103TIP3    H136194   5.912   9.534   3.223
12103TIP3    H236195   6.006   9.528   3.340
12104TIP3   OH236196   4.641   9.108   3.514
12104TIP3    H136197   4.580   9.144   3.447
12104TIP3    H236198   4.590   9.125   3.595
12105TIP3   OH236199   5.549   9.220   2.876
12105TIP3    H136200   5.532   9.182   2.963
12105TIP3    H236201   5.597   9.302   2.900
12106TIP3   OH236202   4.507   9.216   3.298
12106TIP3    H136203   4.562   9.296   3.318
12106TIP3    H236204   4.562   9.177   3.226
12107TIP3   OH236205   5.701   9.181   3.243
12107TIP3    H136206   5.615   9.217   3.216
12107TIP3    H236207   5.761   9.218   3.174
12108TIP3   OH236208   4.998   8.833   3.226
12108TIP3    H136209   4.993   8.739   3.250
12108TIP3    H236210   4.920   8.868   3.274
12109TIP3   OH236211   4.887   9.339   2.238
12109TIP3    H136212   4.941   9.416   2.260
12109TIP3    H236213   4.942   9.296   2.170
12110TIP3   OH236214   5.535   9.711   3.357
12110TIP3    H136215   5.548   9.803   3.328
12110TIP3    H236216   5.441   9.698   3.331
12111TIP3   OH236217   5.630   8.773   2.329
12111TIP3    H136218   5.549   8.793   2.381
12111TIP3    H236219   5.642   8.857   2.281
12112TIP3   OH236220   5.761   9.672   3.546
12112TIP3    H136221   5.682   9.678   3.489
12112TIP3    H236222   5.781   9.576   3.542
12113TIP3   OH236223   4.758   8.904   3.354
12113TIP3    H136224   4.667   8.875   3.331
12113TIP3    H236225   4.737   8.986   3.403
12114TIP3   OH236226   5.293   9.019   3.552
12114TIP3    H136227   5.359   8.990   3.617
12114TIP3    H236228   5.208   8.997   3.596
12115TIP3   OH236229   5.531   9.438   3.471
12115TIP3    H136230   5.484   9.436   3.558
12115TIP3    H236231   5.508   9.525   3.436
12116TIP3   OH236232   4.903   8.951   2.326
12116TIP3    H136233   4.874   8.952   2.419
12116TIP3    H236234   4.865   8.865   2.297
12117TIP3   OH236235   4.673   9.424   3.347
12117TIP3    H136236   4.648   9.438   3.441
12117TIP3    H236237   4.676   9.515   3.314
12118TIP3   OH236238   4.570   9.302   2.889
12118TIP3    H136239   4.476   9.278   2.897
12118TIP3    H236240   4.590   9.266   2.800
12119TIP3   OH236241   5.071   9.392   2.618
12119TIP3    H136242   4.991   9.444   2.597
12119TIP3    H236243   5.110   9.376   2.530
12120TIP3   OH236244   5.238   9.663   3.709
12120TIP3    H136245   5.226   9.582   3.765
12120TIP3    H236246   5.334   9.678   3.719
12121TIP3   OH236247   5.208   9.404   2.857
12121TIP3    H136248   5.149   9.422   2.781
12121TIP3    H236249   5.254   9.327   2.819
12122TIP3   OH236250   4.507   9.441   3.599
12122TIP3    H136251   4.489   9.493   3.678
12122TIP3    H236252   4.493   9.351   3.633
12123TIP3   OH236253   4.556   8.920   2.297
12123TIP3    H136254   4.555   8.920   2.394
12123TIP3    H236255   4.478   8.976   2.278
12124TIP3   OH236256   4.108   8.984   3.142
12124TIP3    H136257   4.175   9.008   3.211
12124TIP3    H236258   4.156   8.920   3.087
12125TIP3   OH236259   4.071   8.947   2.687
12125TIP3    H136260   4.125   8.971   2.610
12125TIP3    H236261   4.015   9.025   2.688
12126TIP3   OH236262   5.279   9.652   3.291
12126TIP3    H136263   5.283   9.580   3.224
12126TIP3    H236264   5.209   9.617   3.349
12127TIP3   OH236265   4.900   9.119   2.949
12127TIP3    H136266   4.820   9.124   3.005
12127TIP3    H236267   4.970   9.137   3.014
12128TIP3   OH236268   4.327   9.171   2.945
12128TIP3    H136269   4.245   9.128   2.974
12128TIP3    H236270   4.385   9.093   2.931
12129TIP3   OH236271   4.608   9.177   2.648
12129TIP3    H136272   4.701   9.202   2.627
12129TIP3    H236273   4.558   9.209   2.570
12130TIP3   OH236274   5.391   9.202   3.151
12130TIP3    H136275   5.360   9.215   3.244
12130TIP3    H236276   5.322   9.142   3.118
12131TIP3   OH236277   4.432   9.203   2.431
12131TIP3    H136278   4.386   9.160   2.356
12131TIP3    H236279   4.487   9.269   2.383
12132TIP3   OH236280   4.976   9.430   3.041
12132TIP3    H136281   5.063   9.420   2.999
12132TIP3    H236282   4.996   9.420   3.136
12133TIP3   OH236283   4.497   8.950   2.929
12133TIP3    H136284   4.468   8.869   2.977
12133TIP3    H236285   4.556   8.913   2.861
12134TIP3   OH236286   4.958   9.345   3.344
12134TIP3    H136287   4.872   9.389   3.341
12134TIP3    H236288   5.015   9.411   3.390
12135TIP3   OH236289   5.152   9.067   2.296
12135TIP3    H136290   5.056   9.047   2.304
12135TIP3    H236291   5.157   9.163   2.313
12136TIP3   OH236292   5.225   9.330   2.379
12136TIP3    H136293   5.316   9.314   2.412
12136TIP3    H236294   5.229   9.423   2.353
12137TIP3   OH236295   4.968   9.691   3.784
12137TIP3    H136296   4.963   9.786   3.769
12137TIP3    H236297   5.048   9.667   3.734
12138TIP3   OH236298   5.656   9.380   2.254
12138TIP3    H136299   5.632   9.318   2.184
12138TIP3    H236300   5.679   9.460   2.205
12139TIP3   OH236301   4.479   9.187   3.729
12139TIP3    H136302   4.383   9.188   3.745
12139TIP3    H236303   4.511   9.132   3.803
12140TIP3   OH236304   5.319   9.255   3.411
12140TIP3    H136305   5.400   9.292   3.450
12140TIP3    H236306   5.304   9.175   3.465
12141TIP3   OH236307   5.205   9.004   2.575
12141TIP3    H136308   5.188   9.032   2.483
12141TIP3    H236309   5.243   9.085   2.615
12142TIP3   OH236310   4.892   9.185   2.681
12142TIP3    H136311   4.959   9.255   2.667
12142TIP3    H236312   4.894   9.176   2.778
12143TIP3   OH236313   5.147   9.500   3.482
12143TIP3    H136314   5.176   9.553   3.559
12143TIP3    H236315   5.203   9.420   3.489
12144TIP3   OH236316   5.033   8.909   2.781
12144TIP3    H136317   5.025   8.984   2.843
12144TIP3    H236318   5.094   8.948   2.714
12145TIP3   OH236319   4.546   8.913   2.571
12145TIP3    H136320   4.543   9.005   2.603
12145TIP3    H236321   4.642   8.895   2.582
12146TIP3   OH236322   5.801   9.406   3.472
12146TIP3    H136323   5.703   9.398   3.478
12146TIP3    H236324   5.816   9.377   3.381
12147TIP3   OH236325   5.440   9.583   2.834
12147TIP3    H136326   5.370   9.531   2.876
12147TIP3    H236327   5.516   9.566   2.892
12148TIP3   OH236328   4.080   9.118   2.473
12148TIP3    H136329   4.127   9.198   2.445
12148TIP3    H236330   4.034   9.090   2.393
12149TIP3   OH236331   4.494   8.823   3.332
12149TIP3    H136332   4.463   8.786   3.247
12149TIP3    H236333   4.484   8.747   3.393
12150TIP3   OH236334   4.478   9.711   3.937
12150TIP3    H136335   4.520   9.631   3.972
12150TIP3    H236336   4.459   9.764   4.017
12151TIP3   OH236337   4.791   9.530   3.577
12151TIP3    H136338   4.719   9.585   3.614
12151TIP3    H236339   4.813   9.577   3.495
12152TIP3   OH236340   4.612   9.333   2.274
12152TIP3    H136341   4.581   9.297   2.189
12152TIP3    H236342   4.710   9.322   2.270
12153TIP3   OH236343   4.904   9.375   3.767
12153TIP3    H136344   4.908   9.291   3.716
12153TIP3    H236345   4.867   9.434   3.698
12154TIP3   OH236346   4.900   9.178   3.564
12154TIP3    H136347   4.927   9.227   3.483
12154TIP3    H236348   4.805   9.160   3.545
12155TIP3   OH236349   5.517   9.695   3.810
12155TIP3    H136350   5.539   9.604   3.835
12155TIP3    H236351   5.603   9.728   3.781
12156TIP3   OH236352   4.764   9.511   3.982
12156TIP3    H136353   4.703   9.435   3.992
12156TIP3    H236354   4.809   9.489   3.898
12157TIP3   OH236355   5.035   8.947   3.627
12157TIP3    H136356   4.982   9.027   3.605
12157TIP3    H236357   4.968   8.876   3.620
12158TIP3   OH236358   5.161   9.444   3.848
12158TIP3    H136359   5.149   9.433   3.944
12158TIP3    H236360   5.070   9.420   3.819
12159TIP3   OH236361   5.400   9.402   3.705
12159TIP3    H136362   5.323   9.393   3.764
12159TIP3    H236363   5.473   9.368   3.761
12160TIP3   OH236364   5.630   9.344   3.854
12160TIP3    H136365   5.641   9.248   3.872
12160TIP3    H236366   5.624   9.382   3.943
12161TIP3   OH236367   4.610   9.288   4.038
12161TIP3    H136368   4.618   9.196   4.005
12161TIP3    H236369   4.649   9.278   4.128
12162TIP3   OH236370   5.128   8.957   3.885
12162TIP3    H136371   5.193   8.884   3.880
12162TIP3    H236372   5.088   8.950   3.796
12163TIP3   OH236373   5.193   9.173   4.044
12163TIP3    H136374   5.171   9.101   3.980
12163TIP3    H236375   5.114   9.230   4.038
12164TIP3   OH236376   5.528   9.563   2.581
12164TIP3    H136377   5.536   9.468   2.597
12164TIP3    H236378   5.504   9.592   2.672
12165TIP3   OH236379   5.972   9.826   3.472
12165TIP3    H136380   5.894   9.775   3.502
12165TIP3    H236381   6.042   9.759   3.479
12166TIP3   OH236382   5.436   9.073   2.043
12166TIP3    H136383   5.517   9.037   2.082
12166TIP3    H236384   5.371   9.003   2.057
12167TIP3   OH236385   5.489   9.286   2.479
12167TIP3    H136386   5.533   9.198   2.490
12167TIP3    H236387   5.551   9.328   2.417
12168TIP3   OH236388   5.660   9.463   2.964
12168TIP3    H136389   5.745   9.493   2.925
12168TIP3    H236390   5.674   9.501   3.054
12169TIP3   OH236391   5.734   9.590   3.200
12169TIP3    H136392   5.658   9.623   3.251
12169TIP3    H236393   5.784   9.674   3.186
12170TIP3   OH236394   4.343   9.350   4.006
12170TIP3    H136395   4.440   9.341   4.009
12170TIP3    H236396   4.318   9.265   4.049
12171TIP3   OH236397   6.186   9.207   3.764
12171TIP3    H136398   6.242   9.141   3.720
12171TIP3    H236399   6.154   9.262   3.689
12172TIP3   OH236400   5.612   9.044   2.516
12172TIP3    H136401   5.659   9.032   2.601
12172TIP3    H236402   5.550   8.968   2.518
12173TIP3   OH236403   4.303   9.024   3.333
12173TIP3    H136404   4.369   8.954   3.349
12173TIP3    H236405   4.360   9.103   3.329
12174TIP3   OH236406   4.109   9.310   3.413
12174TIP3    H136407   4.158   9.309   3.328
12174TIP3    H236408   4.133   9.398   3.446
12175TIP3   OH236409   6.054   9.345   3.571
12175TIP3    H136410   5.967   9.386   3.590
12175TIP3    H236411   6.025   9.273   3.511
12176TIP3   OH236412   5.688   8.985   2.145
12176TIP3    H136413   5.728   8.910   2.097
12176TIP3    H236414   5.761   9.050   2.147
12177TIP3   OH236415   4.096   8.800   2.913
12177TIP3    H136416   4.004   8.798   2.943
12177TIP3    H236417   4.092   8.861   2.836
12178TIP3   OH236418   4.314   8.891   3.727
12178TIP3    H136419   4.264   8.885   3.810
12178TIP3    H236420   4.247   8.927   3.667
12179TIP3   OH236421   5.953   9.108   3.447
12179TIP3    H136422   5.861   9.103   3.415
12179TIP3    H236423   5.982   9.015   3.436
12180TIP3   OH236424   5.159   9.023   3.064
12180TIP3    H136425   5.113   8.958   3.119
12180TIP3    H236426   5.233   8.972   3.027
12181TIP3   OH236427   5.680   8.895   2.966
12181TIP3    H136428   5.716   8.953   2.896
12181TIP3    H236429   5.586   8.923   2.968
12182TIP3   OH236430   5.776   9.004   2.733
12182TIP3    H136431   5.851   8.954   2.695
12182TIP3    H236432   5.809   9.096   2.720
12183TIP3   OH236433   4.405   8.731   3.080
12183TIP3    H136434   4.314   8.694   3.086
12183TIP3    H236435   4.457   8.648   3.078
12184TIP3   OH236436   4.187   8.601   2.728
12184TIP3    H136437   4.222   8.659   2.659
12184TIP3    H236438   4.165   8.664   2.799
12185TIP3   OH236439   4.848   8.771   2.967
12185TIP3    H136440   4.907   8.821   2.908
12185TIP3    H236441   4.874   8.806   3.053
12186TIP3   OH236442   5.398   8.911   2.950
12186TIP3    H136443   5.391   8.875   2.861
12186TIP3    H236444   5.383   8.831   3.005
12187TIP3   OH236445   5.426   8.834   2.510
12187TIP3    H136446   5.341   8.879   2.526
12187TIP3    H236447   5.410   8.748   2.555
12188TIP3   OH236448   4.310   8.766   2.493
12188TIP3    H136449   4.358   8.700   2.439
12188TIP3    H236450   4.385   8.818   2.530
12189TIP3   OH236451   4.823   8.937   2.592
12189TIP3    H136452   4.883   8.892   2.655
12189TIP3    H236453   4.841   9.030   2.618
12190TIP3   OH236454   4.613   9.012   3.974
12190TIP3    H136455   4.579   8.941   4.031
12190TIP3    H236456   4.708   9.013   4.001
12191TIP3   OH236457   4.862   9.010   4.093
12191TIP3    H136458   4.947   8.983   4.054
12191TIP3    H236459   4.850   8.940   4.161
12192TIP3   OH236460   5.688   9.072   3.882
12192TIP3    H136461   5.706   9.041   3.974
12192TIP3    H236462   5.777   9.066   3.842
12193TIP3   OH236463   5.870   9.515   2.394
12193TIP3    H136464   5.842   9.594   2.442
12193TIP3    H236465   5.788   9.463   2.393
12194TIP3   OH236466   7.102   9.733   2.599
12194TIP3    H136467   7.140   9.646   2.619
12194TIP3    H236468   7.076   9.721   2.506
12195TIP3   OH236469   6.442   9.381   2.565
12195TIP3    H136470   6.424   9.456   2.505
12195TIP3    H236471   6.391   9.310   2.520
12196TIP3   OH236472   7.136   9.466   2.198
12196TIP3    H136473   7.206   9.448   2.264
12196TIP3    H236474   7.190   9.505   2.128
12197TIP3   OH236475   6.063   9.563   2.682
12197TIP3    H136476   6.150   9.562   2.724
12197TIP3    H236477   6.085   9.531   2.593
12198TIP3   OH236478   6.532   9.783   2.445
12198TIP3    H136479   6.615   9.743   2.477
12198TIP3    H236480   6.479   9.705   2.421
12199TIP3   OH236481   6.437   9.366   3.003
12199TIP3    H136482   6.378   9.400   2.933
12199TIP3    H236483   6.383   9.384   3.083
12200TIP3   OH236484   7.353   9.471   2.365
12200TIP3    H136485   7.325   9.430   2.448
12200TIP3    H236486   7.434   9.519   2.390
12201TIP3   OH236487   6.309   9.474   2.786
12201TIP3    H136488   6.365   9.552   2.802
12201TIP3    H236489   6.358   9.434   2.710
12202TIP3   OH236490   7.495   9.445   2.724
12202TIP3    H136491   7.401   9.467   2.715
12202TIP3    H236492   7.531   9.472   2.638
12203TIP3   OH236493   6.795   9.085   2.716
12203TIP3    H136494   6.777   8.991   2.732
12203TIP3    H236495   6.718   9.126   2.762
12204TIP3   OH236496   6.687   9.587   1.721
12204TIP3    H136497   6.729   9.664   1.759
12204TIP3    H236498   6.749   9.561   1.650
12205TIP3   OH236499   7.419   9.027   1.811
12205TIP3    H136500   7.341   9.043   1.869
12205TIP3    H236501   7.435   9.116   1.776
12206TIP3   OH236502   6.557   9.160   2.845
12206TIP3    H136503   6.466   9.132   2.819
12206TIP3    H236504   6.534   9.244   2.889
12207TIP3   OH236505   7.089   9.276   3.038
12207TIP3    H136506   7.157   9.250   3.103
12207TIP3    H236507   7.005   9.257   3.084
12208TIP3   OH236508   7.338   9.706   2.960
12208TIP3    H136509   7.290   9.696   3.045
12208TIP3    H236510   7.290   9.779   2.918
12209TIP3   OH236511   6.704   9.206   1.816
12209TIP3    H136512   6.668   9.205   1.907
12209TIP3    H236513   6.661   9.125   1.781
12210TIP3   OH236514   6.474   9.685   2.846
12210TIP3    H136515   6.422   9.695   2.928
12210TIP3    H236516   6.454   9.768   2.798
12211TIP3   OH236517   6.374   9.561   2.376
12211TIP3    H136518   6.280   9.537   2.392
12211TIP3    H236519   6.385   9.524   2.286
12212TIP3   OH236520   6.873   9.648   2.107
12212TIP3    H136521   6.792   9.699   2.087
12212TIP3    H236522   6.911   9.631   2.018
12213TIP3   OH236523   7.037   9.916   3.185
12213TIP3    H136524   7.018   9.842   3.247
12213TIP3    H236525   7.130   9.935   3.205
12214TIP3   OH236526   7.003   9.667   2.348
12214TIP3    H136527   6.946   9.680   2.270
12214TIP3    H236528   7.053   9.590   2.316
12215TIP3   OH236529   6.323   9.700   3.089
12215TIP3    H136530   6.276   9.753   3.154
12215TIP3    H236531   6.298   9.610   3.119
12216TIP3   OH236532   6.356   9.183   1.783
12216TIP3    H136533   6.348   9.184   1.881
12216TIP3    H236534   6.280   9.238   1.758
12217TIP3   OH236535   5.899   9.228   2.645
12217TIP3    H136536   5.967   9.264   2.707
12217TIP3    H236537   5.953   9.194   2.573
12218TIP3   OH236538   5.873   9.205   2.175
12218TIP3    H136539   5.911   9.241   2.093
12218TIP3    H236540   5.835   9.286   2.212
12219TIP3   OH236541   7.048   9.923   2.792
12219TIP3    H136542   7.074   9.859   2.723
12219TIP3    H236543   6.991   9.866   2.847
12220TIP3   OH236544   6.697   9.371   2.437
12220TIP3    H136545   6.614   9.378   2.488
12220TIP3    H236546   6.761   9.406   2.501
12221TIP3   OH236547   6.132   9.447   2.438
12221TIP3    H136548   6.038   9.450   2.413
12221TIP3    H236549   6.157   9.354   2.421
12222TIP3   OH236550   6.403   9.434   2.133
12222TIP3    H136551   6.494   9.461   2.110
12222TIP3    H236552   6.352   9.461   2.054
12223TIP3   OH236553   7.189   9.459   2.640
12223TIP3    H136554   7.155   9.475   2.731
12223TIP3    H236555   7.119   9.402   2.605
12224TIP3   OH236556   6.232   9.451   1.911
12224TIP3    H136557   6.177   9.419   1.838
12224TIP3    H236558   6.286   9.518   1.865
12225TIP3   OH236559   6.775   9.677   2.527
12225TIP3    H136560   6.862   9.681   2.483
12225TIP3    H236561   6.798   9.681   2.621
12226TIP3   OH236562   6.298   9.203   2.414
12226TIP3    H136563   6.268   9.122   2.461
12226TIP3    H236564   6.349   9.167   2.340
12227TIP3   OH236565   6.751   9.598   2.838
12227TIP3    H136566   6.666   9.644   2.826
12227TIP3    H236567   6.808   9.667   2.878
12228TIP3   OH236568   6.948   9.319   1.794
12228TIP3    H136569   6.854   9.290   1.796
12228TIP3    H236570   6.942   9.415   1.803
12229TIP3   OH236571   7.023   9.587   1.865
12229TIP3    H136572   7.110   9.546   1.877
12229TIP3    H236573   7.037   9.643   1.788
12230TIP3   OH236574   6.780   9.953   3.294
12230TIP3    H136575   6.703  10.001   3.257
12230TIP3    H236576   6.829   9.929   3.213
12231TIP3   OH236577   6.273   9.443   3.216
12231TIP3    H136578   6.177   9.446   3.231
12231TIP3    H236579   6.303   9.388   3.290
12232TIP3   OH236580   7.118   9.515   2.900
12232TIP3    H136581   7.197   9.548   2.945
12232TIP3    H236582   7.099   9.433   2.951
12233TIP3   OH236583   6.999   9.256   2.066
12233TIP3    H136584   6.982   9.282   1.973
12233TIP3    H236585   7.038   9.337   2.105
12234TIP3   OH236586   6.692   9.442   2.168
12234TIP3    H136587   6.758   9.512   2.157
12234TIP3    H236588   6.689   9.432   2.266
12235TIP3   OH236589   6.941   9.749   2.973
12235TIP3    H136590   6.973   9.805   3.046
12235TIP3    H236591   7.000   9.672   2.977
12236TIP3   OH236592   6.827   9.166   2.270
12236TIP3    H136593   6.812   9.244   2.328
12236TIP3    H236594   6.888   9.204   2.203
12237TIP3   OH236595   6.340   9.169   2.060
12237TIP3    H136596   6.337   9.262   2.090
12237TIP3    H236597   6.437   9.153   2.068
12238TIP3   OH236598   7.616   9.662   2.926
12238TIP3    H136599   7.526   9.685   2.958
12238TIP3    H236600   7.594   9.610   2.849
12239TIP3   OH236601   5.879   9.372   1.959
12239TIP3    H136602   5.926   9.454   1.935
12239TIP3    H236603   5.837   9.345   1.877
12240TIP3   OH236604   6.293   9.080   2.818
12240TIP3    H136605   6.259   9.048   2.731
12240TIP3    H236606   6.280   9.002   2.875
12241TIP3   OH236607   6.275   9.965   3.423
12241TIP3    H136608   6.320   9.889   3.463
12241TIP3    H236609   6.252  10.020   3.500
12242TIP3   OH236610   6.599   9.808   3.069
12242TIP3    H136611   6.505   9.816   3.094
12242TIP3    H236612   6.596   9.813   2.972
12243TIP3   OH236613   6.412   9.590   1.762
12243TIP3    H136614   6.382   9.546   1.680
12243TIP3    H236615   6.509   9.579   1.757
12244TIP3   OH236616   6.701   9.632   3.251
12244TIP3    H136617   6.704   9.550   3.199
12244TIP3    H236618   6.669   9.696   3.184
12245TIP3   OH236619   6.698   9.431   3.052
12245TIP3    H136620   6.723   9.483   2.972
12245TIP3    H236621   6.603   9.415   3.033
12246TIP3   OH236622   7.320   9.951   3.302
12246TIP3    H136623   7.338   9.858   3.323
12246TIP3    H236624   7.404   9.977   3.260
12247TIP3   OH236625   6.564   9.765   3.470
12247TIP3    H136626   6.501   9.691   3.479
12247TIP3    H236627   6.607   9.744   3.385
12248TIP3   OH236628   6.830   9.201   3.117
12248TIP3    H136629   6.782   9.283   3.093
12248TIP3    H236630   6.759   9.134   3.105
12249TIP3   OH236631   6.961   9.698   3.332
12249TIP3    H136632   6.946   9.696   3.429
12249TIP3    H236633   6.869   9.677   3.304
12250TIP3   OH236634   7.198   9.654   3.187
12250TIP3    H136635   7.121   9.651   3.246
12250TIP3    H236636   7.270   9.624   3.245
12251TIP3   OH236637   7.418   9.598   3.344
12251TIP3    H136638   7.432   9.502   3.361
12251TIP3    H236639   7.418   9.636   3.434
12252TIP3   OH236640   6.405   9.544   3.524
12252TIP3    H136641   6.414   9.453   3.490
12252TIP3    H236642   6.442   9.535   3.614
12253TIP3   OH236643   6.921   9.212   3.375
12253TIP3    H136644   6.989   9.142   3.367
12253TIP3    H236645   6.881   9.208   3.286
12254TIP3   OH236646   6.982   9.420   3.550
12254TIP3    H136647   6.965   9.354   3.479
12254TIP3    H236648   6.910   9.484   3.536
12255TIP3   OH236649   7.223   9.333   1.538
12255TIP3    H136650   7.311   9.300   1.561
12255TIP3    H236651   7.169   9.252   1.533
12256TIP3   OH236652   6.137   9.602   3.492
12256TIP3    H136653   6.235   9.596   3.495
12256TIP3    H236654   6.114   9.517   3.536
12257TIP3   OH236655   7.963   9.472   3.229
12257TIP3    H136656   8.013   9.388   3.218
12257TIP3    H236657   7.920   9.481   3.142
12258TIP3   OH236658   7.369   9.318   2.029
12258TIP3    H136659   7.435   9.298   2.097
12258TIP3    H236660   7.324   9.232   2.019
12259TIP3   OH236661   6.101   9.283   2.825
12259TIP3    H136662   6.170   9.215   2.836
12259TIP3    H236663   6.156   9.363   2.815
12260TIP3   OH236664   5.906   9.568   2.906
12260TIP3    H136665   5.955   9.563   2.821
12260TIP3    H236666   5.918   9.662   2.928
12261TIP3   OH236667   5.891   9.052   2.396
12261TIP3    H136668   5.800   9.058   2.431
12261TIP3    H236669   5.888   9.115   2.321
12262TIP3   OH236670   6.111   9.141   3.211
12262TIP3    H136671   6.062   9.141   3.294
12262TIP3    H236672   6.046   9.185   3.151
12263TIP3   OH236673   7.759   9.363   2.947
12263TIP3    H136674   7.675   9.376   2.901
12263TIP3    H236675   7.785   9.274   2.916
12264TIP3   OH236676   6.965   9.282   2.561
12264TIP3    H136677   6.911   9.215   2.606
12264TIP3    H236678   7.030   9.228   2.512
12265TIP3   OH236679   7.474   9.162   2.455
12265TIP3    H136680   7.511   9.215   2.381
12265TIP3    H236681   7.379   9.180   2.447
12266TIP3   OH236682   7.575   9.274   2.220
12266TIP3    H136683   7.639   9.209   2.181
12266TIP3    H236684   7.627   9.355   2.212
12267TIP3   OH236685   6.201   8.988   2.569
12267TIP3    H136686   6.110   8.953   2.572
12267TIP3    H236687   6.252   8.903   2.566
12268TIP3   OH236688   5.988   8.857   2.215
12268TIP3    H136689   6.019   8.917   2.145
12268TIP3    H236690   5.960   8.920   2.285
12269TIP3   OH236691   6.647   9.017   2.452
12269TIP3    H136692   6.702   9.070   2.391
12269TIP3    H236693   6.664   9.062   2.536
12270TIP3   OH236694   7.196   9.167   2.431
12270TIP3    H136695   7.188   9.129   2.343
12270TIP3    H236696   7.180   9.088   2.488
12271TIP3   OH236697   7.218   9.083   1.995
12271TIP3    H136698   7.134   9.129   2.010
12271TIP3    H236699   7.203   8.999   2.043
12272TIP3   OH236700   6.107   9.018   1.982
12272TIP3    H136701   6.156   8.955   1.926
12272TIP3    H236702   6.180   9.072   2.019
12273TIP3   OH236703   6.618   9.193   2.081
12273TIP3    H136704   6.680   9.150   2.142
12273TIP3    H236705   6.636   9.287   2.105
12274TIP3   OH236706   6.409   9.266   3.459
12274TIP3    H136707   6.374   9.198   3.519
12274TIP3    H236708   6.503   9.269   3.488
12275TIP3   OH236709   6.658   9.269   3.579
12275TIP3    H136710   6.741   9.244   3.537
12275TIP3    H236711   6.645   9.197   3.644
12276TIP3   OH236712   7.482   9.327   3.370
12276TIP3    H136713   7.501   9.297   3.462
12276TIP3    H236714   7.570   9.320   3.328
12277TIP3   OH236715   2.216   0.673   7.843
12277TIP3    H136716   2.291   0.614   7.860
12277TIP3    H236717   2.240   0.753   7.894
12278TIP3   OH236718   1.845   1.099   7.858
12278TIP3    H136719   1.884   1.024   7.808
12278TIP3    H236720   1.867   1.077   7.950
12279TIP3   OH236721   2.260   0.892   8.016
12279TIP3    H136722   2.178   0.894   8.067
12279TIP3    H236723   2.264   0.983   7.979
12280TIP3   OH236724   1.975   0.930   7.681
12280TIP3    H136725   2.020   0.845   7.661
12280TIP3    H236726   2.041   0.993   7.644
12281TIP3   OH236727   2.088   0.692   7.593
12281TIP3    H136728   2.126   0.630   7.527
12281TIP3    H236729   2.151   0.684   7.668
12282TIP3   OH236730   2.517   0.807   8.358
12282TIP3    H136731   2.487   0.723   8.319
12282TIP3    H236732   2.493   0.874   8.291
12283TIP3   OH236733   2.725   0.455   8.204
12283TIP3    H136734   2.630   0.465   8.222
12283TIP3    H236735   2.730   0.467   8.107
12284TIP3   OH236736   2.304   0.747   7.018
12284TIP3    H136737   2.315   0.841   6.993
12284TIP3    H236738   2.394   0.711   7.000
12285TIP3   OH236739   2.743   1.145   8.398
12285TIP3    H136740   2.745   1.050   8.417
12285TIP3    H236741   2.662   1.171   8.447
12286TIP3   OH236742   1.614   1.069   7.481
12286TIP3    H136743   1.563   1.053   7.400
12286TIP3    H236744   1.580   1.155   7.512
12287TIP3   OH236745   1.816   0.961   7.133
12287TIP3    H136746   1.877   0.894   7.095
12287TIP3    H236747   1.851   0.969   7.224
12288TIP3   OH236748   1.869   1.017   7.404
12288TIP3    H136749   1.778   1.021   7.442
12288TIP3    H236750   1.924   1.007   7.483
12289TIP3   OH236751   2.429   1.496   8.500
12289TIP3    H136752   2.432   1.520   8.406
12289TIP3    H236753   2.512   1.538   8.532
12290TIP3   OH236754   2.460   0.580   8.191
12290TIP3    H136755   2.511   0.629   8.122
12290TIP3    H236756   2.370   0.590   8.160
12291TIP3   OH236757   2.761   0.856   8.450
12291TIP3    H136758   2.663   0.847   8.438
12291TIP3    H236759   2.789   0.823   8.362
12292TIP3   OH236760   2.242   0.811   7.278
12292TIP3    H136761   2.208   0.730   7.317
12292TIP3    H236762   2.253   0.782   7.185
12293TIP3   OH236763   2.020   0.566   7.173
12293TIP3    H136764   2.052   0.518   7.251
12293TIP3    H236765   1.923   0.551   7.180
12294TIP3   OH236766   2.271   1.176   8.338
12294TIP3    H136767   2.183   1.135   8.327
12294TIP3    H236768   2.262   1.253   8.278
12295TIP3   OH236769   2.334   1.021   6.995
12295TIP3    H136770   2.368   1.092   6.939
12295TIP3    H236771   2.252   1.064   7.029
12296TIP3   OH236772   2.165   0.480   7.426
12296TIP3    H136773   2.156   0.386   7.452
12296TIP3    H236774   2.258   0.479   7.395
12297TIP3   OH236775   2.286   1.156   7.932
12297TIP3    H136776   2.248   1.199   7.853
12297TIP3    H236777   2.381   1.178   7.917
12298TIP3   OH236778   1.978   0.781   7.008
12298TIP3    H136779   2.010   0.707   7.064
12298TIP3    H236780   2.027   0.767   6.925
12299TIP3   OH236781   2.350   0.288   7.009
12299TIP3    H136782   2.320   0.208   6.959
12299TIP3    H236783   2.286   0.356   6.978
12300TIP3   OH236784   2.535   1.262   7.892
12300TIP3    H136785   2.564   1.282   7.983
12300TIP3    H236786   2.612   1.288   7.840
12301TIP3   OH236787   2.573   1.268   8.173
12301TIP3    H136788   2.530   1.180   8.173
12301TIP3    H236789   2.645   1.250   8.235
12302TIP3   OH236790   2.432   0.466   7.377
12302TIP3    H136791   2.502   0.523   7.339
12302TIP3    H236792   2.480   0.419   7.448
12303TIP3   OH236793   2.562   0.334   7.582
12303TIP3    H136794   2.496   0.344   7.652
12303TIP3    H236795   2.643   0.369   7.625
12304TIP3   OH236796   2.604   0.713   7.999
12304TIP3    H136797   2.668   0.649   7.960
12304TIP3    H236798   2.613   0.789   7.938
12305TIP3   OH236799   2.447   1.021   8.192
12305TIP3    H136800   2.381   1.062   8.252
12305TIP3    H236801   2.391   0.971   8.130
12306TIP3   OH236802   2.504   0.244   7.221
12306TIP3    H136803   2.445   0.251   7.142
12306TIP3    H236804   2.466   0.314   7.276
12307TIP3   OH236805   2.646   0.603   8.570
12307TIP3    H136806   2.721   0.541   8.578
12307TIP3    H236807   2.689   0.683   8.536
12308TIP3   OH236808   2.840   0.406   8.595
12308TIP3    H136809   2.777   0.337   8.617
12308TIP3    H236810   2.925   0.366   8.617
12309TIP3   OH236811   2.124   1.107   7.549
12309TIP3    H136812   2.178   1.100   7.467
12309TIP3    H236813   2.173   1.173   7.601
12310TIP3   OH236814   2.026   1.372   8.455
12310TIP3    H136815   2.072   1.288   8.458
12310TIP3    H236816   2.068   1.418   8.531
12311TIP3   OH236817   1.783   1.232   8.146
12311TIP3    H136818   1.688   1.229   8.124
12311TIP3    H236819   1.785   1.314   8.200
12312TIP3   OH236820   2.030   1.150   8.204
12312TIP3    H136821   1.939   1.179   8.180
12312TIP3    H236822   2.080   1.230   8.179
12313TIP3   OH236823   2.221   1.349   8.129
12313TIP3    H136824   2.205   1.435   8.082
12313TIP3    H236825   2.248   1.291   8.055
12314TIP3   OH236826   1.553   0.937   7.204
12314TIP3    H136827   1.646   0.962   7.187
12314TIP3    H236828   1.549   0.858   7.148
12315TIP3   OH236829   2.271   1.079   7.319
12315TIP3    H136830   2.265   0.981   7.308
12315TIP3    H236831   2.224   1.109   7.239
12316TIP3   OH236832   2.499   1.229   8.496
12316TIP3    H136833   2.417   1.194   8.456
12316TIP3    H236834   2.475   1.323   8.507
12317TIP3   OH236835   3.765   0.601   7.269
12317TIP3    H136836   3.735   0.692   7.249
12317TIP3    H236837   3.688   0.550   7.239
12318TIP3   OH236838   3.763   0.597   7.654
12318TIP3    H136839   3.796   0.569   7.741
12318TIP3    H236840   3.719   0.516   7.623
12319TIP3   OH236841   3.056   0.497   8.014
12319TIP3    H136842   3.087   0.429   8.076
12319TIP3    H236843   3.135   0.553   8.010
12320TIP3   OH236844   4.007   0.902   7.334
12320TIP3    H136845   3.990   0.832   7.398
12320TIP3    H236846   4.035   0.976   7.391
12321TIP3   OH236847   3.030   0.903   7.739
12321TIP3    H136848   3.024   0.805   7.741
12321TIP3    H236849   3.127   0.913   7.740
12322TIP3   OH236850   2.730   0.096   7.534
12322TIP3    H136851   2.690   0.184   7.549
12322TIP3    H236852   2.662   0.055   7.479
12323TIP3   OH236853   2.804   0.392   7.692
12323TIP3    H136854   2.850   0.316   7.735
12323TIP3    H236855   2.872   0.423   7.631
12324TIP3   OH236856   3.655   1.362   7.351
12324TIP3    H136857   3.701   1.291   7.302
12324TIP3    H236858   3.649   1.325   7.440
12325TIP3   OH236859   3.560   0.825   7.701
12325TIP3    H136860   3.597   0.747   7.657
12325TIP3    H236861   3.644   0.870   7.725
12326TIP3   OH236862   3.976   0.335   7.734
12326TIP3    H136863   4.003   0.248   7.766
12326TIP3    H236864   3.944   0.316   7.644
12327TIP3   OH236865   2.947   0.188   7.804
12327TIP3    H136866   3.025   0.163   7.858
12327TIP3    H236867   2.965   0.131   7.726
12328TIP3   OH236868   3.386   0.386   7.604
12328TIP3    H136869   3.477   0.353   7.618
12328TIP3    H236870   3.341   0.305   7.573
12329TIP3   OH236871   4.621   0.326   7.887
12329TIP3    H136872   4.557   0.398   7.869
12329TIP3    H236873   4.668   0.358   7.966
12330TIP3   OH236874   3.661   0.825   7.136
12330TIP3    H136875   3.610   0.797   7.059
12330TIP3    H236876   3.612   0.905   7.163
12331TIP3   OH236877   3.415   0.744   7.928
12331TIP3    H136878   3.352   0.809   7.967
12331TIP3    H236879   3.455   0.795   7.855
12332TIP3   OH236880   3.186   0.094   7.903
12332TIP3    H136881   3.252   0.162   7.926
12332TIP3    H236882   3.225   0.050   7.827
12333TIP3   OH236883   3.242   0.938   8.024
12333TIP3    H136884   3.216   1.025   7.989
12333TIP3    H236885   3.165   0.920   8.082
12334TIP3   OH236886   2.633   0.626   7.261
12334TIP3    H136887   2.594   0.649   7.175
12334TIP3    H236888   2.667   0.712   7.293
12335TIP3   OH236889   4.076   1.144   7.500
12335TIP3    H136890   3.987   1.135   7.541
12335TIP3    H236891   4.067   1.231   7.457
12336TIP3   OH236892   3.778   1.189   7.174
12336TIP3    H136893   3.829   1.107   7.155
12336TIP3    H236894   3.838   1.255   7.133
12337TIP3   OH236895   3.923   0.973   7.081
12337TIP3    H136896   3.867   0.898   7.056
12337TIP3    H236897   3.961   0.941   7.166
12338TIP3   OH236898   4.302   1.056   7.845
12338TIP3    H136899   4.289   0.979   7.786
12338TIP3    H236900   4.284   1.131   7.785
12339TIP3   OH236901   3.594   0.452   7.103
12339TIP3    H136902   3.511   0.499   7.083
12339TIP3    H236903   3.634   0.444   7.015
12340TIP3   OH236904   3.545   0.243   6.821
12340TIP3    H136905   3.624   0.281   6.862
12340TIP3    H236906   3.585   0.168   6.772
12341TIP3   OH236907   4.497   0.692   7.693
12341TIP3    H136908   4.413   0.743   7.698
12341TIP3    H236909   4.525   0.714   7.601
12342TIP3   OH236910   3.943   0.534   7.073
12342TIP3    H136911   3.887   0.558   7.150
12342TIP3    H236912   4.025   0.505   7.119
12343TIP3   OH236913   4.172   0.578   7.981
12343TIP3    H136914   4.170   0.661   8.031
12343TIP3    H236915   4.086   0.584   7.933
12344TIP3   OH236916   3.176   0.531   7.490
12344TIP3    H136917   3.131   0.473   7.425
12344TIP3    H236918   3.250   0.474   7.521
12345TIP3   OH236919   3.305   0.946   7.637
12345TIP3    H136920   3.283   0.899   7.555
12345TIP3    H236921   3.394   0.910   7.658
12346TIP3   OH236922   3.313   0.497   7.849
12346TIP3    H136923   3.343   0.473   7.759
12346TIP3    H236924   3.356   0.583   7.865
12347TIP3   OH236925   3.836   1.139   7.622
12347TIP3    H136926   3.822   1.219   7.676
12347TIP3    H236927   3.820   1.066   7.685
12348TIP3   OH236928   3.447   1.059   8.167
12348TIP3    H136929   3.388   1.120   8.216
12348TIP3    H236930   3.381   1.005   8.120
12349TIP3   OH236931   3.788   0.378   6.904
12349TIP3    H136932   3.844   0.440   6.957
12349TIP3    H236933   3.813   0.403   6.812
12350TIP3   OH236934   3.196   0.628   8.263
12350TIP3    H136935   3.200   0.711   8.315
12350TIP3    H236936   3.104   0.599   8.283
12351TIP3   OH236937   3.526   1.069   7.175
12351TIP3    H136938   3.605   1.122   7.191
12351TIP3    H236939   3.464   1.133   7.136
12352TIP3   OH236940   3.241   1.226   8.257
12352TIP3    H136941   3.203   1.223   8.168
12352TIP3    H236942   3.163   1.204   8.314
12353TIP3   OH236943   3.037   0.381   7.298
12353TIP3    H136944   2.966   0.413   7.239
12353TIP3    H236945   3.019   0.287   7.305
12354TIP3   OH236946   4.095   0.998   6.494
12354TIP3    H136947   4.102   1.096   6.483
12354TIP3    H236948   4.189   0.971   6.485
12355TIP3   OH236949   2.824   0.756   8.204
12355TIP3    H136950   2.758   0.727   8.139
12355TIP3    H236951   2.862   0.670   8.233
12356TIP3   OH236952   2.676   0.949   7.836
12356TIP3    H136953   2.771   0.934   7.823
12356TIP3    H236954   2.678   1.024   7.898
12357TIP3   OH236955   4.540   1.402   7.893
12357TIP3    H136956   4.538   1.305   7.908
12357TIP3    H236957   4.457   1.428   7.938
12358TIP3   OH236958   3.644   1.188   8.025
12358TIP3    H136959   3.643   1.280   8.059
12358TIP3    H236960   3.573   1.147   8.080
12359TIP3   OH236961   3.406   1.316   6.978
12359TIP3    H136962   3.360   1.297   6.894
12359TIP3    H236963   3.374   1.405   7.001
12360TIP3   OH236964   2.843   1.165   7.364
12360TIP3    H136965   2.892   1.155   7.449
12360TIP3    H236966   2.796   1.079   7.360
12361TIP3   OH236967   3.607   1.218   6.618
12361TIP3    H136968   3.666   1.148   6.582
12361TIP3    H236969   3.641   1.227   6.709
12362TIP3   OH236970   3.658   1.265   6.888
12362TIP3    H136971   3.569   1.275   6.930
12362TIP3    H236972   3.709   1.226   6.960
12363TIP3   OH236973   4.434   0.529   8.182
12363TIP3    H136974   4.357   0.559   8.130
12363TIP3    H236975   4.449   0.440   8.148
12364TIP3   OH236976   3.026   0.941   8.190
12364TIP3    H136977   3.075   0.926   8.274
12364TIP3    H236978   2.953   0.876   8.199
12365TIP3   OH236979   4.101   0.396   8.182
12365TIP3    H136980   4.140   0.310   8.161
12365TIP3    H236981   4.117   0.448   8.101
12366TIP3   OH236982   3.866   0.426   6.646
12366TIP3    H136983   3.823   0.408   6.560
12366TIP3    H236984   3.930   0.495   6.622
12367TIP3   OH236985   3.366   0.276   8.001
12367TIP3    H136986   3.306   0.298   8.075
12367TIP3    H236987   3.352   0.355   7.944
12368TIP3   OH236988   3.225   0.191   7.501
12368TIP3    H136989   3.151   0.136   7.533
12368TIP3    H236990   3.250   0.144   7.419
12369TIP3   OH236991   3.739   0.257   7.235
12369TIP3    H136992   3.684   0.328   7.194
12369TIP3    H236993   3.781   0.218   7.156
12370TIP3   OH236994   3.905   0.581   8.284
12370TIP3    H136995   3.897   0.530   8.368
12370TIP3    H236996   4.000   0.571   8.269
12371TIP3   OH236997   3.895   0.280   7.473
12371TIP3    H136998   3.834   0.307   7.401
12371TIP3    H236999   3.925   0.195   7.439
12372TIP3   OH237000   3.177   0.320   8.195
12372TIP3    H137001   3.203   0.370   8.274
12372TIP3    H237002   3.139   0.240   8.232
12373TIP3   OH237003   3.899   0.529   7.904
12373TIP3    H137004   3.929   0.458   7.843
12373TIP3    H237005   3.864   0.476   7.979
12374TIP3   OH237006   2.997   0.041   7.576
12374TIP3    H137007   2.904   0.058   7.551
12374TIP3    H237008   3.007  -0.053   7.556
12375TIP3   OH237009   3.286   0.063   7.264
12375TIP3    H137010   3.369   0.032   7.224
12375TIP3    H237011   3.223   0.054   7.190
12376TIP3   OH237012   3.108   0.078   7.048
12376TIP3    H137013   3.048   0.026   6.990
12376TIP3    H237014   3.168   0.113   6.979
12377TIP3   OH237015   4.230   1.751   7.994
12377TIP3    H137016   4.227   1.771   7.899
12377TIP3    H237017   4.309   1.802   8.022
12378TIP3   OH237018   3.188   0.865   8.413
12378TIP3    H137019   3.268   0.894   8.462
12378TIP3    H237020   3.124   0.863   8.487
12379TIP3   OH237021   3.654   0.319   7.677
12379TIP3    H137022   3.708   0.259   7.624
12379TIP3    H237023   3.648   0.270   7.761
12380TIP3   OH237024   3.635   0.212   7.963
12380TIP3    H137025   3.544   0.244   7.977
12380TIP3    H237026   3.687   0.267   8.024
12381TIP3   OH237027   3.363   0.603   7.051
12381TIP3    H137028   3.293   0.535   7.040
12381TIP3    H237029   3.345   0.636   7.142
12382TIP3   OH237030   4.264   0.838   7.681
12382TIP3    H137031   4.288   0.888   7.600
12382TIP3    H237032   4.179   0.796   7.655
12383TIP3   OH237033   3.768   0.924   8.047
12383TIP3    H137034   3.783   0.895   8.138
12383TIP3    H237035   3.724   1.010   8.059
12384TIP3   OH237036   3.883   0.133   7.007
12384TIP3    H137037   3.980   0.147   7.019
12384TIP3    H237038   3.857   0.214   6.958
12385TIP3   OH237039   3.057   0.626   7.725
12385TIP3    H137040   3.098   0.595   7.642
12385TIP3    H237041   3.094   0.563   7.789
12386TIP3   OH237042   3.509   0.752   6.873
12386TIP3    H137043   3.461   0.838   6.880
12386TIP3    H237044   3.455   0.696   6.933
12387TIP3   OH237045   2.943   0.546   8.343
12387TIP3    H137046   2.948   0.525   8.438
12387TIP3    H237047   2.867   0.492   8.313
12388TIP3   OH237048   3.655   0.668   8.359
12388TIP3    H137049   3.589   0.608   8.319
12388TIP3    H237050   3.737   0.641   8.314
12389TIP3   OH237051   3.924   1.182   7.943
12389TIP3    H137052   3.828   1.178   7.957
12389TIP3    H237053   3.951   1.233   8.022
12390TIP3   OH237054   4.340   0.250   6.846
12390TIP3    H137055   4.281   0.202   6.785
12390TIP3    H237056   4.330   0.340   6.809
12391TIP3   OH237057   4.552   1.109   7.934
12391TIP3    H137058   4.454   1.104   7.925
12391TIP3    H237059   4.579   1.080   7.844
12392TIP3   OH237060   4.037   1.072   6.763
12392TIP3    H137061   4.006   1.006   6.827
12392TIP3    H237062   4.044   1.021   6.680
12393TIP3   OH237063   4.030   0.701   7.599
12393TIP3    H137064   3.936   0.675   7.612
12393TIP3    H237065   4.064   0.621   7.554
12394TIP3   OH237066   3.158   0.929   7.352
12394TIP3    H137067   3.156   1.010   7.298
12394TIP3    H237068   3.064   0.909   7.362
12395TIP3   OH237069   2.724   0.226   7.059
12395TIP3    H137070   2.768   0.311   7.077
12395TIP3    H237071   2.647   0.233   7.120
12396TIP3   OH237072   3.297   0.695   7.296
12396TIP3    H137073   3.260   0.783   7.317
12396TIP3    H237074   3.262   0.641   7.369
12397TIP3   OH237075   3.427   1.273   7.821
12397TIP3    H137076   3.471   1.345   7.771
12397TIP3    H237077   3.502   1.236   7.871
12398TIP3   OH237078   3.075   1.170   7.203
12398TIP3    H137079   2.990   1.177   7.252
12398TIP3    H237080   3.107   1.262   7.208
12399TIP3   OH237081   3.814   0.907   7.779
12399TIP3    H137082   3.805   0.908   7.877
12399TIP3    H237083   3.893   0.852   7.768
12400TIP3   OH237084   3.790   0.798   6.661
12400TIP3    H137085   3.842   0.774   6.741
12400TIP3    H237086   3.700   0.773   6.690
12401TIP3   OH237087   4.065   1.439   7.830
12401TIP3    H137088   3.985   1.383   7.824
12401TIP3    H237089   4.047   1.504   7.758
12402TIP3   OH237090   4.129   1.274   6.482
12402TIP3    H137091   4.166   1.347   6.430
12402TIP3    H237092   4.049   1.319   6.517
12403TIP3   OH237093   3.951   0.728   6.872
12403TIP3    H137094   3.938   0.667   6.948
12403TIP3    H237095   4.048   0.728   6.867
12404TIP3   OH237096   2.862   1.134   7.981
12404TIP3    H137097   2.917   1.060   8.012
12404TIP3    H237098   2.888   1.202   8.044
12405TIP3   OH237099   3.154   0.779   6.662
12405TIP3    H137100   3.168   0.687   6.635
12405TIP3    H237101   3.135   0.768   6.758
12406TIP3   OH237102   3.099   0.786   6.935
12406TIP3    H137103   3.170   0.754   6.992
12406TIP3    H237104   3.107   0.884   6.944
12407TIP3   OH237105   2.834   0.477   7.136
12407TIP3    H137106   2.767   0.520   7.193
12407TIP3    H237107   2.848   0.548   7.070
12408TIP3   OH237108   3.367   0.982   6.883
12408TIP3    H137109   3.280   1.009   6.920
12408TIP3    H237110   3.382   1.056   6.821
12409TIP3   OH237111   3.582   0.038   7.299
12409TIP3    H137112   3.620   0.126   7.283
12409TIP3    H237113   3.531   0.051   7.379
12410TIP3   OH237114   3.820   0.363   8.122
12410TIP3    H137115   3.827   0.437   8.185
12410TIP3    H237116   3.905   0.319   8.137
12411TIP3   OH237117   3.112   1.059   6.952
12411TIP3    H137118   3.081   1.129   6.889
12411TIP3    H237119   3.095   1.102   7.039
12412TIP3   OH237120   4.114   0.465   7.471
12412TIP3    H137121   4.043   0.401   7.486
12412TIP3    H237122   4.189   0.423   7.520
12413TIP3   OH237123   2.830   0.689   6.942
12413TIP3    H137124   2.903   0.753   6.951
12413TIP3    H237125   2.872   0.628   6.877
12414TIP3   OH237126   2.742  -0.063   7.063
12414TIP3    H137127   2.789   0.023   7.068
12414TIP3    H237128   2.652  -0.034   7.082
12415TIP3   OH237129   4.084   1.413   7.421
12415TIP3    H137130   4.041   1.460   7.346
12415TIP3    H237131   4.178   1.433   7.401
12416TIP3   OH237132   2.704   0.912   7.332
12416TIP3    H137133   2.628   0.933   7.387
12416TIP3    H237134   2.674   0.947   7.245
12417TIP3   OH237135   2.858   1.446   8.401
12417TIP3    H137136   2.943   1.446   8.449
12417TIP3    H237137   2.837   1.350   8.402
12418TIP3   OH237138   3.338   1.414   8.440
12418TIP3    H137139   3.430   1.388   8.455
12418TIP3    H237140   3.311   1.349   8.372
12419TIP3   OH237141   3.318   0.983   6.575
12419TIP3    H137142   3.262   0.912   6.614
12419TIP3    H237143   3.393   0.930   6.544
12420TIP3   OH237144   3.977   1.314   8.179
12420TIP3    H137145   3.968   1.246   8.249
12420TIP3    H237146   4.053   1.366   8.211
12421TIP3   OH237147   3.755   1.024   6.488
12421TIP3    H137148   3.797   0.959   6.546
12421TIP3    H237149   3.812   1.023   6.408
12422TIP3   OH237150   2.990   0.837   8.602
12422TIP3    H137151   3.004   0.740   8.599
12422TIP3    H237152   2.901   0.846   8.561
12423TIP3   OH237153   2.964   0.502   6.797
12423TIP3    H137154   3.015   0.463   6.870
12423TIP3    H237155   3.033   0.505   6.727
12424TIP3   OH237156   3.597   0.940   8.376
12424TIP3    H137157   3.551   0.951   8.291
12424TIP3    H237158   3.624   0.845   8.373
12425TIP3   OH237159   3.475   0.702   6.604
12425TIP3    H137160   3.476   0.714   6.702
12425TIP3    H237161   3.477   0.604   6.599
12426TIP3   OH237162   4.087   0.942   7.984
12426TIP3    H137163   4.159   0.991   7.939
12426TIP3    H237164   4.014   1.005   7.972
12427TIP3   OH237165   3.105   0.572   8.597
12427TIP3    H137166   3.185   0.527   8.565
12427TIP3    H237167   3.129   0.588   8.689
12428TIP3   OH237168   3.173   0.405   7.020
12428TIP3    H137169   3.146   0.362   7.103
12428TIP3    H237170   3.208   0.329   6.968
12429TIP3   OH237171   3.447   0.518   8.234
12429TIP3    H137172   3.360   0.564   8.231
12429TIP3    H237173   3.489   0.543   8.148
12430TIP3   OH237174   3.270   0.201   6.859
12430TIP3    H137175   3.244   0.202   6.765
12430TIP3    H237176   3.368   0.205   6.852
12431TIP3   OH237177   3.964   0.878   8.387
12431TIP3    H137178   4.032   0.838   8.332
12431TIP3    H237179   3.950   0.808   8.454
12432TIP3   OH237180   4.107   0.531   6.514
12432TIP3    H137181   4.069   0.484   6.437
12432TIP3    H237182   4.068   0.621   6.499
12433TIP3   OH237183   3.462   0.291   8.374
12433TIP3    H137184   3.523   0.228   8.331
12433TIP3    H237185   3.462   0.368   8.312
12434TIP3   OH237186   3.613   0.586   8.027
12434TIP3    H137187   3.693   0.601   7.975
12434TIP3    H237188   3.551   0.652   7.990
12435TIP3   OH237189   4.184   0.558   8.443
12435TIP3    H137190   4.209   0.466   8.432
12435TIP3    H237191   4.252   0.606   8.395
12436TIP3   OH237192   4.220   0.796   8.168
12436TIP3    H137193   4.160   0.852   8.112
12436TIP3    H237194   4.306   0.821   8.128
12437TIP3   OH237195   3.400   0.395   8.614
12437TIP3    H137196   3.335   0.325   8.632
12437TIP3    H237197   3.437   0.361   8.530
12438TIP3   OH237198   3.884   0.417   8.492
12438TIP3    H137199   3.850   0.397   8.582
12438TIP3    H237200   3.921   0.330   8.467
12439TIP3   OH237201   3.080   1.263   6.765
12439TIP3    H137202   3.175   1.255   6.746
12439TIP3    H237203   3.051   1.311   6.685
12440TIP3   OH237204   2.561   0.643   6.981
12440TIP3    H137205   2.655   0.661   6.964
12440TIP3    H237206   2.551   0.554   6.941
12441TIP3   OH237207   2.455   1.263   7.406
12441TIP3    H137208   2.396   1.194   7.367
12441TIP3    H237209   2.506   1.207   7.469
12442TIP3   OH237210   2.603   1.114   7.583
12442TIP3    H137211   2.600   1.034   7.639
12442TIP3    H237212   2.662   1.170   7.637
12443TIP3   OH237213   4.337   1.503   7.378
12443TIP3    H137214   4.361   1.529   7.469
12443TIP3    H237215   4.403   1.550   7.325
12444TIP3   OH237216   4.370   1.524   7.654
12444TIP3    H137217   4.325   1.437   7.657
12444TIP3    H237218   4.441   1.509   7.718
12445TIP3   OH237219   4.414   1.202   8.236
12445TIP3    H137220   4.341   1.211   8.300
12445TIP3    H237221   4.455   1.291   8.240
12446TIP3   OH237222   4.233   0.712   6.853
12446TIP3    H137223   4.300   0.779   6.830
12446TIP3    H237224   4.272   0.675   6.936
12447TIP3   OH237225   4.356   0.581   7.060
12447TIP3    H137226   4.290   0.539   7.119
12447TIP3    H237227   4.420   0.618   7.124
12448TIP3   OH237228   4.412   0.976   7.492
12448TIP3    H137229   4.465   0.910   7.443
12448TIP3    H237230   4.403   1.048   7.427
12449TIP3   OH237231   4.242   1.276   7.686
12449TIP3    H137232   4.171   1.319   7.738
12449TIP3    H237233   4.190   1.228   7.617
12450TIP3   OH237234   4.297   0.488   6.703
12450TIP3    H137235   4.225   0.497   6.637
12450TIP3    H237236   4.272   0.562   6.763
12451TIP3   OH237237   4.182   0.160   6.643
12451TIP3    H137238   4.122   0.227   6.607
12451TIP3    H237239   4.131   0.079   6.630
12452TIP3   OH237240   4.173   0.440   7.207
12452TIP3    H137241   4.179   0.344   7.211
12452TIP3    H237242   4.156   0.461   7.302
12453TIP3   OH237243   2.794   0.527   7.940
12453TIP3    H137244   2.797   0.488   7.850
12453TIP3    H237245   2.889   0.523   7.964
12454TIP3   OH237246   4.466   0.859   8.062
12454TIP3    H137247   4.537   0.794   8.047
12454TIP3    H237248   4.489   0.930   8.000
12455TIP3   OH237249   4.651   0.656   8.071
12455TIP3    H137250   4.583   0.607   8.121
12455TIP3    H237251   4.732   0.616   8.104
12456TIP3   OH237252   4.153   0.156   7.048
12456TIP3    H137253   4.196   0.119   7.129
12456TIP3    H237254   4.229   0.192   7.000
12457TIP3   OH237255   4.332   0.365   7.600
12457TIP3    H137256   4.421   0.373   7.560
12457TIP3    H237257   4.353   0.381   7.693
12458TIP3   OH237258   4.397   0.484   7.848
12458TIP3    H137259   4.313   0.525   7.879
12458TIP3    H237260   4.433   0.554   7.790
12459TIP3   OH237261   2.793   0.161   8.033
12459TIP3    H137262   2.840   0.165   7.948
12459TIP3    H237263   2.809   0.247   8.071
12460TIP3   OH237264   3.919   1.372   7.035
12460TIP3    H137265   3.974   1.362   6.955
12460TIP3    H237266   3.970   1.437   7.087
12461TIP3   OH237267   3.022   1.178   8.426
12461TIP3    H137268   2.930   1.150   8.412
12461TIP3    H237269   3.034   1.159   8.521
12462TIP3   OH237270   3.199   1.208   7.968
12462TIP3    H137271   3.153   1.286   7.931
12462TIP3    H237272   3.286   1.221   7.926
12463TIP3   OH237273   3.644   1.454   8.108
12463TIP3    H137274   3.685   1.453   8.197
12463TIP3    H237275   3.711   1.505   8.057
12464TIP3   OH237276   3.823   1.607   7.966
12464TIP3    H137277   3.894   1.556   7.925
12464TIP3    H237278   3.875   1.664   8.028
12465TIP3   OH237279   2.875   1.467   7.991
12465TIP3    H137280   2.785   1.503   7.973
12465TIP3    H237281   2.890   1.500   8.080
12466TIP3   OH237282   3.113   1.446   7.852
12466TIP3    H137283   3.026   1.458   7.897
12466TIP3    H237284   3.093   1.478   7.762
12467TIP3   OH237285   3.539   1.474   7.648
12467TIP3    H137286   3.469   1.495   7.584
12467TIP3    H237287   3.552   1.561   7.693
12468TIP3   OH237288   3.808   1.411   7.701
12468TIP3    H137289   3.714   1.431   7.681
12468TIP3    H237290   3.854   1.486   7.661
12469TIP3   OH237291   4.005   1.599   7.615
12469TIP3    H137292   3.998   1.687   7.570
12469TIP3    H237293   4.036   1.542   7.541
12470TIP3   OH237294   2.786   1.258   7.740
12470TIP3    H137295   2.816   1.234   7.831
12470TIP3    H237296   2.859   1.215   7.689
12471TIP3   OH237297   2.981   1.132   7.597
12471TIP3    H137298   2.996   1.047   7.645
12471TIP3    H237299   3.073   1.167   7.593
12472TIP3   OH237300   3.249   1.225   7.600
12472TIP3    H137301   3.279   1.133   7.589
12472TIP3    H237302   3.295   1.247   7.683
12473TIP3   OH237303   2.575   1.034   7.130
12473TIP3    H137304   2.492   0.995   7.097
12473TIP3    H237305   2.565   1.125   7.097
12474TIP3   OH237306   3.347   1.219   6.711
12474TIP3    H137307   3.435   1.242   6.675
12474TIP3    H237308   3.325   1.144   6.652
12475TIP3   OH237309   4.069   1.339   6.805
12475TIP3    H137310   4.061   1.242   6.793
12475TIP3    H237311   4.022   1.371   6.725
12476TIP3   OH237312   2.655   1.060   6.768
12476TIP3    H137313   2.656   1.076   6.864
12476TIP3    H237314   2.741   1.015   6.753
12477TIP3   OH237315   4.293   1.483   7.991
12477TIP3    H137316   4.214   1.452   7.943
12477TIP3    H237317   4.274   1.579   7.997
12478TIP3   OH237318   5.559   0.852   6.755
12478TIP3    H137319   5.528   0.944   6.744
12478TIP3    H237320   5.482   0.804   6.721
12479TIP3   OH237321   5.550   0.855   7.144
12479TIP3    H137322   5.588   0.830   7.230
12479TIP3    H237323   5.512   0.769   7.116
12480TIP3   OH237324   4.859   0.757   7.497
12480TIP3    H137325   4.884   0.686   7.560
12480TIP3    H237326   4.936   0.814   7.507
12481TIP3   OH237327   5.798   1.158   6.823
12481TIP3    H137328   5.794   1.087   6.888
12481TIP3    H237329   5.834   1.232   6.875
12482TIP3   OH237330   4.828   1.158   7.226
12482TIP3    H137331   4.818   1.061   7.229
12482TIP3    H237332   4.925   1.167   7.230
12483TIP3   OH237333   4.531   0.356   7.018
12483TIP3    H137334   4.480   0.436   7.038
12483TIP3    H237335   4.468   0.307   6.962
12484TIP3   OH237336   4.594   0.645   7.189
12484TIP3    H137337   4.641   0.568   7.230
12484TIP3    H237338   4.656   0.669   7.119
12485TIP3   OH237339   5.459   1.613   6.846
12485TIP3    H137340   5.497   1.553   6.779
12485TIP3    H237341   5.464   1.556   6.924
12486TIP3   OH237342   5.359   1.080   7.187
12486TIP3    H137343   5.399   0.999   7.150
12486TIP3    H237344   5.441   1.128   7.209
12487TIP3   OH237345   5.768   0.591   7.222
12487TIP3    H137346   5.803   0.507   7.253
12487TIP3    H237347   5.741   0.570   7.131
12488TIP3   OH237348   4.740   0.440   7.291
12488TIP3    H137349   4.822   0.419   7.342
12488TIP3    H237350   4.758   0.385   7.212
12489TIP3   OH237351   5.185   0.654   7.089
12489TIP3    H137352   5.273   0.613   7.100
12489TIP3    H237353   5.132   0.580   7.052
12490TIP3   OH237354   6.416   0.581   7.377
12490TIP3    H137355   6.355   0.654   7.354
12490TIP3    H237356   6.465   0.617   7.453
12491TIP3   OH237357   5.419   1.061   6.632
12491TIP3    H137358   5.426   1.068   6.536
12491TIP3    H237359   5.392   1.153   6.655
12492TIP3   OH237360   5.211   1.001   7.414
12492TIP3    H137361   5.148   1.066   7.453
12492TIP3    H237362   5.253   1.053   7.343
12493TIP3   OH237363   4.978   0.356   7.387
12493TIP3    H137364   5.049   0.418   7.413
12493TIP3    H237365   5.023   0.298   7.324
12494TIP3   OH237366   5.037   1.193   7.510
12494TIP3    H137367   5.011   1.281   7.477
12494TIP3    H237368   4.959   1.175   7.568
12495TIP3   OH237369   4.444   0.880   6.744
12495TIP3    H137370   4.392   0.908   6.666
12495TIP3    H237371   4.466   0.967   6.784
12496TIP3   OH237372   5.863   1.399   6.986
12496TIP3    H137373   5.773   1.395   7.023
12496TIP3    H237374   5.864   1.486   6.942
12497TIP3   OH237375   5.567   1.449   6.655
12497TIP3    H137376   5.615   1.364   6.638
12497TIP3    H237377   5.632   1.512   6.617
12498TIP3   OH237378   5.700   1.224   6.573
12498TIP3    H137379   5.710   1.146   6.516
12498TIP3    H237380   5.742   1.193   6.656
12499TIP3   OH237381   6.097   1.309   7.335
12499TIP3    H137382   6.089   1.234   7.272
12499TIP3    H237383   6.082   1.386   7.275
12500TIP3   OH237384   5.386   0.711   6.576
12500TIP3    H137385   5.320   0.740   6.512
12500TIP3    H237386   5.460   0.694   6.514
12501TIP3   OH237387   5.351   0.489   6.302
12501TIP3    H137388   5.429   0.535   6.337
12501TIP3    H237389   5.391   0.407   6.269
12502TIP3   OH237390   6.292   0.946   7.179
12502TIP3    H137391   6.210   1.000   7.182
12502TIP3    H237392   6.324   0.970   7.089
12503TIP3   OH237393   5.739   0.788   6.560
12503TIP3    H137394   5.688   0.813   6.641
12503TIP3    H237395   5.823   0.759   6.600
12504TIP3   OH237396   5.967   0.834   7.469
12504TIP3    H137397   5.968   0.918   7.520
12504TIP3    H237398   5.884   0.845   7.418
12505TIP3   OH237399   5.106   1.204   7.120
12505TIP3    H137400   5.085   1.155   7.039
12505TIP3    H237401   5.194   1.167   7.143
12506TIP3   OH237402   5.111   0.755   7.331
12506TIP3    H137403   5.145   0.730   7.242
12506TIP3    H237404   5.156   0.839   7.349
12507TIP3   OH237405   5.620   1.398   7.110
12507TIP3    H137406   5.623   1.472   7.173
12507TIP3    H237407   5.614   1.320   7.169
12508TIP3   OH237408   5.243   1.317   7.652
12508TIP3    H137409   5.184   1.377   7.703
12508TIP3    H237410   5.177   1.262   7.606
12509TIP3   OH237411   5.572   0.649   6.389
12509TIP3    H137412   5.641   0.698   6.439
12509TIP3    H237413   5.599   0.671   6.297
12510TIP3   OH237414   4.990   0.885   7.746
12510TIP3    H137415   4.995   0.966   7.801
12510TIP3    H237416   4.899   0.856   7.767
12511TIP3   OH237417   5.319   1.328   6.663
12511TIP3    H137418   5.403   1.378   6.673
12511TIP3    H237419   5.261   1.394   6.622
12512TIP3   OH237420   5.037   1.484   7.743
12512TIP3    H137421   5.000   1.479   7.653
12512TIP3    H237422   4.958   1.461   7.798
12513TIP3   OH237423   5.894   1.256   5.985
12513TIP3    H137424   5.903   1.352   5.969
12513TIP3    H237425   5.987   1.226   5.971
12514TIP3   OH237426   4.617   1.015   7.689
12514TIP3    H137427   4.549   0.992   7.622
12514TIP3    H237428   4.654   0.927   7.713
12515TIP3   OH237429   4.471   1.209   7.318
12515TIP3    H137430   4.567   1.206   7.318
12515TIP3    H237431   4.454   1.285   7.376
12516TIP3   OH237432   6.342   1.660   7.390
12516TIP3    H137433   6.335   1.563   7.394
12516TIP3    H237434   6.255   1.686   7.426
12517TIP3   OH237435   5.436   1.448   7.508
12517TIP3    H137436   5.438   1.539   7.546
12517TIP3    H237437   5.369   1.405   7.567
12518TIP3   OH237438   5.202   1.570   6.467
12518TIP3    H137439   5.159   1.553   6.381
12518TIP3    H237440   5.171   1.660   6.490
12519TIP3   OH237441   4.640   1.423   6.850
12519TIP3    H137442   4.688   1.414   6.935
12519TIP3    H237443   4.580   1.347   6.855
12520TIP3   OH237444   5.403   1.472   6.104
12520TIP3    H137445   5.463   1.403   6.067
12520TIP3    H237446   5.440   1.484   6.194
12521TIP3   OH237447   5.454   1.522   6.374
12521TIP3    H137448   5.367   1.531   6.419
12521TIP3    H237449   5.509   1.486   6.445
12522TIP3   OH237450   6.229   0.781   7.671
12522TIP3    H137451   6.158   0.816   7.615
12522TIP3    H237452   6.250   0.697   7.629
12523TIP3   OH237453   4.822   1.197   7.677
12523TIP3    H137454   4.871   1.181   7.760
12523TIP3    H237455   4.748   1.133   7.685
12524TIP3   OH237456   5.889   0.650   7.663
12524TIP3    H137457   5.943   0.571   7.649
12524TIP3    H237458   5.916   0.708   7.589
12525TIP3   OH237459   5.652   0.703   6.138
12525TIP3    H137460   5.619   0.661   6.057
12525TIP3    H237461   5.734   0.744   6.105
12526TIP3   OH237462   5.159   0.536   7.488
12526TIP3    H137463   5.098   0.558   7.562
12526TIP3    H237464   5.144   0.614   7.429
12527TIP3   OH237465   5.006   0.467   6.974
12527TIP3    H137466   4.945   0.405   7.016
12527TIP3    H237467   5.041   0.412   6.901
12528TIP3   OH237468   5.531   0.512   6.722
12528TIP3    H137469   5.480   0.582   6.678
12528TIP3    H237470   5.583   0.474   6.648
12529TIP3   OH237471   5.699   0.838   7.770
12529TIP3    H137472   5.693   0.785   7.853
12529TIP3    H237473   5.795   0.834   7.756
12530TIP3   OH237474   5.690   0.534   6.961
12530TIP3    H137475   5.631   0.559   6.887
12530TIP3    H237476   5.728   0.452   6.927
12531TIP3   OH237477   4.968   0.577   7.684
12531TIP3    H137478   5.006   0.621   7.762
12531TIP3    H237479   4.942   0.491   7.719
12532TIP3   OH237480   5.688   0.787   7.389
12532TIP3    H137481   5.720   0.715   7.329
12532TIP3    H237482   5.664   0.734   7.467
12533TIP3   OH237483   4.795   0.296   7.062
12533TIP3    H137484   4.701   0.313   7.039
12533TIP3    H237485   4.798   0.199   7.058
12534TIP3   OH237486   5.087   0.334   6.745
12534TIP3    H137487   5.176   0.298   6.730
12534TIP3    H237488   5.036   0.300   6.670
12535TIP3   OH237489   4.892   0.364   6.522
12535TIP3    H137490   4.841   0.295   6.476
12535TIP3    H237491   4.963   0.380   6.456
12536TIP3   OH237492   6.026   2.009   7.480
12536TIP3    H137493   6.025   2.029   7.384
12536TIP3    H237494   6.108   2.056   7.508
12537TIP3   OH237495   4.983   1.121   7.900
12537TIP3    H137496   5.064   1.148   7.948
12537TIP3    H237497   4.919   1.119   7.973
12538TIP3   OH237498   5.449   0.576   7.158
12538TIP3    H137499   5.513   0.524   7.107
12538TIP3    H237500   5.444   0.525   7.241
12539TIP3   OH237501   5.427   0.463   7.459
12539TIP3    H137502   5.339   0.505   7.466
12539TIP3    H237503   5.483   0.522   7.513
12540TIP3   OH237504   5.134   0.878   6.538
12540TIP3    H137505   5.106   0.785   6.537
12540TIP3    H237506   5.197   0.881   6.612
12541TIP3   OH237507   6.062   1.095   7.166
12541TIP3    H137508   6.089   1.146   7.086
12541TIP3    H237509   5.977   1.055   7.138
12542TIP3   OH237510   5.557   1.175   7.535
12542TIP3    H137511   5.590   1.151   7.622
12542TIP3    H237512   5.522   1.264   7.549
12543TIP3   OH237513   5.676   0.406   6.513
12543TIP3    H137514   5.774   0.407   6.521
12543TIP3    H237515   5.662   0.464   6.436
12544TIP3   OH237516   4.856   0.873   7.222
12544TIP3    H137517   4.933   0.841   7.173
12544TIP3    H237518   4.865   0.822   7.304
12545TIP3   OH237519   5.303   1.010   6.356
12545TIP3    H137520   5.264   1.101   6.359
12545TIP3    H237521   5.244   0.966   6.419
12546TIP3   OH237522   4.733   0.803   7.827
12546TIP3    H137523   4.758   0.787   7.921
12546TIP3    H237524   4.664   0.736   7.813
12547TIP3   OH237525   5.452   0.924   7.849
12547TIP3    H137526   5.387   0.865   7.806
12547TIP3    H237527   5.535   0.899   7.804
12548TIP3   OH237528   5.716   1.439   7.428
12548TIP3    H137529   5.620   1.439   7.445
12548TIP3    H237530   5.748   1.490   7.506
12549TIP3   OH237531   6.129   0.505   6.335
12549TIP3    H137532   6.076   0.455   6.270
12549TIP3    H237533   6.123   0.594   6.295
12550TIP3   OH237534   6.348   1.361   7.425
12550TIP3    H137535   6.250   1.360   7.414
12550TIP3    H237536   6.374   1.336   7.333
12551TIP3   OH237537   5.821   1.328   6.245
12551TIP3    H137538   5.811   1.253   6.305
12551TIP3    H237539   5.843   1.285   6.160
12552TIP3   OH237540   5.825   0.958   7.085
12552TIP3    H137541   5.732   0.932   7.096
12552TIP3    H237542   5.861   0.879   7.041
12553TIP3   OH237543   4.936   1.154   6.831
12553TIP3    H137544   4.965   1.231   6.780
12553TIP3    H237545   4.845   1.178   6.851
12554TIP3   OH237546   4.506   0.491   6.525
12554TIP3    H137547   4.564   0.561   6.557
12554TIP3    H237548   4.435   0.492   6.594
12555TIP3   OH237549   5.224   1.518   7.323
12555TIP3    H137550   5.272   1.586   7.275
12555TIP3    H237551   5.297   1.476   7.373
12556TIP3   OH237552   4.872   1.423   6.688
12556TIP3    H137553   4.788   1.432   6.738
12556TIP3    H237554   4.906   1.515   6.693
12557TIP3   OH237555   5.611   1.165   7.265
12557TIP3    H137556   5.601   1.163   7.363
12557TIP3    H237557   5.692   1.113   7.253
12558TIP3   OH237558   5.589   1.057   6.153
12558TIP3    H137559   5.643   1.034   6.231
12558TIP3    H237560   5.502   1.026   6.181
12559TIP3   OH237561   5.860   1.698   7.319
12559TIP3    H137562   5.782   1.641   7.313
12559TIP3    H237563   5.845   1.762   7.246
12560TIP3   OH237564   5.925   1.532   5.969
12560TIP3    H137565   5.968   1.607   5.924
12560TIP3    H237566   5.844   1.577   6.001
12561TIP3   OH237567   5.748   1.000   6.378
12561TIP3    H137568   5.737   0.925   6.440
12561TIP3    H237569   5.844   0.991   6.357
12562TIP3   OH237570   4.662   1.390   7.466
12562TIP3    H137571   4.716   1.321   7.509
12562TIP3    H237572   4.681   1.466   7.523
12563TIP3   OH237573   4.948   1.039   6.150
12563TIP3    H137574   4.969   0.949   6.120
12563TIP3    H237575   4.931   1.025   6.245
12564TIP3   OH237576   4.904   1.037   6.428
12564TIP3    H137577   4.992   1.022   6.467
12564TIP3    H237578   4.898   1.136   6.432
12565TIP3   OH237579   4.684   0.767   6.643
12565TIP3    H137580   4.603   0.783   6.697
12565TIP3    H237581   4.659   0.820   6.563
12566TIP3   OH237582   5.160   1.238   6.370
12566TIP3    H137583   5.074   1.267   6.406
12566TIP3    H237584   5.180   1.312   6.310
12567TIP3   OH237585   5.369   0.297   6.780
12567TIP3    H137586   5.418   0.380   6.765
12567TIP3    H237587   5.343   0.304   6.873
12568TIP3   OH237588   5.613   0.616   7.612
12568TIP3    H137589   5.624   0.692   7.673
12568TIP3    H237590   5.701   0.576   7.621
12569TIP3   OH237591   4.902   1.312   6.437
12569TIP3    H137592   4.875   1.383   6.375
12569TIP3    H237593   4.889   1.356   6.524
12570TIP3   OH237594   5.910   0.721   6.960
12570TIP3    H137595   5.840   0.655   6.975
12570TIP3    H237596   5.987   0.680   7.008
12571TIP3   OH237597   4.625   0.939   6.434
12571TIP3    H137598   4.682   1.018   6.441
12571TIP3    H237599   4.668   0.893   6.360
12572TIP3   OH237600   4.537   0.194   6.549
12572TIP3    H137601   4.579   0.282   6.551
12572TIP3    H237602   4.466   0.207   6.614
12573TIP3   OH237603   5.899   1.678   6.909
12573TIP3    H137604   5.855   1.725   6.835
12573TIP3    H237605   5.992   1.692   6.885
12574TIP3   OH237606   4.492   1.150   6.815
12574TIP3    H137607   4.430   1.185   6.882
12574TIP3    H237608   4.461   1.197   6.734
12575TIP3   OH237609   4.654   1.700   7.892
12575TIP3    H137610   4.740   1.698   7.940
12575TIP3    H237611   4.632   1.605   7.890
12576TIP3   OH237612   5.136   1.670   7.926
12576TIP3    H137613   5.228   1.643   7.941
12576TIP3    H237614   5.109   1.604   7.859
12577TIP3   OH237615   5.115   1.241   6.061
12577TIP3    H137616   5.061   1.168   6.099
12577TIP3    H237617   5.191   1.191   6.026
12578TIP3   OH237618   5.772   1.569   7.665
12578TIP3    H137619   5.764   1.501   7.736
12578TIP3    H237620   5.849   1.621   7.695
12579TIP3   OH237621   5.549   1.279   5.973
12579TIP3    H137622   5.596   1.219   6.034
12579TIP3    H237623   5.608   1.280   5.895
12580TIP3   OH237624   4.783   1.107   8.090
12580TIP3    H137625   4.800   1.011   8.098
12580TIP3    H237626   4.695   1.108   8.045
12581TIP3   OH237627   4.752   0.759   6.276
12581TIP3    H137628   4.804   0.709   6.340
12581TIP3    H237629   4.819   0.766   6.204
12582TIP3   OH237630   5.390   1.195   7.864
12582TIP3    H137631   5.350   1.206   7.776
12582TIP3    H237632   5.421   1.102   7.861
12583TIP3   OH237633   5.265   0.955   6.090
12583TIP3    H137634   5.274   0.969   6.186
12583TIP3    H237635   5.274   0.857   6.085
12584TIP3   OH237636   5.881   1.201   7.469
12584TIP3    H137637   5.958   1.243   7.425
12584TIP3    H237638   5.813   1.269   7.454
12585TIP3   OH237639   4.902   0.835   8.072
12585TIP3    H137640   4.978   0.780   8.052
12585TIP3    H237641   4.927   0.868   8.161
12586TIP3   OH237642   4.963   0.627   6.567
12586TIP3    H137643   4.937   0.533   6.583
12586TIP3    H237644   5.018   0.609   6.488
12587TIP3   OH237645   5.244   0.775   7.723
12587TIP3    H137646   5.158   0.822   7.717
12587TIP3    H237647   5.288   0.798   7.638
12588TIP3   OH237648   5.071   0.483   6.348
12588TIP3    H137649   5.046   0.472   6.254
12588TIP3    H237650   5.168   0.471   6.340
12589TIP3   OH237651   5.756   1.133   7.871
12589TIP3    H137652   5.834   1.101   7.824
12589TIP3    H237653   5.747   1.066   7.941
12590TIP3   OH237654   5.887   0.784   6.010
12590TIP3    H137655   5.866   0.739   5.926
12590TIP3    H237656   5.857   0.875   5.986
12591TIP3   OH237657   5.244   0.539   7.850
12591TIP3    H137658   5.329   0.493   7.837
12591TIP3    H237659   5.254   0.621   7.796
12592TIP3   OH237660   5.406   0.838   7.514
12592TIP3    H137661   5.490   0.852   7.467
12592TIP3    H237662   5.348   0.907   7.474
12593TIP3   OH237663   5.973   0.815   7.926
12593TIP3    H137664   6.012   0.727   7.924
12593TIP3    H237665   6.044   0.871   7.890
12594TIP3   OH237666   6.015   1.053   7.651
12594TIP3    H137667   5.956   1.109   7.596
12594TIP3    H237668   6.102   1.078   7.613
12595TIP3   OH237669   5.208   0.652   8.098
12595TIP3    H137670   5.140   0.584   8.108
12595TIP3    H237671   5.243   0.624   8.012
12596TIP3   OH237672   5.672   0.670   7.975
12596TIP3    H137673   5.652   0.655   8.069
12596TIP3    H237674   5.721   0.588   7.951
12597TIP3   OH237675   4.876   1.515   6.250
12597TIP3    H137676   4.972   1.511   6.232
12597TIP3    H237677   4.847   1.566   6.172
12598TIP3   OH237678   4.355   0.901   6.468
12598TIP3    H137679   4.449   0.924   6.455
12598TIP3    H237680   4.349   0.815   6.422
12599TIP3   OH237681   4.272   1.511   6.881
12599TIP3    H137682   4.204   1.450   6.845
12599TIP3    H237683   4.315   1.452   6.947
12600TIP3   OH237684   4.409   1.358   7.066
12600TIP3    H137685   4.394   1.289   7.132
12600TIP3    H237686   4.458   1.422   7.120
12601TIP3   OH237687   6.151   1.786   7.169
12601TIP3    H137688   6.122   1.697   7.143
12601TIP3    H237689   6.245   1.769   7.184
12602TIP3   OH237690   6.209   1.458   7.725
12602TIP3    H137691   6.136   1.469   7.789
12602TIP3    H237692   6.250   1.546   7.726
12603TIP3   OH237693   6.024   0.972   6.341
12603TIP3    H137694   6.092   1.036   6.311
12603TIP3    H237695   6.069   0.934   6.420
12604TIP3   OH237696   6.152   0.839   6.544
12604TIP3    H137697   6.089   0.798   6.606
12604TIP3    H237698   6.221   0.875   6.604
12605TIP3   OH237699   6.204   1.232   6.975
12605TIP3    H137700   6.260   1.170   6.925
12605TIP3    H237701   6.207   1.312   6.918
12606TIP3   OH237702   6.037   1.522   7.175
12606TIP3    H137703   5.970   1.575   7.221
12606TIP3    H237704   5.985   1.479   7.103
12607TIP3   OH237705   6.087   0.743   6.192
12607TIP3    H137706   6.017   0.754   6.124
12607TIP3    H237707   6.066   0.820   6.249
12608TIP3   OH237708   5.963   0.409   6.135
12608TIP3    H137709   5.915   0.486   6.104
12608TIP3    H237710   5.892   0.342   6.135
12609TIP3   OH237711   5.966   0.698   6.694
12609TIP3    H137712   5.978   0.602   6.692
12609TIP3    H237713   5.952   0.715   6.789
12610TIP3   OH237714   4.592   0.769   7.440
12610TIP3    H137715   4.590   0.736   7.347
12610TIP3    H237716   4.689   0.772   7.456
12611TIP3   OH237717   6.261   1.115   7.548
12611TIP3    H137718   6.334   1.051   7.533
12611TIP3    H237719   6.285   1.188   7.489
12612TIP3   OH237720   6.445   0.910   7.557
12612TIP3    H137721   6.380   0.862   7.613
12612TIP3    H237722   6.529   0.878   7.592
12613TIP3   OH237723   5.947   0.414   6.537
12613TIP3    H137724   5.995   0.378   6.615
12613TIP3    H237725   6.021   0.444   6.481
12614TIP3   OH237726   6.129   0.622   7.087
12614TIP3    H137727   6.217   0.630   7.045
12614TIP3    H237728   6.151   0.640   7.179
12615TIP3   OH237729   6.192   0.740   7.335
12615TIP3    H137730   6.109   0.783   7.365
12615TIP3    H237731   6.230   0.811   7.277
12616TIP3   OH237732   4.585   0.427   7.518
12616TIP3    H137733   4.633   0.415   7.434
12616TIP3    H237734   4.615   0.514   7.546
12617TIP3   OH237735   5.714   1.631   6.523
12617TIP3    H137736   5.767   1.617   6.442
12617TIP3    H237737   5.771   1.693   6.573
12618TIP3   OH237738   4.819   1.433   7.909
12618TIP3    H137739   4.726   1.407   7.894
12618TIP3    H237740   4.829   1.413   8.003
12619TIP3   OH237741   4.993   1.460   7.461
12619TIP3    H137742   4.944   1.534   7.418
12619TIP3    H237743   5.080   1.474   7.418
12620TIP3   OH237744   5.438   1.716   7.594
12620TIP3    H137745   5.483   1.711   7.681
12620TIP3    H237746   5.508   1.762   7.541
12621TIP3   OH237747   5.630   1.852   7.457
12621TIP3    H137748   5.705   1.808   7.416
12621TIP3    H237749   5.677   1.918   7.514
12622TIP3   OH237750   4.673   1.736   7.482
12622TIP3    H137751   4.631   1.809   7.434
12622TIP3    H237752   4.677   1.772   7.572
12623TIP3   OH237753   4.900   1.683   7.334
12623TIP3    H137754   4.818   1.703   7.383
12623TIP3    H237755   4.887   1.734   7.252
12624TIP3   OH237756   5.603   1.673   7.184
12624TIP3    H137757   5.524   1.700   7.137
12624TIP3    H237758   5.667   1.740   7.152
12625TIP3   OH237759   5.793   1.852   7.098
12625TIP3    H137760   5.790   1.941   7.056
12625TIP3    H237761   5.837   1.800   7.028
12626TIP3   OH237762   4.584   1.516   7.225
12626TIP3    H137763   4.610   1.488   7.315
12626TIP3    H237764   4.656   1.472   7.174
12627TIP3   OH237765   4.778   1.387   7.082
12627TIP3    H137766   4.793   1.303   7.132
12627TIP3    H237767   4.869   1.424   7.078
12628TIP3   OH237768   5.045   1.481   7.087
12628TIP3    H137769   5.079   1.390   7.076
12628TIP3    H237770   5.077   1.500   7.176
12629TIP3   OH237771   4.373   1.288   6.616
12629TIP3    H137772   4.287   1.257   6.583
12629TIP3    H237773   4.364   1.383   6.597
12630TIP3   OH237774   5.145   1.475   6.201
12630TIP3    H137775   5.233   1.498   6.164
12630TIP3    H237776   5.123   1.401   6.140
12631TIP3   OH237777   5.859   1.594   6.292
12631TIP3    H137778   5.850   1.497   6.278
12631TIP3    H237779   5.818   1.628   6.210
12632TIP3   OH237780   4.446   1.309   6.255
12632TIP3    H137781   4.448   1.340   6.346
12632TIP3    H237782   4.537   1.271   6.244
12633TIP3   OH237783   6.087   1.738   7.485
12633TIP3    H137784   6.013   1.709   7.429
12633TIP3    H237785   6.074   1.835   7.483
12634TIP3   OH237786   7.356   1.112   6.245
12634TIP3    H137787   7.327   1.203   6.225
12634TIP3    H237788   7.280   1.062   6.211
12635TIP3   OH237789   7.357   1.111   6.626
12635TIP3    H137790   7.386   1.081   6.713
12635TIP3    H237791   7.312   1.032   6.592
12636TIP3   OH237792   6.652   1.010   6.992
12636TIP3    H137793   6.689   0.945   7.054
12636TIP3    H237794   6.729   1.066   6.977
12637TIP3   OH237795   7.600   1.414   6.308
12637TIP3    H137796   7.582   1.346   6.374
12637TIP3    H237797   7.627   1.489   6.363
12638TIP3   OH237798   6.626   1.414   6.722
12638TIP3    H137799   6.619   1.317   6.722
12638TIP3    H237800   6.721   1.426   6.709
12639TIP3   OH237801   6.324   0.606   6.508
12639TIP3    H137802   6.280   0.692   6.522
12639TIP3    H237803   6.260   0.562   6.448
12640TIP3   OH237804   6.391   0.902   6.672
12640TIP3    H137805   6.442   0.827   6.710
12640TIP3    H237806   6.455   0.940   6.610
12641TIP3   OH237807   7.248   1.877   6.324
12641TIP3    H137808   7.293   1.805   6.276
12641TIP3    H237809   7.237   1.838   6.412
12642TIP3   OH237810   7.152   1.336   6.677
12642TIP3    H137811   7.190   1.261   6.628
12642TIP3    H237812   7.236   1.382   6.700
12643TIP3   OH237813   7.566   0.846   6.709
12643TIP3    H137814   7.599   0.760   6.735
12643TIP3    H237815   7.535   0.831   6.618
12644TIP3   OH237816   6.539   0.696   6.780
12644TIP3    H137817   6.619   0.672   6.830
12644TIP3    H237818   6.556   0.643   6.699
12645TIP3   OH237819   6.978   0.899   6.580
12645TIP3    H137820   7.070   0.867   6.591
12645TIP3    H237821   6.933   0.817   6.548
12646TIP3   OH237822   8.214   0.839   6.863
12646TIP3    H137823   8.151   0.910   6.839
12646TIP3    H237824   8.259   0.876   6.941
12647TIP3   OH237825   7.247   1.333   6.115
12647TIP3    H137826   7.205   1.313   6.031
12647TIP3    H237827   7.202   1.417   6.139
12648TIP3   OH237828   7.008   1.256   6.902
12648TIP3    H137829   6.946   1.323   6.939
12648TIP3    H237830   7.048   1.306   6.828
12649TIP3   OH237831   6.780   0.604   6.876
12649TIP3    H137832   6.844   0.674   6.900
12649TIP3    H237833   6.820   0.566   6.796
12650TIP3   OH237834   6.838   1.451   6.997
12650TIP3    H137835   6.810   1.536   6.958
12650TIP3    H237836   6.760   1.434   7.054
12651TIP3   OH237837   6.225   1.140   6.235
12651TIP3    H137838   6.189   1.171   6.151
12651TIP3    H237839   6.258   1.224   6.274
12652TIP3   OH237840   7.670   1.657   6.475
12652TIP3    H137841   7.580   1.649   6.515
12652TIP3    H237842   7.661   1.743   6.429
12653TIP3   OH237843   7.370   1.703   6.149
12653TIP3    H137844   7.420   1.620   6.128
12653TIP3    H237845   7.431   1.768   6.108
12654TIP3   OH237846   7.513   1.488   6.056
12654TIP3    H137847   7.477   1.408   6.016
12654TIP3    H237848   7.549   1.453   6.140
12655TIP3   OH237849   7.895   1.568   6.819
12655TIP3    H137850   7.882   1.492   6.759
12655TIP3    H237851   7.876   1.644   6.760
12656TIP3   OH237852   7.187   0.964   6.077
12656TIP3    H137853   7.106   1.014   6.055
12656TIP3    H237854   7.231   0.959   5.990
12657TIP3   OH237855   7.141   0.753   5.793
12657TIP3    H137856   7.216   0.799   5.836
12657TIP3    H237857   7.191   0.685   5.743
12658TIP3   OH237858   8.090   1.205   6.667
12658TIP3    H137859   8.006   1.256   6.670
12658TIP3    H237860   8.119   1.228   6.576
12659TIP3   OH237861   7.534   1.046   6.047
12659TIP3    H137862   7.479   1.071   6.125
12659TIP3    H237863   7.617   1.020   6.090
12660TIP3   OH237864   7.764   1.090   6.955
12660TIP3    H137865   7.763   1.175   7.003
12660TIP3    H237866   7.680   1.096   6.906
12661TIP3   OH237867   6.767   1.044   6.465
12661TIP3    H137868   6.724   0.986   6.398
12661TIP3    H237869   6.842   0.987   6.495
12662TIP3   OH237870   6.894   1.454   6.614
12662TIP3    H137871   6.874   1.415   6.527
12662TIP3    H237872   6.984   1.420   6.632
12663TIP3   OH237873   6.903   1.011   6.823
12663TIP3    H137874   6.933   0.987   6.733
12663TIP3    H237875   6.947   1.097   6.838
12664TIP3   OH237876   7.429   1.653   6.596
12664TIP3    H137877   7.413   1.733   6.649
12664TIP3    H237878   7.412   1.580   6.659
12665TIP3   OH237879   7.040   1.571   7.143
12665TIP3    H137880   6.979   1.633   7.189
12665TIP3    H237881   6.975   1.518   7.092
12666TIP3   OH237882   7.376   0.894   5.876
12666TIP3    H137883   7.436   0.953   5.928
12666TIP3    H237884   7.402   0.919   5.784
12667TIP3   OH237885   6.789   1.136   7.241
12667TIP3    H137886   6.792   1.221   7.290
12667TIP3    H237887   6.694   1.114   7.251
12668TIP3   OH237888   7.119   1.582   6.148
12668TIP3    H137889   7.199   1.636   6.163
12668TIP3    H237890   7.056   1.646   6.111
12669TIP3   OH237891   6.835   1.739   7.229
12669TIP3    H137892   6.799   1.740   7.139
12669TIP3    H237893   6.755   1.717   7.283
12670TIP3   OH237894   6.632   0.894   6.269
12670TIP3    H137895   6.560   0.928   6.212
12670TIP3    H237896   6.609   0.801   6.280
12671TIP3   OH237897   7.689   1.512   5.471
12671TIP3    H137898   7.698   1.609   5.456
12671TIP3    H237899   7.782   1.482   5.459
12672TIP3   OH237900   6.411   1.271   7.179
12672TIP3    H137901   6.351   1.252   7.105
12672TIP3    H237902   6.451   1.184   7.198
12673TIP3   OH237903   6.271   1.470   6.816
12673TIP3    H137904   6.365   1.456   6.797
12673TIP3    H237905   6.277   1.552   6.868
12674TIP3   OH237906   8.133   1.916   6.867
12674TIP3    H137907   8.130   1.819   6.879
12674TIP3    H237908   8.049   1.942   6.911
12675TIP3   OH237909   7.239   1.699   7.001
12675TIP3    H137910   7.236   1.792   7.033
12675TIP3    H237911   7.166   1.660   7.054
12676TIP3   OH237912   6.999   1.829   5.951
12676TIP3    H137913   6.952   1.812   5.868
12676TIP3    H237914   6.966   1.918   5.977
12677TIP3   OH237915   6.432   1.681   6.332
12677TIP3    H137916   6.489   1.671   6.412
12677TIP3    H237917   6.365   1.614   6.353
12678TIP3   OH237918   7.199   1.730   5.591
12678TIP3    H137919   7.258   1.660   5.555
12678TIP3    H237920   7.234   1.740   5.682
12679TIP3   OH237921   7.250   1.779   5.861
12679TIP3    H137922   7.162   1.788   5.904
12679TIP3    H237923   7.302   1.739   5.933
12680TIP3   OH237924   8.025   1.040   7.157
12680TIP3    H137925   7.950   1.077   7.106
12680TIP3    H237926   8.040   0.955   7.114
12681TIP3   OH237927   6.626   1.445   7.164
12681TIP3    H137928   6.670   1.431   7.250
12681TIP3    H237929   6.545   1.392   7.173
12682TIP3   OH237930   7.693   0.908   7.155
12682TIP3    H137931   7.735   0.824   7.132
12682TIP3    H237932   7.709   0.964   7.077
12683TIP3   OH237933   7.452   0.951   5.621
12683TIP3    H137934   7.417   0.927   5.533
12683TIP3    H237935   7.534   0.996   5.596
12684TIP3   OH237936   6.957   0.790   6.974
12684TIP3    H137937   6.897   0.812   7.048
12684TIP3    H237938   6.944   0.869   6.917
12685TIP3   OH237939   6.818   0.702   6.476
12685TIP3    H137940   6.743   0.649   6.506
12685TIP3    H237941   6.842   0.655   6.393
12686TIP3   OH237942   7.330   0.768   6.208
12686TIP3    H137943   7.277   0.840   6.167
12686TIP3    H237944   7.377   0.731   6.130
12687TIP3   OH237945   7.496   1.094   7.257
12687TIP3    H137946   7.491   1.044   7.341
12687TIP3    H237947   7.591   1.088   7.241
12688TIP3   OH237948   7.486   0.794   6.447
12688TIP3    H137949   7.426   0.825   6.377
12688TIP3    H237950   7.517   0.712   6.408
12689TIP3   OH237951   6.772   0.832   7.171
12689TIP3    H137952   6.796   0.886   7.248
12689TIP3    H237953   6.735   0.753   7.212
12690TIP3   OH237954   7.492   1.041   6.879
12690TIP3    H137955   7.521   0.970   6.817
12690TIP3    H237956   7.457   0.988   6.953
12691TIP3   OH237957   6.589   0.553   6.550
12691TIP3    H137958   6.494   0.571   6.527
12691TIP3    H237959   6.594   0.458   6.534
12692TIP3   OH237960   6.877   0.574   6.239
12692TIP3    H137961   6.962   0.549   6.200
12692TIP3    H237962   6.816   0.566   6.162
12693TIP3   OH237963   6.699   0.588   6.018
12693TIP3    H137964   6.641   0.538   5.957
12693TIP3    H237965   6.760   0.628   5.953
12694TIP3   OH237966   7.824   2.264   6.964
12694TIP3    H137967   7.820   2.289   6.870
12694TIP3    H237968   7.901   2.315   6.995
12695TIP3   OH237969   6.780   1.373   7.390
12695TIP3    H137970   6.860   1.404   7.436
12695TIP3    H237971   6.715   1.377   7.463
12696TIP3   OH237972   7.246   0.832   6.647
12696TIP3    H137973   7.305   0.779   6.592
12696TIP3    H237974   7.241   0.778   6.728
12697TIP3   OH237975   7.224   0.715   6.950
12697TIP3    H137976   7.135   0.755   6.954
12697TIP3    H237977   7.278   0.777   7.003
12698TIP3   OH237978   6.956   1.115   6.024
12698TIP3    H137979   6.883   1.050   6.014
12698TIP3    H237980   6.938   1.149   6.116
12699TIP3   OH237981   7.857   1.350   6.654
12699TIP3    H137982   7.881   1.401   6.574
12699TIP3    H237983   7.772   1.309   6.628
12700TIP3   OH237984   7.359   1.435   7.022
12700TIP3    H137985   7.378   1.413   7.114
12700TIP3    H237986   7.317   1.523   7.029
12701TIP3   OH237987   7.474   0.650   5.988
12701TIP3    H137988   7.571   0.662   5.996
12701TIP3    H237989   7.450   0.725   5.929
12702TIP3   OH237990   6.648   1.133   6.700
12702TIP3    H137991   6.687   1.109   6.613
12702TIP3    H237992   6.693   1.072   6.759
12703TIP3   OH237993   7.101   1.265   5.846
12703TIP3    H137994   7.053   1.351   5.852
12703TIP3    H237995   7.048   1.209   5.906
12704TIP3   OH237996   6.530   1.058   7.314
12704TIP3    H137997   6.554   1.044   7.408
12704TIP3    H237998   6.459   0.992   7.301
12705TIP3   OH237999   7.246   1.179   7.335
12705TIP3    H138000   7.182   1.120   7.291
12705TIP3    H238001   7.330   1.155   7.290
12706TIP3   OH238002   7.517   1.692   6.920
12706TIP3    H138003   7.420   1.691   6.931
12706TIP3    H238004   7.544   1.746   6.997
12707TIP3   OH238005   7.925   0.762   5.825
12707TIP3    H138006   7.863   0.716   5.764
12707TIP3    H238007   7.922   0.851   5.783
12708TIP3   OH238008   8.145   1.621   6.909
12708TIP3    H138009   8.047   1.618   6.899
12708TIP3    H238010   8.171   1.593   6.818
12709TIP3   OH238011   7.626   1.585   5.735
12709TIP3    H138012   7.601   1.514   5.796
12709TIP3    H238013   7.639   1.539   5.651
12710TIP3   OH238014   7.623   1.213   6.576
12710TIP3    H138015   7.529   1.189   6.586
12710TIP3    H238016   7.656   1.134   6.528
12711TIP3   OH238017   6.750   1.440   6.322
12711TIP3    H138018   6.749   1.522   6.270
12711TIP3    H238019   6.659   1.436   6.353
12712TIP3   OH238020   6.312   0.743   6.028
12712TIP3    H138021   6.362   0.825   6.047
12712TIP3    H238022   6.238   0.751   6.091
12713TIP3   OH238023   6.889   1.206   6.269
12713TIP3    H138024   6.850   1.295   6.286
12713TIP3    H238025   6.852   1.155   6.344
12714TIP3   OH238026   7.020   1.785   6.796
12714TIP3    H138027   7.059   1.858   6.745
12714TIP3    H238028   7.097   1.751   6.844
12715TIP3   OH238029   6.667   1.682   6.176
12715TIP3    H138030   6.582   1.688   6.224
12715TIP3    H238031   6.698   1.775   6.181
12716TIP3   OH238032   7.406   1.420   6.753
12716TIP3    H138033   7.398   1.419   6.851
12716TIP3    H238034   7.486   1.366   6.741
12717TIP3   OH238035   7.382   1.314   5.638
12717TIP3    H138036   7.436   1.289   5.716
12717TIP3    H238037   7.294   1.286   5.668
12718TIP3   OH238038   7.656   1.953   6.803
12718TIP3    H138039   7.576   1.898   6.796
12718TIP3    H238040   7.641   2.018   6.731
12719TIP3   OH238041   7.721   1.787   5.456
12719TIP3    H138042   7.760   1.860   5.405
12719TIP3    H238043   7.641   1.833   5.489
12720TIP3   OH238044   7.543   1.248   5.854
12720TIP3    H138045   7.532   1.180   5.923
12720TIP3    H238046   7.640   1.244   5.840
12721TIP3   OH238047   6.444   1.622   7.000
12721TIP3    H138048   6.522   1.567   7.017
12721TIP3    H238049   6.481   1.711   6.994
12722TIP3   OH238050   6.745   1.294   5.636
12722TIP3    H138051   6.762   1.202   5.609
12722TIP3    H238052   6.728   1.283   5.732
12723TIP3   OH238053   6.691   1.298   5.909
12723TIP3    H138054   6.763   1.270   5.967
12723TIP3    H238055   6.696   1.396   5.917
12724TIP3   OH238056   6.423   0.988   6.110
12724TIP3    H138057   6.360   1.036   6.169
12724TIP3    H238058   6.442   1.059   6.045
12725TIP3   OH238059   6.958   1.495   5.856
12725TIP3    H138060   6.872   1.521   5.893
12725TIP3    H238061   6.976   1.570   5.798
12726TIP3   OH238062   7.173   0.551   6.272
12726TIP3    H138063   7.214   0.638   6.252
12726TIP3    H238064   7.125   0.569   6.353
12727TIP3   OH238065   7.412   0.874   7.098
12727TIP3    H138066   7.418   0.950   7.159
12727TIP3    H238067   7.499   0.835   7.112
12728TIP3   OH238068   6.702   1.571   5.925
12728TIP3    H138069   6.672   1.642   5.864
12728TIP3    H238070   6.686   1.613   6.013
12729TIP3   OH238071   7.708   0.976   6.447
12729TIP3    H138072   7.636   0.912   6.460
12729TIP3    H238073   7.782   0.933   6.495
12730TIP3   OH238074   6.420   1.201   5.916
12730TIP3    H138075   6.488   1.269   5.928
12730TIP3    H238076   6.466   1.145   5.850
12731TIP3   OH238077   6.336   0.449   6.037
12731TIP3    H138078   6.383   0.535   6.037
12731TIP3    H238079   6.253   0.474   6.080
12732TIP3   OH238080   7.677   1.928   6.397
12732TIP3    H138081   7.633   1.975   6.322
12732TIP3    H238082   7.771   1.947   6.376
12733TIP3   OH238083   6.284   1.400   6.304
12733TIP3    H138084   6.229   1.445   6.369
12733TIP3    H238085   6.263   1.450   6.222
12734TIP3   OH238086   6.447   1.957   7.380
12734TIP3    H138087   6.535   1.956   7.423
12734TIP3    H238088   6.427   1.862   7.374
12735TIP3   OH238089   6.929   1.920   7.422
12735TIP3    H138090   7.024   1.901   7.427
12735TIP3    H238091   6.902   1.861   7.348
12736TIP3   OH238092   6.910   1.497   5.547
12736TIP3    H138093   6.855   1.425   5.587
12736TIP3    H238094   6.986   1.445   5.517
12737TIP3   OH238095   7.569   1.828   7.154
12737TIP3    H138096   7.560   1.759   7.223
12737TIP3    H238097   7.645   1.880   7.186
12738TIP3   OH238098   7.346   1.537   5.460
12738TIP3    H138099   7.390   1.473   5.520
12738TIP3    H238100   7.404   1.536   5.381
12739TIP3   OH238101   6.578   1.363   7.579
12739TIP3    H138102   6.595   1.267   7.583
12739TIP3    H238103   6.491   1.366   7.532
12740TIP3   OH238104   6.555   1.012   5.771
12740TIP3    H138105   6.611   0.979   5.844
12740TIP3    H238106   6.623   1.018   5.700
12741TIP3   OH238107   7.186   1.452   7.351
12741TIP3    H138108   7.143   1.467   7.264
12741TIP3    H238109   7.214   1.358   7.344
12742TIP3   OH238110   7.063   1.214   5.577
12742TIP3    H138111   7.068   1.226   5.674
12742TIP3    H238112   7.067   1.116   5.572
12743TIP3   OH238113   7.680   1.456   6.958
12743TIP3    H138114   7.752   1.503   6.912
12743TIP3    H238115   7.607   1.520   6.946
12744TIP3   OH238116   6.694   1.089   7.562
12744TIP3    H138117   6.775   1.042   7.536
12744TIP3    H238118   6.721   1.123   7.650
12745TIP3   OH238119   6.761   0.918   5.991
12745TIP3    H138120   6.740   0.877   6.076
12745TIP3    H238121   6.799   0.843   5.941
12746TIP3   OH238122   7.038   1.030   7.205
12746TIP3    H138123   6.953   1.078   7.203
12746TIP3    H238124   7.081   1.056   7.121
12747TIP3   OH238125   6.864   0.713   5.835
12747TIP3    H138126   6.839   0.717   5.740
12747TIP3    H238127   6.962   0.717   5.827
12748TIP3   OH238128   7.552   1.390   7.360
12748TIP3    H138129   7.625   1.355   7.308
12748TIP3    H238130   7.543   1.322   7.429
12749TIP3   OH238131   7.688   1.043   5.499
12749TIP3    H138132   7.674   0.994   5.415
12749TIP3    H238133   7.653   1.131   5.474
12750TIP3   OH238134   7.069   0.809   7.349
12750TIP3    H138135   7.117   0.743   7.295
12750TIP3    H238136   7.056   0.883   7.286
12751TIP3   OH238137   7.205   1.099   7.001
12751TIP3    H138138   7.286   1.117   6.951
12751TIP3    H238139   7.143   1.165   6.964
12752TIP3   OH238140   7.775   1.073   7.419
12752TIP3    H138141   7.804   0.983   7.402
12752TIP3    H238142   7.840   1.128   7.374
12753TIP3   OH238143   7.812   1.309   7.141
12753TIP3    H138144   7.752   1.364   7.086
12753TIP3    H238145   7.898   1.335   7.101
12754TIP3   OH238146   7.003   0.910   7.590
12754TIP3    H138147   6.935   0.841   7.595
12754TIP3    H238148   7.043   0.885   7.504
12755TIP3   OH238149   7.482   0.931   7.466
12755TIP3    H138150   7.441   0.910   7.551
12755TIP3    H238151   7.513   0.842   7.437
12756TIP3   OH238152   6.672   1.774   5.736
12756TIP3    H138153   6.768   1.766   5.719
12756TIP3    H238154   6.645   1.825   5.658
12757TIP3   OH238155   6.151   1.157   5.951
12757TIP3    H138156   6.246   1.179   5.939
12757TIP3    H238157   6.148   1.067   5.911
12758TIP3   OH238158   6.064   1.767   6.367
12758TIP3    H138159   5.998   1.703   6.334
12758TIP3    H238160   6.112   1.712   6.433
12759TIP3   OH238161   6.204   1.618   6.550
12759TIP3    H138162   6.213   1.549   6.617
12759TIP3    H238163   6.215   1.697   6.607
12760TIP3   OH238164   7.930   2.017   6.354
12760TIP3    H138165   7.956   2.053   6.441
12760TIP3    H238166   7.991   2.063   6.294
12761TIP3   OH238167   7.957   2.040   6.637
12761TIP3    H138168   7.914   1.952   6.632
12761TIP3    H238169   8.034   2.018   6.692
12762TIP3   OH238170   8.007   1.714   7.212
12762TIP3    H138171   7.933   1.724   7.275
12762TIP3    H238172   8.047   1.803   7.214
12763TIP3   OH238173   7.822   1.227   5.828
12763TIP3    H138174   7.889   1.292   5.799
12763TIP3    H238175   7.867   1.189   5.907
12764TIP3   OH238176   7.952   1.093   6.032
12764TIP3    H138177   7.884   1.053   6.091
12764TIP3    H238178   8.015   1.133   6.095
12765TIP3   OH238179   8.006   1.489   6.467
12765TIP3    H138180   8.056   1.423   6.414
12765TIP3    H238181   7.998   1.563   6.404
12766TIP3   OH238182   7.834   1.788   6.661
12766TIP3    H138183   7.763   1.832   6.711
12766TIP3    H238184   7.785   1.742   6.590
12767TIP3   OH238185   7.887   1.000   5.680
12767TIP3    H138186   7.816   1.007   5.612
12767TIP3    H238187   7.862   1.076   5.736
12768TIP3   OH238188   7.755   0.670   5.632
12768TIP3    H138189   7.760   0.736   5.561
12768TIP3    H238190   7.722   0.596   5.580
12769TIP3   OH238191   7.764   0.956   6.181
12769TIP3    H138192   7.770   0.860   6.179
12769TIP3    H238193   7.748   0.974   6.277
12770TIP3   OH238194   6.388   1.023   6.928
12770TIP3    H138195   6.387   0.994   6.834
12770TIP3    H238196   6.485   1.028   6.943
12771TIP3   OH238197   8.058   1.372   7.036
12771TIP3    H138198   8.130   1.308   7.019
12771TIP3    H238199   8.078   1.444   6.973
12772TIP3   OH238200   8.242   1.167   7.043
12772TIP3    H138201   8.174   1.121   7.097
12772TIP3    H238202   8.324   1.131   7.081
12773TIP3   OH238203   7.744   0.671   6.026
12773TIP3    H138204   7.794   0.636   6.103
12773TIP3    H238205   7.815   0.704   5.968
12774TIP3   OH238206   7.927   0.875   6.575
12774TIP3    H138207   8.015   0.884   6.534
12774TIP3    H238208   7.947   0.898   6.667
12775TIP3   OH238209   7.990   0.997   6.821
12775TIP3    H138210   7.906   1.038   6.851
12775TIP3    H238211   8.026   1.069   6.764
12776TIP3   OH238212   6.382   0.683   7.006
12776TIP3    H138213   6.428   0.672   6.921
12776TIP3    H238214   6.406   0.773   7.028
12777TIP3   OH238215   7.513   1.886   6.011
12777TIP3    H138216   7.564   1.873   5.928
12777TIP3    H238217   7.566   1.953   6.057
12778TIP3   OH238218   6.618   1.687   7.397
12778TIP3    H138219   6.524   1.666   7.378
12778TIP3    H238220   6.622   1.673   7.492
12779TIP3   OH238221   6.791   1.722   6.943
12779TIP3    H138222   6.743   1.798   6.905
12779TIP3    H238223   6.877   1.737   6.899
12780TIP3   OH238224   7.237   1.966   7.081
12780TIP3    H138225   7.278   1.967   7.170
12780TIP3    H238226   7.302   2.017   7.030
12781TIP3   OH238227   7.415   2.119   6.941
12781TIP3    H138228   7.486   2.069   6.898
12781TIP3    H238229   7.467   2.176   7.002
12782TIP3   OH238230   6.479   1.972   6.964
12782TIP3    H138231   6.398   1.961   6.910
12782TIP3    H238232   6.445   2.018   7.042
12783TIP3   OH238233   6.713   1.960   6.824
12783TIP3    H138234   6.629   1.972   6.872
12783TIP3    H238235   6.688   1.988   6.734
12784TIP3   OH238236   7.131   1.986   6.623
12784TIP3    H138237   7.061   2.004   6.558
12784TIP3    H238238   7.142   2.074   6.665
12785TIP3   OH238239   7.400   1.925   6.676
12785TIP3    H138240   7.306   1.942   6.656
12785TIP3    H238241   7.443   2.001   6.632
12786TIP3   OH238242   7.607   2.117   6.590
12786TIP3    H138243   7.593   2.202   6.542
12786TIP3    H238244   7.633   2.058   6.516
12787TIP3   OH238245   6.585   1.627   6.544
12787TIP3    H138246   6.587   1.560   6.616
12787TIP3    H238247   6.664   1.680   6.565
12788TIP3   OH238248   6.845   1.746   6.573
12788TIP3    H138249   6.869   1.653   6.559
12788TIP3    H238250   6.888   1.762   6.658
12789TIP3   OH238251   6.170   1.545   6.103
12789TIP3    H138252   6.085   1.514   6.068
12789TIP3    H238253   6.160   1.641   6.090
12790TIP3   OH238254   6.939   1.732   5.685
12790TIP3    H138255   7.028   1.754   5.650
12790TIP3    H238256   6.918   1.657   5.626
12791TIP3   OH238257   7.659   1.852   5.779
12791TIP3    H138258   7.651   1.754   5.766
12791TIP3    H238259   7.614   1.884   5.698
12792TIP3   OH238260   6.244   1.570   5.742
12792TIP3    H138261   6.247   1.591   5.837
12792TIP3    H238262   6.332   1.529   5.728
12793TIP3   OH238263   7.885   1.995   6.966
12793TIP3    H138264   7.806   1.964   6.916
12793TIP3    H238265   7.866   2.091   6.970
12794TIP3   OH238266   9.151   1.370   5.725
12794TIP3    H138267   9.126   1.463   5.711
12794TIP3    H238268   9.071   1.325   5.693
12795TIP3   OH238269   9.140   1.361   6.113
12795TIP3    H138270   9.178   1.341   6.201
12795TIP3    H238271   9.098   1.276   6.091
12796TIP3   OH238272   8.450   1.267   6.478
12796TIP3    H138273   8.488   1.202   6.540
12796TIP3    H238274   8.527   1.322   6.461
12797TIP3   OH238275   9.395   1.670   5.794
12797TIP3    H138276   9.386   1.604   5.864
12797TIP3    H238277   9.423   1.748   5.847
12798TIP3   OH238278   8.423   1.673   6.204
12798TIP3    H138279   8.415   1.576   6.205
12798TIP3    H238280   8.520   1.682   6.194
12799TIP3   OH238281   8.121   0.864   5.994
12799TIP3    H138282   8.074   0.948   6.009
12799TIP3    H238283   8.058   0.819   5.934
12800TIP3   OH238284   8.190   1.161   6.162
12800TIP3    H138285   8.241   1.085   6.197
12800TIP3    H238286   8.247   1.193   6.091
12801TIP3   OH238287   9.047   2.131   5.811
12801TIP3    H138288   9.088   2.055   5.764
12801TIP3    H238289   9.035   2.095   5.900
12802TIP3   OH238290   8.949   1.592   6.164
12802TIP3    H138291   8.987   1.516   6.118
12802TIP3    H238292   9.032   1.639   6.186
12803TIP3   OH238293   9.368   1.112   6.189
12803TIP3    H138294   9.391   1.027   6.226
12803TIP3    H238295   9.338   1.089   6.098
12804TIP3   OH238296   8.337   0.952   6.268
12804TIP3    H138297   8.416   0.925   6.318
12804TIP3    H238298   8.352   0.899   6.187
12805TIP3   OH238299   8.773   1.155   6.067
12805TIP3    H138300   8.866   1.124   6.077
12805TIP3    H238301   8.729   1.073   6.034
12806TIP3   OH238302   9.060   1.604   5.587
12806TIP3    H138303   9.009   1.573   5.510
12806TIP3    H238304   9.002   1.676   5.619
12807TIP3   OH238305   8.805   1.513   6.390
12807TIP3    H138306   8.742   1.580   6.426
12807TIP3    H238307   8.845   1.562   6.315
12808TIP3   OH238308   8.581   0.855   6.363
12808TIP3    H138309   8.641   0.929   6.387
12808TIP3    H238310   8.616   0.827   6.278
12809TIP3   OH238311   8.633   1.708   6.486
12809TIP3    H138312   8.607   1.793   6.446
12809TIP3    H238313   8.553   1.692   6.541
12810TIP3   OH238314   8.024   1.398   5.722
12810TIP3    H138315   7.984   1.424   5.637
12810TIP3    H238316   8.055   1.484   5.757
12811TIP3   OH238317   9.457   1.897   5.954
12811TIP3    H138318   9.366   1.897   5.993
12811TIP3    H238319   9.459   1.985   5.914
12812TIP3   OH238320   9.165   1.947   5.639
12812TIP3    H138321   9.224   1.872   5.619
12812TIP3    H238322   9.219   2.022   5.606
12813TIP3   OH238323   9.317   1.720   5.535
12813TIP3    H138324   9.232   1.672   5.538
12813TIP3    H238325   9.353   1.699   5.624
12814TIP3   OH238326   8.977   1.226   5.565
12814TIP3    H138327   8.894   1.274   5.543
12814TIP3    H238328   9.017   1.216   5.477
12815TIP3   OH238329   8.943   1.003   5.292
12815TIP3    H138330   9.019   1.054   5.325
12815TIP3    H238331   8.988   0.933   5.241
12816TIP3   OH238332   9.342   1.297   5.547
12816TIP3    H138333   9.272   1.324   5.611
12816TIP3    H238334   9.420   1.303   5.605
12817TIP3   OH238335   9.570   1.349   6.429
12817TIP3    H138336   9.562   1.423   6.491
12817TIP3    H238337   9.485   1.351   6.383
12818TIP3   OH238338   8.562   1.300   5.952
12818TIP3    H138339   8.519   1.243   5.885
12818TIP3    H238340   8.637   1.244   5.981
12819TIP3   OH238341   8.690   1.709   6.101
12819TIP3    H138342   8.670   1.672   6.013
12819TIP3    H238343   8.780   1.675   6.117
12820TIP3   OH238344   8.701   1.268   6.310
12820TIP3    H138345   8.730   1.243   6.220
12820TIP3    H238346   8.744   1.354   6.324
12821TIP3   OH238347   9.220   1.912   6.081
12821TIP3    H138348   9.207   1.991   6.135
12821TIP3    H238349   9.207   1.838   6.144
12822TIP3   OH238350   8.836   1.826   6.633
12822TIP3    H138351   8.775   1.889   6.676
12822TIP3    H238352   8.772   1.774   6.580
12823TIP3   OH238353   9.172   1.150   5.369
12823TIP3    H138354   9.237   1.204   5.418
12823TIP3    H238355   9.201   1.167   5.277
12824TIP3   OH238356   8.582   1.393   6.728
12824TIP3    H138357   8.586   1.478   6.777
12824TIP3    H238358   8.488   1.370   6.739
12825TIP3   OH238359   8.911   1.836   5.641
12825TIP3    H138360   8.992   1.889   5.651
12825TIP3    H238361   8.852   1.896   5.595
12826TIP3   OH238362   8.631   1.995   6.717
12826TIP3    H138363   8.597   1.996   6.625
12826TIP3    H238364   8.551   1.973   6.769
12827TIP3   OH238365   8.426   1.150   5.759
12827TIP3    H138366   8.357   1.187   5.700
12827TIP3    H238367   8.399   1.058   5.765
12828TIP3   OH238368   8.209   1.527   6.663
12828TIP3    H138369   8.142   1.509   6.594
12828TIP3    H238370   8.246   1.439   6.682
12829TIP3   OH238371   8.063   1.718   6.299
12829TIP3    H138372   8.159   1.715   6.287
12829TIP3    H238373   8.053   1.800   6.350
12830TIP3   OH238374   9.035   1.954   6.489
12830TIP3    H138375   9.033   2.048   6.519
12830TIP3    H238376   8.962   1.916   6.542
12831TIP3   OH238377   8.796   2.086   5.438
12831TIP3    H138378   8.749   2.065   5.355
12831TIP3    H238379   8.761   2.174   5.461
12832TIP3   OH238380   8.232   1.935   5.823
12832TIP3    H138381   8.280   1.925   5.908
12832TIP3    H238382   8.177   1.855   5.824
12833TIP3   OH238383   9.000   1.988   5.078
12833TIP3    H138384   9.064   1.920   5.045
12833TIP3    H238385   9.029   1.998   5.171
12834TIP3   OH238386   9.047   2.037   5.349
12834TIP3    H138387   8.957   2.046   5.387
12834TIP3    H238388   9.094   1.997   5.424
12835TIP3   OH238389   8.415   1.709   6.651
12835TIP3    H138390   8.463   1.693   6.734
12835TIP3    H238391   8.340   1.646   6.658
12836TIP3   OH238392   9.252   1.194   5.106
12836TIP3    H138393   9.220   1.174   5.016
12836TIP3    H238394   9.276   1.288   5.097
12837TIP3   OH238395   8.752   1.046   6.460
12837TIP3    H138396   8.693   1.069   6.535
12837TIP3    H238397   8.739   1.126   6.403
12838TIP3   OH238398   8.617   0.955   5.964
12838TIP3    H138399   8.538   0.905   5.992
12838TIP3    H238400   8.638   0.910   5.879
12839TIP3   OH238401   9.122   1.028   5.682
12839TIP3    H138402   9.057   1.100   5.662
12839TIP3    H238403   9.170   1.029   5.598
12840TIP3   OH238404   9.297   1.320   6.742
12840TIP3    H138405   9.302   1.290   6.835
12840TIP3    H238406   9.375   1.377   6.735
12841TIP3   OH238407   9.262   1.039   5.943
12841TIP3    H138408   9.219   1.088   5.871
12841TIP3    H238409   9.297   0.964   5.895
12842TIP3   OH238410   8.570   1.089   6.660
12842TIP3    H138411   8.585   1.148   6.736
12842TIP3    H238412   8.523   1.014   6.699
12843TIP3   OH238413   9.272   1.301   6.357
12843TIP3    H138414   9.313   1.232   6.298
12843TIP3    H238415   9.261   1.250   6.439
12844TIP3   OH238416   8.384   0.810   6.037
12844TIP3    H138417   8.291   0.830   6.014
12844TIP3    H238418   8.389   0.716   6.017
12845TIP3   OH238419   8.674   0.829   5.725
12845TIP3    H138420   8.756   0.804   5.680
12845TIP3    H238421   8.609   0.824   5.651
12846TIP3   OH238422   8.498   0.843   5.508
12846TIP3    H138423   8.439   0.794   5.448
12846TIP3    H238424   8.558   0.883   5.441
12847TIP3   OH238425   9.611   2.527   6.446
12847TIP3    H138426   9.611   2.544   6.350
12847TIP3    H238427   9.676   2.594   6.475
12848TIP3   OH238428   8.574   1.631   6.873
12848TIP3    H138429   8.654   1.663   6.920
12848TIP3    H238430   8.510   1.633   6.947
12849TIP3   OH238431   9.042   1.089   6.128
12849TIP3    H138432   9.112   1.048   6.075
12849TIP3    H238433   9.039   1.032   6.207
12850TIP3   OH238434   9.015   0.960   6.443
12850TIP3    H138435   8.928   1.005   6.441
12850TIP3    H238436   9.070   1.023   6.494
12851TIP3   OH238437   8.748   1.372   5.514
12851TIP3    H138438   8.677   1.306   5.502
12851TIP3    H238439   8.728   1.405   5.606
12852TIP3   OH238440   9.162   1.692   6.509
12852TIP3    H138441   9.174   1.673   6.603
12852TIP3    H238442   9.117   1.779   6.511
12853TIP3   OH238443   8.447   1.395   6.187
12853TIP3    H138444   8.484   1.368   6.100
12853TIP3    H238445   8.486   1.328   6.246
12854TIP3   OH238446   8.907   1.525   5.354
12854TIP3    H138447   8.856   1.609   5.349
12854TIP3    H238448   8.845   1.468   5.404
12855TIP3   OH238449   8.326   1.313   6.800
12855TIP3    H138450   8.346   1.298   6.895
12855TIP3    H238451   8.253   1.250   6.785
12856TIP3   OH238452   9.046   1.428   6.821
12856TIP3    H138453   8.975   1.376   6.779
12856TIP3    H238454   9.123   1.402   6.766
12857TIP3   OH238455   9.310   1.947   6.407
12857TIP3    H138456   9.214   1.948   6.418
12857TIP3    H238457   9.339   2.004   6.482
12858TIP3   OH238458   9.429   1.811   5.196
12858TIP3    H138459   9.403   1.789   5.287
12858TIP3    H238460   9.349   1.788   5.147
12859TIP3   OH238461   9.387   1.482   6.062
12859TIP3    H138462   9.301   1.437   6.066
12859TIP3    H238463   9.449   1.411   6.045
12860TIP3   OH238464   8.547   1.700   5.815
12860TIP3    H138465   8.547   1.780   5.760
12860TIP3    H238466   8.452   1.681   5.821
12861TIP3   OH238467   8.110   0.997   5.515
12861TIP3    H138468   8.157   1.080   5.533
12861TIP3    H238469   8.034   1.004   5.577
12862TIP3   OH238470   8.686   1.465   5.760
12862TIP3    H138471   8.649   1.554   5.778
12862TIP3    H238472   8.647   1.413   5.833
12863TIP3   OH238473   8.815   2.043   6.281
12863TIP3    H138474   8.855   2.116   6.230
12863TIP3    H238475   8.893   2.008   6.328
12864TIP3   OH238476   8.466   1.937   5.666
12864TIP3    H138477   8.380   1.946   5.711
12864TIP3    H238478   8.498   2.030   5.668
12865TIP3   OH238479   9.203   1.677   6.236
12865TIP3    H138480   9.202   1.670   6.334
12865TIP3    H238481   9.279   1.622   6.211
12866TIP3   OH238482   9.171   1.578   5.122
12866TIP3    H138483   9.221   1.541   5.198
12866TIP3    H238484   9.081   1.549   5.141
12867TIP3   OH238485   9.442   2.206   6.291
12867TIP3    H138486   9.359   2.156   6.276
12867TIP3    H238487   9.437   2.272   6.218
12868TIP3   OH238488   9.340   1.479   5.326
12868TIP3    H138489   9.329   1.421   5.404
12868TIP3    H238490   9.410   1.538   5.356
12869TIP3   OH238491   8.253   1.905   6.440
12869TIP3    H138492   8.308   1.832   6.473
12869TIP3    H238493   8.282   1.977   6.498
12870TIP3   OH238494   8.537   1.554   5.124
12870TIP3    H138495   8.560   1.464   5.093
12870TIP3    H238496   8.520   1.537   5.219
12871TIP3   OH238497   8.486   1.555   5.400
12871TIP3    H138498   8.563   1.529   5.453
12871TIP3    H238499   8.492   1.653   5.403
12872TIP3   OH238500   8.222   1.246   5.597
12872TIP3    H138501   8.157   1.292   5.654
12872TIP3    H238502   8.238   1.315   5.530
12873TIP3   OH238503   8.757   1.750   5.348
12873TIP3    H138504   8.670   1.780   5.380
12873TIP3    H238505   8.768   1.806   5.270
12874TIP3   OH238506   8.975   0.806   5.760
12874TIP3    H138507   9.012   0.894   5.738
12874TIP3    H238508   8.919   0.826   5.837
12875TIP3   OH238509   9.196   1.113   6.588
12875TIP3    H138510   9.228   1.185   6.646
12875TIP3    H238511   9.277   1.067   6.563
12876TIP3   OH238512   8.501   1.828   5.411
12876TIP3    H138513   8.470   1.897   5.348
12876TIP3    H238514   8.484   1.872   5.498
12877TIP3   OH238515   8.216   1.458   5.404
12877TIP3    H138516   8.285   1.526   5.412
12877TIP3    H238517   8.259   1.400   5.338
12878TIP3   OH238518   8.131   0.705   5.523
12878TIP3    H138519   8.177   0.791   5.525
12878TIP3    H238520   8.042   0.732   5.548
12879TIP3   OH238521   9.492   2.188   5.896
12879TIP3    H138522   9.454   2.239   5.820
12879TIP3    H238523   9.568   2.141   5.854
12880TIP3   OH238524   8.088   1.672   5.791
12880TIP3    H138525   8.017   1.702   5.850
12880TIP3    H238526   8.060   1.713   5.706
12881TIP3   OH238527   8.245   2.215   6.864
12881TIP3    H138528   8.331   2.215   6.911
12881TIP3    H238529   8.224   2.120   6.862
12882TIP3   OH238530   8.723   2.174   6.912
12882TIP3    H138531   8.819   2.164   6.913
12882TIP3    H238532   8.699   2.116   6.836
12883TIP3   OH238533   8.710   1.755   5.045
12883TIP3    H138534   8.657   1.677   5.075
12883TIP3    H238535   8.785   1.709   5.000
12884TIP3   OH238536   9.363   2.086   6.642
12884TIP3    H138537   9.355   2.014   6.709
12884TIP3    H238538   9.437   2.138   6.676
12885TIP3   OH238539   9.175   1.804   4.970
12885TIP3    H138540   9.180   1.713   5.008
12885TIP3    H238541   9.194   1.790   4.875
12886TIP3   OH238542   8.375   1.620   7.064
12886TIP3    H138543   8.391   1.524   7.070
12886TIP3    H238544   8.287   1.623   7.019
12887TIP3   OH238545   8.347   1.269   5.259
12887TIP3    H138546   8.405   1.237   5.330
12887TIP3    H238547   8.413   1.275   5.186
12888TIP3   OH238548   8.983   1.706   6.837
12888TIP3    H138549   8.939   1.725   6.752
12888TIP3    H238550   9.011   1.613   6.827
12889TIP3   OH238551   8.850   1.478   5.080
12889TIP3    H138552   8.862   1.478   5.176
12889TIP3    H238553   8.852   1.381   5.062
12890TIP3   OH238554   9.481   1.721   6.439
12890TIP3    H138555   9.526   1.758   6.362
12890TIP3    H238556   9.400   1.776   6.439
12891TIP3   OH238557   8.491   1.347   7.049
12891TIP3    H138558   8.569   1.297   7.025
12891TIP3    H238559   8.517   1.381   7.137
12892TIP3   OH238560   8.560   1.173   5.481
12892TIP3    H138561   8.535   1.129   5.563
12892TIP3    H238562   8.597   1.098   5.428
12893TIP3   OH238563   8.832   1.290   6.692
12893TIP3    H138564   8.745   1.335   6.688
12893TIP3    H238565   8.876   1.315   6.608
12894TIP3   OH238566   8.662   0.967   5.322
12894TIP3    H138567   8.637   0.972   5.228
12894TIP3    H238568   8.760   0.976   5.315
12895TIP3   OH238569   9.344   1.637   6.838
12895TIP3    H138570   9.435   1.635   6.806
12895TIP3    H238571   9.349   1.579   6.916
12896TIP3   OH238572   8.886   1.073   6.834
12896TIP3    H138573   8.905   1.001   6.769
12896TIP3    H238574   8.863   1.148   6.774
12897TIP3   OH238575   9.004   1.359   6.492
12897TIP3    H138576   9.083   1.366   6.436
12897TIP3    H238577   8.943   1.423   6.450
12898TIP3   OH238578   9.618   1.576   6.620
12898TIP3    H138579   9.556   1.630   6.566
12898TIP3    H238580   9.699   1.588   6.568
12899TIP3   OH238581   8.802   1.163   7.075
12899TIP3    H138582   8.734   1.094   7.078
12899TIP3    H238583   8.843   1.139   6.989
12900TIP3   OH238584   9.310   1.184   6.982
12900TIP3    H138585   9.215   1.172   7.003
12900TIP3    H238586   9.326   1.102   6.931
12901TIP3   OH238587   8.469   2.031   5.225
12901TIP3    H138588   8.564   2.025   5.205
12901TIP3    H238589   8.439   2.080   5.146
12902TIP3   OH238590   7.948   1.412   5.442
12902TIP3    H138591   8.042   1.434   5.427
12902TIP3    H238592   7.942   1.323   5.399
12903TIP3   OH238593   7.863   2.024   5.854
12903TIP3    H138594   7.796   1.962   5.817
12903TIP3    H238595   7.907   1.966   5.920
12904TIP3   OH238596   7.998   1.874   6.041
12904TIP3    H138597   7.986   1.802   6.104
12904TIP3    H238598   8.050   1.936   6.095
12905TIP3   OH238599   9.610   1.996   6.175
12905TIP3    H138600   9.541   2.057   6.207
12905TIP3    H238601   9.566   1.954   6.099
12906TIP3   OH238602   8.185   1.276   6.416
12906TIP3    H138603   8.182   1.248   6.322
12906TIP3    H238604   8.282   1.283   6.430
12907TIP3   OH238605   8.181   0.939   6.496
12907TIP3    H138606   8.225   0.929   6.409
12907TIP3    H238607   8.198   1.032   6.513
12908TIP3   OH238608   9.290   2.154   5.526
12908TIP3    H138609   9.330   2.128   5.439
12908TIP3    H238610   9.356   2.215   5.560
12909TIP3   OH238611   8.411   1.944   6.882
12909TIP3    H138612   8.318   1.920   6.865
12909TIP3    H238613   8.418   1.931   6.978
12910TIP3   OH238614   8.590   1.980   6.431
12910TIP3    H138615   8.541   2.055   6.392
12910TIP3    H238616   8.675   1.994   6.385
12911TIP3   OH238617   9.033   2.221   6.568
12911TIP3    H138618   9.074   2.226   6.657
12911TIP3    H238619   9.097   2.273   6.515
12912TIP3   OH238620   9.210   2.373   6.427
12912TIP3    H138621   9.281   2.326   6.382
12912TIP3    H238622   9.262   2.431   6.488
12913TIP3   OH238623   8.265   2.234   6.456
12913TIP3    H138624   8.175   2.267   6.431
12913TIP3    H238625   8.275   2.278   6.541
12914TIP3   OH238626   8.501   2.214   6.313
12914TIP3    H138627   8.414   2.227   6.357
12914TIP3    H238628   8.482   2.247   6.223
12915TIP3   OH238629   8.926   2.242   6.110
12915TIP3    H138630   8.857   2.262   6.044
12915TIP3    H238631   8.939   2.330   6.152
12916TIP3   OH238632   9.194   2.181   6.163
12916TIP3    H138633   9.100   2.200   6.142
12916TIP3    H238634   9.239   2.256   6.120
12917TIP3   OH238635   9.398   2.369   6.081
12917TIP3    H138636   9.381   2.456   6.036
12917TIP3    H238637   9.432   2.315   6.006
12918TIP3   OH238638   8.176   2.029   6.199
12918TIP3    H138639   8.202   2.003   6.289
12918TIP3    H238640   8.248   1.986   6.148
12919TIP3   OH238641   8.370   1.901   6.057
12919TIP3    H138642   8.386   1.817   6.106
12919TIP3    H238643   8.461   1.938   6.052
12920TIP3   OH238644   8.636   1.996   6.060
12920TIP3    H138645   8.668   1.905   6.046
12920TIP3    H238646   8.681   2.017   6.143
12921TIP3   OH238647   7.964   1.803   5.590
12921TIP3    H138648   7.879   1.769   5.556
12921TIP3    H238649   7.954   1.897   5.570
12922TIP3   OH238650   8.736   1.993   5.171
12922TIP3    H138651   8.825   2.013   5.134
12922TIP3    H238652   8.714   1.915   5.115
12923TIP3   OH238653   9.394   2.075   5.291
12923TIP3    H138654   9.429   1.993   5.252
12923TIP3    H238655   9.366   2.123   5.211
12924TIP3   OH238656   8.041   1.825   5.227
12924TIP3    H138657   8.044   1.850   5.321
12924TIP3    H238658   8.129   1.783   5.214
12925TIP3   OH238659   9.649   2.257   6.469
12925TIP3    H138660   9.585   2.218   6.406
12925TIP3    H238661   9.627   2.352   6.457
12926TIP3   OH238662   1.606   2.157   7.419
12926TIP3    H138663   1.577   2.249   7.401
12926TIP3    H238664   1.526   2.109   7.393
12927TIP3   OH238665   1.606   2.153   7.803
12927TIP3    H138666   1.639   2.131   7.892
12927TIP3    H238667   1.561   2.071   7.779
12928TIP3   OH238668   0.945   2.091   8.180
12928TIP3    H138669   0.977   2.009   8.223
12928TIP3    H238670   1.028   2.131   8.150
12929TIP3   OH238671   1.848   2.456   7.486
12929TIP3    H138672   1.831   2.391   7.556
12929TIP3    H238673   1.877   2.534   7.537
12930TIP3   OH238674   0.874   2.458   7.893
12930TIP3    H138675   0.866   2.361   7.896
12930TIP3    H238676   0.971   2.468   7.884
12931TIP3   OH238677   1.496   2.921   7.500
12931TIP3    H138678   1.542   2.849   7.452
12931TIP3    H238679   1.487   2.883   7.588
12932TIP3   OH238680   1.401   2.382   7.853
12932TIP3    H138681   1.438   2.307   7.804
12932TIP3    H238682   1.485   2.426   7.877
12933TIP3   OH238683   2.419   1.703   7.842
12933TIP3    H138684   2.441   1.783   7.895
12933TIP3    H238685   2.462   1.725   7.757
12934TIP3   OH238686   1.824   1.889   7.880
12934TIP3    H138687   1.858   1.800   7.901
12934TIP3    H238688   1.780   1.872   7.795
12935TIP3   OH238689   1.823   1.626   7.483
12935TIP3    H138690   1.895   1.593   7.540
12935TIP3    H238691   1.868   1.669   7.410
12936TIP3   OH238692   1.240   1.954   7.748
12936TIP3    H138693   1.332   1.925   7.768
12936TIP3    H238694   1.200   1.867   7.722
12937TIP3   OH238695   2.484   1.906   8.018
12937TIP3    H138696   2.400   1.955   8.003
12937TIP3    H238697   2.503   1.931   8.109
12938TIP3   OH238698   1.497   2.379   7.289
12938TIP3    H138699   1.451   2.360   7.206
12938TIP3    H238700   1.452   2.462   7.316
12939TIP3   OH238701   1.257   2.303   8.078
12939TIP3    H138702   1.195   2.370   8.115
12939TIP3    H238703   1.300   2.353   8.006
12940TIP3   OH238704   1.081   2.496   8.180
12940TIP3    H138705   1.055   2.581   8.141
12940TIP3    H238706   1.000   2.474   8.230
12941TIP3   OH238707   0.520   2.197   7.401
12941TIP3    H138708   0.443   2.219   7.347
12941TIP3    H238709   0.518   2.268   7.467
12942TIP3   OH238710   1.917   2.701   7.650
12942TIP3    H138711   1.828   2.693   7.690
12942TIP3    H238712   1.909   2.788   7.606
12943TIP3   OH238713   2.208   1.599   8.008
12943TIP3    H138714   2.120   1.632   7.982
12943TIP3    H238715   2.265   1.637   7.938
12944TIP3   OH238716   1.619   2.747   7.326
12944TIP3    H138717   1.670   2.665   7.305
12944TIP3    H238718   1.680   2.813   7.285
12945TIP3   OH238719   1.763   2.532   7.234
12945TIP3    H138720   1.718   2.454   7.198
12945TIP3    H238721   1.799   2.496   7.318
12946TIP3   OH238722   2.143   2.615   7.996
12946TIP3    H138723   2.132   2.537   7.937
12946TIP3    H238724   2.125   2.689   7.934
12947TIP3   OH238725   1.433   2.006   7.253
12947TIP3    H138726   1.352   2.058   7.236
12947TIP3    H238727   1.476   2.009   7.165
12948TIP3   OH238728   1.393   1.791   6.968
12948TIP3    H138729   1.458   1.845   7.016
12948TIP3    H238730   1.452   1.730   6.920
12949TIP3   OH238731   2.338   2.248   7.836
12949TIP3    H138732   2.255   2.301   7.844
12949TIP3    H238733   2.368   2.276   7.747
12950TIP3   OH238734   1.781   2.089   7.222
12950TIP3    H138735   1.724   2.115   7.299
12950TIP3    H238736   1.866   2.075   7.267
12951TIP3   OH238737   2.017   2.130   8.138
12951TIP3    H138738   2.015   2.213   8.189
12951TIP3    H238739   1.930   2.134   8.093
12952TIP3   OH238740   1.027   2.103   7.652
12952TIP3    H138741   0.985   2.049   7.582
12952TIP3    H238742   1.102   2.046   7.678
12953TIP3   OH238743   1.142   2.497   7.791
12953TIP3    H138744   1.122   2.458   7.705
12953TIP3    H238745   1.232   2.464   7.808
12954TIP3   OH238746   1.143   2.076   7.973
12954TIP3    H138747   1.183   2.044   7.888
12954TIP3    H238748   1.198   2.154   7.994
12955TIP3   OH238749   1.677   2.697   7.773
12955TIP3    H138750   1.662   2.777   7.826
12955TIP3    H238751   1.661   2.624   7.836
12956TIP3   OH238752   1.289   2.617   8.320
12956TIP3    H138753   1.226   2.679   8.364
12956TIP3    H238754   1.225   2.562   8.270
12957TIP3   OH238755   1.624   1.941   7.050
12957TIP3    H138756   1.680   2.004   7.101
12957TIP3    H238757   1.649   1.965   6.958
12958TIP3   OH238758   1.049   2.184   8.429
12958TIP3    H138759   1.036   2.269   8.475
12958TIP3    H238760   0.962   2.168   8.389
12959TIP3   OH238761   1.367   2.626   7.326
12959TIP3    H138762   1.446   2.682   7.340
12959TIP3    H238763   1.305   2.689   7.287
12960TIP3   OH238764   1.083   2.785   8.406
12960TIP3    H138765   1.049   2.789   8.314
12960TIP3    H238766   1.002   2.761   8.456
12961TIP3   OH238767   2.142   1.196   7.107
12961TIP3    H138768   2.059   1.215   7.157
12961TIP3    H238769   2.145   1.271   7.045
12962TIP3   OH238770   0.922   1.962   7.441
12962TIP3    H138771   0.847   2.009   7.398
12962TIP3    H238772   0.879   1.876   7.457
12963TIP3   OH238773   1.937   2.556   6.647
12963TIP3    H138774   1.945   2.653   6.633
12963TIP3    H238775   2.030   2.527   6.635
12964TIP3   OH238776   0.504   2.507   7.995
12964TIP3    H138777   0.594   2.479   7.974
12964TIP3    H238778   0.523   2.589   8.045
12965TIP3   OH238779   2.380   2.959   8.043
12965TIP3    H138780   2.379   2.863   8.056
12965TIP3    H238781   2.296   2.984   8.088
12966TIP3   OH238782   1.487   2.744   8.178
12966TIP3    H138783   1.484   2.837   8.207
12966TIP3    H238784   1.414   2.705   8.230
12967TIP3   OH238785   1.249   2.874   7.129
12967TIP3    H138786   1.201   2.857   7.045
12967TIP3    H238787   1.215   2.962   7.154
12968TIP3   OH238788   0.687   2.723   7.512
12968TIP3    H138789   0.734   2.715   7.598
12968TIP3    H238790   0.628   2.645   7.516
12969TIP3   OH238791   1.449   2.776   6.767
12969TIP3    H138792   1.507   2.706   6.731
12969TIP3    H238793   1.483   2.785   6.859
12970TIP3   OH238794   1.499   2.823   7.037
12970TIP3    H138795   1.411   2.834   7.078
12970TIP3    H238796   1.550   2.785   7.110
12971TIP3   OH238797   2.271   2.092   8.314
12971TIP3    H138798   2.187   2.100   8.268
12971TIP3    H238799   2.287   1.995   8.309
12972TIP3   OH238800   0.859   2.478   8.349
12972TIP3    H138801   0.919   2.476   8.427
12972TIP3    H238802   0.783   2.430   8.383
12973TIP3   OH238803   1.791   1.431   8.336
12973TIP3    H138804   1.879   1.410   8.375
12973TIP3    H238805   1.738   1.440   8.417
12974TIP3   OH238806   2.037   1.865   8.235
12974TIP3    H138807   1.988   1.861   8.321
12974TIP3    H238808   2.012   1.954   8.202
12975TIP3   OH238809   1.699   1.992   6.796
12975TIP3    H138810   1.664   1.970   6.708
12975TIP3    H238811   1.780   2.042   6.772
12976TIP3   OH238812   1.403   1.372   7.104
12976TIP3    H138813   1.364   1.386   7.193
12976TIP3    H238814   1.397   1.276   7.099
12977TIP3   OH238815   1.248   1.875   8.129
12977TIP3    H138816   1.177   1.861   8.193
12977TIP3    H238817   1.208   1.939   8.067
12978TIP3   OH238818   1.119   1.726   7.666
12978TIP3    H138819   1.034   1.688   7.692
12978TIP3    H238820   1.123   1.694   7.573
12979TIP3   OH238821   1.581   1.818   7.386
12979TIP3    H138822   1.523   1.886   7.346
12979TIP3    H238823   1.634   1.789   7.310
12980TIP3   OH238824   1.747   2.089   8.473
12980TIP3    H138825   1.730   2.016   8.537
12980TIP3    H238826   1.842   2.106   8.492
12981TIP3   OH238827   1.727   1.842   7.627
12981TIP3    H138828   1.667   1.878   7.560
12981TIP3    H238829   1.743   1.754   7.587
12982TIP3   OH238830   1.742   2.086   8.045
12982TIP3    H138831   1.777   2.014   7.986
12982TIP3    H238832   1.714   2.032   8.122
12983TIP3   OH238833   1.418   1.564   7.719
12983TIP3    H138834   1.328   1.570   7.754
12983TIP3    H238835   1.471   1.553   7.799
12984TIP3   OH238836   1.113   1.628   7.413
12984TIP3    H138837   1.206   1.613   7.391
12984TIP3    H238838   1.067   1.611   7.328
12985TIP3   OH238839   1.890   1.622   7.917
12985TIP3    H138840   1.866   1.634   8.012
12985TIP3    H238841   1.823   1.557   7.891
12986TIP3   OH238842   0.963   1.595   7.180
12986TIP3    H138843   0.877   1.598   7.137
12986TIP3    H238844   1.017   1.649   7.117
12987TIP3   OH238845   2.071   3.310   8.141
12987TIP3    H138846   2.069   3.334   8.046
12987TIP3    H238847   2.150   3.359   8.171
12988TIP3   OH238848   1.017   2.421   8.573
12988TIP3    H138849   1.105   2.450   8.607
12988TIP3    H238850   0.967   2.423   8.655
12989TIP3   OH238851   1.496   1.880   7.825
12989TIP3    H138852   1.556   1.821   7.776
12989TIP3    H238853   1.495   1.837   7.914
12990TIP3   OH238854   1.488   1.767   8.079
12990TIP3    H138855   1.403   1.808   8.109
12990TIP3    H238856   1.549   1.803   8.146
12991TIP3   OH238857   1.206   2.158   7.203
12991TIP3    H138858   1.131   2.097   7.190
12991TIP3    H238859   1.187   2.194   7.293
12992TIP3   OH238860   2.106   2.397   7.831
12992TIP3    H138861   2.130   2.447   7.750
12992TIP3    H238862   2.020   2.357   7.806
12993TIP3   OH238863   1.656   1.476   7.069
12993TIP3    H138864   1.560   1.456   7.074
12993TIP3    H238865   1.660   1.572   7.081
12994TIP3   OH238866   1.606   2.481   8.197
12994TIP3    H138867   1.627   2.454   8.288
12994TIP3    H238868   1.567   2.569   8.208
12995TIP3   OH238869   1.758   1.733   7.166
12995TIP3    H138870   1.838   1.728   7.113
12995TIP3    H238871   1.710   1.806   7.121
12996TIP3   OH238872   0.893   2.180   7.883
12996TIP3    H138873   0.926   2.156   7.794
12996TIP3    H238874   0.962   2.140   7.940
12997TIP3   OH238875   1.350   2.310   7.024
12997TIP3    H138876   1.302   2.396   7.029
12997TIP3    H238877   1.295   2.255   7.085
12998TIP3   OH238878   1.505   2.221   8.507
12998TIP3    H138879   1.447   2.164   8.454
12998TIP3    H238880   1.593   2.185   8.484
12999TIP3   OH238881   1.765   2.740   8.096
12999TIP3    H138882   1.669   2.736   8.108
12999TIP3    H238883   1.792   2.793   8.174
13000TIP3   OH238884   2.191   1.816   6.987
13000TIP3    H138885   2.120   1.770   6.937
13000TIP3    H238886   2.177   1.906   6.948
13001TIP3   OH238887   2.393   2.669   8.084
13001TIP3    H138888   2.295   2.663   8.076
13001TIP3    H238889   2.419   2.639   7.994
13002TIP3   OH238890   1.876   2.630   6.912
13002TIP3    H138891   1.849   2.560   6.973
13002TIP3    H238892   1.888   2.583   6.828
13003TIP3   OH238893   1.869   2.262   7.747
13003TIP3    H138894   1.776   2.235   7.763
13003TIP3    H238895   1.903   2.181   7.704
13004TIP3   OH238896   0.999   2.488   7.503
13004TIP3    H138897   0.997   2.570   7.449
13004TIP3    H238898   0.905   2.470   7.513
13005TIP3   OH238899   1.137   2.255   7.445
13005TIP3    H138900   1.101   2.344   7.464
13005TIP3    H238901   1.106   2.205   7.522
13006TIP3   OH238902   1.267   2.830   7.972
13006TIP3    H138903   1.307   2.903   7.921
13006TIP3    H238904   1.346   2.795   8.018
13007TIP3   OH238905   0.919   2.724   7.355
13007TIP3    H138906   0.833   2.735   7.401
13007TIP3    H238907   0.952   2.817   7.357
13008TIP3   OH238908   1.655   2.464   7.930
13008TIP3    H138909   1.645   2.463   8.028
13008TIP3    H238910   1.736   2.411   7.919
13009TIP3   OH238911   1.630   2.357   6.813
13009TIP3    H138912   1.683   2.332   6.892
13009TIP3    H238913   1.541   2.332   6.842
13010TIP3   OH238914   1.904   2.998   7.981
13010TIP3    H138915   1.825   2.942   7.973
13010TIP3    H238916   1.889   3.063   7.908
13011TIP3   OH238917   1.970   2.832   6.633
13011TIP3    H138918   2.007   2.904   6.581
13011TIP3    H238919   1.890   2.877   6.667
13012TIP3   OH238920   1.791   2.290   7.028
13012TIP3    H138921   1.781   2.224   7.099
13012TIP3    H238922   1.888   2.289   7.016
13013TIP3   OH238923   0.699   2.686   8.132
13013TIP3    H138924   0.765   2.623   8.164
13013TIP3    H238925   0.720   2.765   8.184
13014TIP3   OH238926   0.997   2.338   6.813
13014TIP3    H138927   1.011   2.245   6.786
13014TIP3    H238928   0.977   2.327   6.908
13015TIP3   OH238929   0.941   2.342   7.085
13015TIP3    H138930   1.011   2.317   7.147
13015TIP3    H238931   0.943   2.440   7.091
13016TIP3   OH238932   0.691   2.021   7.293
13016TIP3    H138933   0.630   2.075   7.348
13016TIP3    H238934   0.705   2.084   7.220
13017TIP3   OH238935   1.833   1.661   8.179
13017TIP3    H138936   1.906   1.708   8.223
13017TIP3    H238937   1.815   1.586   8.239
13018TIP3   OH238938   1.707   1.418   7.337
13018TIP3    H138939   1.689   1.440   7.244
13018TIP3    H238940   1.731   1.505   7.376
13019TIP3   OH238941   1.207   2.540   7.033
13019TIP3    H138942   1.120   2.565   7.069
13019TIP3    H238943   1.224   2.615   6.974
13020TIP3   OH238944   1.406   1.616   7.453
13020TIP3    H138945   1.466   1.692   7.438
13020TIP3    H238946   1.406   1.612   7.551
13021TIP3   OH238947   1.675   1.924   8.252
13021TIP3    H138948   1.680   1.981   8.331
13021TIP3    H238949   1.726   1.846   8.281
13022TIP3   OH238950   1.551   1.331   7.551
13022TIP3    H138951   1.520   1.408   7.601
13022TIP3    H238952   1.605   1.371   7.480
13023TIP3   OH238953   0.951   2.614   7.102
13023TIP3    H138954   0.922   2.684   7.039
13023TIP3    H238955   0.935   2.658   7.188
13024TIP3   OH238956   2.303   1.823   8.237
13024TIP3    H138957   2.205   1.823   8.244
13024TIP3    H238958   2.315   1.778   8.152
13025TIP3   OH238959   1.953   2.021   7.623
13025TIP3    H138960   1.877   1.964   7.645
13025TIP3    H238961   2.026   1.976   7.672
13026TIP3   OH238962   0.663   2.245   7.090
13026TIP3    H138963   0.728   2.316   7.104
13026TIP3    H238964   0.713   2.192   7.024
13027TIP3   OH238965   1.925   2.973   7.574
13027TIP3    H138966   1.882   3.019   7.498
13027TIP3    H238967   2.019   2.991   7.553
13028TIP3   OH238968   0.542   2.473   7.500
13028TIP3    H138969   0.456   2.505   7.532
13028TIP3    H238970   0.532   2.494   7.405
13029TIP3   OH238971   0.720   3.015   8.527
13029TIP3    H138972   0.793   3.015   8.592
13029TIP3    H238973   0.676   2.932   8.545
13030TIP3   OH238974   1.177   2.967   8.597
13030TIP3    H138975   1.272   2.951   8.602
13030TIP3    H238976   1.151   2.908   8.522
13031TIP3   OH238977   1.159   2.542   6.724
13031TIP3    H138978   1.103   2.470   6.763
13031TIP3    H238979   1.235   2.490   6.692
13032TIP3   OH238980   1.813   2.877   8.333
13032TIP3    H138981   1.807   2.803   8.397
13032TIP3    H238982   1.895   2.923   8.361
13033TIP3   OH238983   1.595   2.582   6.637
13033TIP3    H138984   1.640   2.518   6.696
13033TIP3    H238985   1.652   2.581   6.557
13034TIP3   OH238986   0.810   2.058   6.949
13034TIP3    H138987   0.866   2.029   7.024
13034TIP3    H238988   0.878   2.061   6.878
13035TIP3   OH238989   1.440   2.494   8.523
13035TIP3    H138990   1.396   2.509   8.437
13035TIP3    H238991   1.470   2.400   8.516
13036TIP3   OH238992   1.316   2.258   6.755
13036TIP3    H138993   1.317   2.270   6.851
13036TIP3    H238994   1.315   2.160   6.749
13037TIP3   OH238995   1.928   2.502   8.133
13037TIP3    H138996   2.002   2.547   8.089
13037TIP3    H238997   1.856   2.567   8.119
13038TIP3   OH238998   1.007   1.965   7.161
13038TIP3    H138999   0.992   1.937   7.253
13038TIP3    H239000   1.047   1.886   7.120
13039TIP3   OH239001   1.269   2.026   8.400
13039TIP3    H139002   1.202   2.096   8.408
13039TIP3    H239003   1.322   2.054   8.322
13040TIP3   OH239004   1.112   1.753   7.009
13040TIP3    H139005   1.086   1.761   6.915
13040TIP3    H239006   1.210   1.761   7.001
13041TIP3   OH239007   1.800   2.428   8.532
13041TIP3    H139008   1.878   2.400   8.483
13041TIP3    H239009   1.798   2.363   8.605
13042TIP3   OH239010   1.935   2.086   6.674
13042TIP3    H139011   1.914   2.041   6.589
13042TIP3    H239012   1.903   2.176   6.651
13043TIP3   OH239013   1.446   1.827   8.498
13043TIP3    H139014   1.389   1.755   8.466
13043TIP3    H239015   1.382   1.901   8.490
13044TIP3   OH239016   1.435   2.145   8.217
13044TIP3    H139017   1.513   2.137   8.161
13044TIP3    H239018   1.379   2.207   8.166
13045TIP3   OH239019   2.013   2.103   8.579
13045TIP3    H139020   2.060   2.025   8.614
13045TIP3    H239021   2.087   2.158   8.549
13046TIP3   OH239022   2.057   2.358   8.322
13046TIP3    H139023   2.000   2.411   8.262
13046TIP3    H239024   2.145   2.377   8.282
13047TIP3   OH239025   1.682   1.870   8.625
13047TIP3    H139026   1.647   1.893   8.712
13047TIP3    H239027   1.599   1.849   8.576
13048TIP3   OH239028   1.902   1.809   8.462
13048TIP3    H139029   1.833   1.820   8.531
13048TIP3    H239030   1.980   1.784   8.515
13049TIP3   OH239031   2.130   1.751   8.610
13049TIP3    H139032   2.148   1.658   8.636
13049TIP3    H239033   2.118   1.796   8.696
13050TIP3   OH239034   0.920   2.814   6.913
13050TIP3    H139035   1.016   2.812   6.894
13050TIP3    H239036   0.890   2.868   6.837
13051TIP3   OH239037   0.400   2.168   7.143
13051TIP3    H139038   0.488   2.211   7.134
13051TIP3    H239039   0.419   2.081   7.103
13052TIP3   OH239040   0.328   2.804   7.527
13052TIP3    H139041   0.235   2.778   7.526
13052TIP3    H239042   0.363   2.756   7.605
13053TIP3   OH239043   0.439   2.672   7.737
13053TIP3    H139044   0.444   2.595   7.795
13053TIP3    H239045   0.495   2.735   7.787
13054TIP3   OH239046   2.179   3.062   7.531
13054TIP3    H139047   2.205   3.097   7.618
13054TIP3    H239048   2.240   3.108   7.472
13055TIP3   OH239049   2.207   3.084   7.814
13055TIP3    H139050   2.163   2.996   7.809
13055TIP3    H239051   2.283   3.061   7.869
13056TIP3   OH239052   2.254   2.762   8.385
13056TIP3    H139053   2.180   2.770   8.448
13056TIP3    H239054   2.296   2.850   8.391
13057TIP3   OH239055   2.070   2.274   7.005
13057TIP3    H139056   2.136   2.340   6.974
13057TIP3    H239057   2.116   2.236   7.083
13058TIP3   OH239058   2.201   2.139   7.206
13058TIP3    H139059   2.135   2.102   7.268
13058TIP3    H239060   2.267   2.180   7.266
13059TIP3   OH239061   2.252   2.533   7.641
13059TIP3    H139062   2.306   2.469   7.591
13059TIP3    H239063   2.246   2.608   7.579
13060TIP3   OH239064   2.082   2.833   7.836
13060TIP3    H139065   2.011   2.876   7.887
13060TIP3    H239066   2.033   2.786   7.766
13061TIP3   OH239067   2.135   2.051   6.855
13061TIP3    H139068   2.063   2.053   6.787
13061TIP3    H239069   2.107   2.127   6.910
13062TIP3   OH239070   2.000   1.723   6.819
13062TIP3    H139071   1.967   1.762   6.738
13062TIP3    H239072   1.977   1.628   6.806
13063TIP3   OH239073   2.013   2.007   7.360
13063TIP3    H139074   1.989   1.914   7.366
13063TIP3    H239075   2.000   2.034   7.454
13064TIP3   OH239076   2.301   2.423   8.213
13064TIP3    H139077   2.373   2.356   8.204
13064TIP3    H239078   2.329   2.491   8.150
13065TIP3   OH239079   2.487   2.228   8.226
13065TIP3    H139080   2.412   2.177   8.266
13065TIP3    H239081   2.559   2.163   8.241
13066TIP3   OH239082   1.949   1.457   6.803
13066TIP3    H139083   2.021   1.417   6.854
13066TIP3    H239084   1.875   1.395   6.816
13067TIP3   OH239085   2.169   1.898   7.736
13067TIP3    H139086   2.259   1.921   7.704
13067TIP3    H239087   2.178   1.922   7.830
13068TIP3   OH239088   2.236   2.029   7.975
13068TIP3    H139089   2.159   2.063   8.026
13068TIP3    H239090   2.268   2.111   7.931
13069TIP3   OH239091   2.675   1.610   8.530
13069TIP3    H139092   2.744   1.553   8.489
13069TIP3    H239093   2.661   1.678   8.462
13070TIP3   OH239094   2.563   1.766   8.334
13070TIP3    H139095   2.477   1.803   8.362
13070TIP3    H239096   2.532   1.689   8.281
13071TIP3   OH239097   2.207   1.397   6.930
13071TIP3    H139098   2.236   1.326   6.868
13071TIP3    H239099   2.267   1.471   6.906
13072TIP3   OH239100   1.763   2.929   7.188
13072TIP3    H139101   1.814   2.917   7.105
13072TIP3    H239102   1.814   2.998   7.233
13073TIP3   OH239103   0.860   2.718   8.564
13073TIP3    H139104   0.777   2.673   8.547
13073TIP3    H239105   0.862   2.729   8.660
13074TIP3   OH239106   1.040   2.768   8.121
13074TIP3    H139107   0.993   2.844   8.082
13074TIP3    H239108   1.126   2.781   8.075
13075TIP3   OH239109   1.485   3.010   8.257
13075TIP3    H139110   1.527   3.014   8.345
13075TIP3    H239111   1.549   3.061   8.203
13076TIP3   OH239112   1.664   3.162   8.118
13076TIP3    H139113   1.735   3.113   8.074
13076TIP3    H239114   1.717   3.220   8.178
13077TIP3   OH239115   2.461   1.523   8.216
13077TIP3    H139116   2.369   1.512   8.188
13077TIP3    H239117   2.496   1.432   8.207
13078TIP3   OH239118   0.716   3.019   8.148
13078TIP3    H139119   0.626   3.051   8.125
13078TIP3    H239120   0.728   3.061   8.234
13079TIP3   OH239121   0.953   3.002   8.003
13079TIP3    H139122   0.866   3.015   8.047
13079TIP3    H239123   0.934   3.036   7.913
13080TIP3   OH239124   1.379   3.030   7.801
13080TIP3    H139125   1.310   3.049   7.735
13080TIP3    H239126   1.391   3.118   7.841
13081TIP3   OH239127   1.648   2.970   7.852
13081TIP3    H139128   1.554   2.987   7.832
13081TIP3    H239129   1.691   3.045   7.808
13082TIP3   OH239130   1.856   3.162   7.766
13082TIP3    H139131   1.841   3.247   7.719
13082TIP3    H239132   1.881   3.102   7.693
13083TIP3   OH239133   0.626   2.812   7.885
13083TIP3    H139134   0.648   2.794   7.978
13083TIP3    H239135   0.702   2.769   7.840
13084TIP3   OH239136   0.824   2.687   7.746
13084TIP3    H139137   0.842   2.603   7.795
13084TIP3    H239138   0.914   2.725   7.741
13085TIP3   OH239139   1.089   2.783   7.749
13085TIP3    H139140   1.121   2.691   7.737
13085TIP3    H239141   1.133   2.805   7.833
13086TIP3   OH239142   1.677   1.435   7.836
13086TIP3    H139143   1.628   1.353   7.852
13086TIP3    H239144   1.746   1.405   7.775
13087TIP3   OH239145   2.191   1.311   7.721
13087TIP3    H139146   2.226   1.396   7.690
13087TIP3    H239147   2.096   1.331   7.732
13088TIP3   OH239148   2.332   1.497   7.494
13088TIP3    H139149   2.316   1.409   7.454
13088TIP3    H239150   2.410   1.473   7.547
13089TIP3   OH239151   1.908   1.320   7.708
13089TIP3    H139152   1.891   1.275   7.624
13089TIP3    H239153   1.890   1.247   7.772
13090TIP3   OH239154   1.929   1.251   7.271
13090TIP3    H139155   1.845   1.297   7.290
13090TIP3    H239156   1.913   1.166   7.317
13091TIP3   OH239157   0.405   2.587   7.286
13091TIP3    H139158   0.349   2.551   7.218
13091TIP3    H239159   0.397   2.683   7.266
13092TIP3   OH239160   1.307   1.384   7.361
13092TIP3    H139161   1.356   1.315   7.406
13092TIP3    H239162   1.348   1.465   7.398
13093TIP3   OH239163   1.190   2.776   6.863
13093TIP3    H139164   1.277   2.800   6.826
13093TIP3    H239165   1.167   2.702   6.803
13094TIP3   OH239166   1.908   2.897   6.955
13094TIP3    H139167   1.900   2.800   6.943
13094TIP3    H239168   1.862   2.930   6.875
13095TIP3   OH239169   0.490   2.607   6.922
13095TIP3    H139170   0.495   2.656   7.005
13095TIP3    H239171   0.582   2.572   6.911
13096TIP3   OH239172   2.200   1.481   8.654
13096TIP3    H139173   2.226   1.417   8.723
13096TIP3    H239174   2.283   1.485   8.602
13097TIP3   OH239175   2.133   3.040   8.143
13097TIP3    H139176   2.055   3.009   8.093
13097TIP3    H239177   2.114   3.136   8.146
13098TIP3   OH239178   3.401   2.414   6.907
13098TIP3    H139179   3.371   2.505   6.886
13098TIP3    H239180   3.324   2.363   6.875
13099TIP3   OH239181   3.400   2.413   7.291
13099TIP3    H139182   3.432   2.386   7.379
13099TIP3    H239183   3.359   2.331   7.259
13100TIP3   OH239184   2.698   2.305   7.656
13100TIP3    H139185   2.728   2.239   7.721
13100TIP3    H239186   2.776   2.363   7.651
13101TIP3   OH239187   3.648   2.712   6.972
13101TIP3    H139188   3.626   2.646   7.039
13101TIP3    H239189   3.671   2.790   7.026
13102TIP3   OH239190   2.670   2.716   7.378
13102TIP3    H139191   2.661   2.619   7.381
13102TIP3    H239192   2.767   2.725   7.373
13103TIP3   OH239193   2.353   1.890   7.193
13103TIP3    H139194   2.325   1.983   7.200
13103TIP3    H239195   2.296   1.863   7.118
13104TIP3   OH239196   2.437   2.205   7.334
13104TIP3    H139197   2.490   2.132   7.372
13104TIP3    H239198   2.501   2.249   7.276
13105TIP3   OH239199   3.292   3.177   6.988
13105TIP3    H139200   3.337   3.106   6.938
13105TIP3    H239201   3.285   3.139   7.076
13106TIP3   OH239202   3.198   2.639   7.338
13106TIP3    H139203   3.237   2.562   7.294
13106TIP3    H239204   3.281   2.685   7.363
13107TIP3   OH239205   4.186   1.960   7.322
13107TIP3    H139206   4.225   2.025   7.383
13107TIP3    H239207   4.252   1.954   7.252
13108TIP3   OH239208   3.610   2.142   7.369
13108TIP3    H139209   3.652   2.057   7.391
13108TIP3    H239210   3.579   2.124   7.278
13109TIP3   OH239211   2.947   1.799   7.336
13109TIP3    H139212   2.930   1.872   7.273
13109TIP3    H239213   2.901   1.726   7.291
13110TIP3   OH239214   3.644   1.891   6.958
13110TIP3    H139215   3.715   1.875   7.024
13110TIP3    H239216   3.696   1.926   6.884
13111TIP3   OH239217   2.585   2.000   7.439
13111TIP3    H139218   2.667   1.982   7.489
13111TIP3    H239219   2.604   1.948   7.358
13112TIP3   OH239220   3.023   2.199   7.237
13112TIP3    H139221   3.117   2.175   7.250
13112TIP3    H239222   2.985   2.114   7.204
13113TIP3   OH239223   4.257   2.152   7.502
13113TIP3    H139224   4.179   2.211   7.502
13113TIP3    H239225   4.316   2.192   7.568
13114TIP3   OH239226   2.945   1.782   7.769
13114TIP3    H139227   2.883   1.819   7.703
13114TIP3    H239228   2.895   1.799   7.851
13115TIP3   OH239229   3.291   2.634   6.778
13115TIP3    H139230   3.250   2.616   6.692
13115TIP3    H239231   3.246   2.718   6.803
13116TIP3   OH239232   3.051   2.558   7.563
13116TIP3    H139233   2.990   2.625   7.601
13116TIP3    H239234   3.094   2.609   7.491
13117TIP3   OH239235   3.853   1.894   7.132
13117TIP3    H139236   3.840   1.848   7.216
13117TIP3    H239237   3.909   1.969   7.158
13118TIP3   OH239238   2.812   1.896   7.554
13118TIP3    H139239   2.874   1.968   7.579
13118TIP3    H239240   2.864   1.855   7.481
13119TIP3   OH239241   2.879   2.753   7.662
13119TIP3    H139242   2.854   2.839   7.624
13119TIP3    H239243   2.801   2.737   7.719
13120TIP3   OH239244   2.273   2.443   6.898
13120TIP3    H139245   2.233   2.470   6.814
13120TIP3    H239246   2.304   2.529   6.934
13121TIP3   OH239247   3.714   2.958   7.137
13121TIP3    H139248   3.625   2.949   7.178
13121TIP3    H239249   3.705   3.045   7.092
13122TIP3   OH239250   4.004   1.852   7.501
13122TIP3    H139251   3.918   1.888   7.474
13122TIP3    H239252   4.064   1.888   7.431
13123TIP3   OH239253   3.298   1.500   7.481
13123TIP3    H139254   3.288   1.405   7.504
13123TIP3    H239255   3.222   1.538   7.531
13124TIP3   OH239256   3.414   3.004   6.812
13124TIP3    H139257   3.464   2.922   6.791
13124TIP3    H239258   3.475   3.070   6.772
13125TIP3   OH239259   3.558   2.789   6.722
13125TIP3    H139260   3.520   2.710   6.680
13125TIP3    H239261   3.595   2.752   6.805
13126TIP3   OH239262   3.940   2.871   7.482
13126TIP3    H139263   3.925   2.793   7.424
13126TIP3    H239264   3.920   2.945   7.421
13127TIP3   OH239265   3.231   2.264   6.740
13127TIP3    H139266   3.151   2.317   6.718
13127TIP3    H239267   3.277   2.262   6.654
13128TIP3   OH239268   3.189   2.049   6.456
13128TIP3    H139269   3.257   2.100   6.504
13128TIP3    H239270   3.247   1.986   6.408
13129TIP3   OH239271   4.133   2.507   7.330
13129TIP3    H139272   4.050   2.560   7.333
13129TIP3    H239273   4.161   2.523   7.237
13130TIP3   OH239274   3.579   2.348   6.711
13130TIP3    H139275   3.523   2.372   6.788
13130TIP3    H239276   3.661   2.320   6.757
13131TIP3   OH239277   3.808   2.388   7.627
13131TIP3    H139278   3.807   2.470   7.680
13131TIP3    H239279   3.721   2.393   7.583
13132TIP3   OH239280   2.811   2.345   7.130
13132TIP3    H139281   2.770   2.287   7.062
13132TIP3    H239282   2.888   2.291   7.158
13133TIP3   OH239283   2.940   2.755   7.277
13133TIP3    H139284   2.920   2.717   7.190
13133TIP3    H239285   3.030   2.721   7.294
13134TIP3   OH239286   2.944   2.317   7.481
13134TIP3    H139287   2.980   2.294   7.393
13134TIP3    H239288   2.989   2.402   7.501
13135TIP3   OH239289   3.475   2.953   7.260
13135TIP3    H139290   3.459   3.034   7.313
13135TIP3    H239291   3.458   2.881   7.323
13136TIP3   OH239292   3.085   2.873   7.806
13136TIP3    H139293   3.025   2.935   7.853
13136TIP3    H239294   3.020   2.820   7.756
13137TIP3   OH239295   3.419   2.205   6.537
13137TIP3    H139296   3.478   2.265   6.588
13137TIP3    H239297   3.444   2.228   6.444
13138TIP3   OH239298   2.839   2.430   7.907
13138TIP3    H139299   2.844   2.516   7.952
13138TIP3    H239300   2.744   2.409   7.919
13139TIP3   OH239301   3.162   2.884   6.814
13139TIP3    H139302   3.243   2.938   6.827
13139TIP3    H239303   3.102   2.946   6.772
13140TIP3   OH239304   2.879   3.041   7.893
13140TIP3    H139305   2.844   3.040   7.802
13140TIP3    H239306   2.799   3.019   7.946
13141TIP3   OH239307   3.935   1.445   6.586
13141TIP3    H139308   3.853   1.465   6.636
13141TIP3    H239309   3.948   1.528   6.536
13142TIP3   OH239310   2.676   2.188   6.934
13142TIP3    H139311   2.611   2.235   6.878
13142TIP3    H239312   2.639   2.100   6.938
13143TIP3   OH239313   3.734   2.813   6.136
13143TIP3    H139314   3.742   2.910   6.119
13143TIP3    H239315   3.826   2.784   6.123
13144TIP3   OH239316   2.458   2.572   7.840
13144TIP3    H139317   2.392   2.549   7.772
13144TIP3    H239318   2.495   2.485   7.865
13145TIP3   OH239319   2.312   2.763   7.474
13145TIP3    H139320   2.408   2.760   7.464
13145TIP3    H239321   2.301   2.844   7.527
13146TIP3   OH239322   4.176   3.215   7.529
13146TIP3    H139323   4.175   3.119   7.545
13146TIP3    H239324   4.093   3.241   7.575
13147TIP3   OH239325   3.282   3.002   7.663
13147TIP3    H139326   3.281   3.094   7.696
13147TIP3    H239327   3.211   2.962   7.717
13148TIP3   OH239328   3.044   3.130   6.616
13148TIP3    H139329   2.998   3.111   6.531
13148TIP3    H239330   3.011   3.218   6.639
13149TIP3   OH239331   2.481   2.980   7.000
13149TIP3    H139332   2.529   2.970   7.085
13149TIP3    H239333   2.424   2.901   7.002
13150TIP3   OH239334   3.244   3.032   6.255
13150TIP3    H139335   3.303   2.962   6.218
13150TIP3    H239336   3.280   3.041   6.346
13151TIP3   OH239337   3.295   3.080   6.525
13151TIP3    H139338   3.207   3.090   6.567
13151TIP3    H239339   3.346   3.040   6.597
13152TIP3   OH239340   4.066   2.348   7.803
13152TIP3    H139341   3.984   2.355   7.752
13152TIP3    H239342   4.083   2.251   7.799
13153TIP3   OH239343   2.663   2.755   7.828
13153TIP3    H139344   2.713   2.738   7.911
13153TIP3    H239345   2.589   2.691   7.836
13154TIP3   OH239346   3.059   1.578   7.613
13154TIP3    H139347   2.969   1.549   7.587
13154TIP3    H239348   3.037   1.659   7.661
13155TIP3   OH239349   3.597   1.693   7.807
13155TIP3    H139350   3.666   1.665   7.871
13155TIP3    H239351   3.514   1.673   7.855
13156TIP3   OH239352   3.830   2.120   7.721
13156TIP3    H139353   3.785   2.117   7.808
13156TIP3    H239354   3.809   2.209   7.689
13157TIP3   OH239355   3.496   2.251   6.283
13157TIP3    H139356   3.460   2.227   6.195
13157TIP3    H239357   3.577   2.298   6.256
13158TIP3   OH239358   3.207   1.626   6.584
13158TIP3    H139359   3.174   1.623   6.676
13158TIP3    H239360   3.168   1.543   6.550
13159TIP3   OH239361   2.990   2.093   7.630
13159TIP3    H139362   2.944   2.115   7.713
13159TIP3    H239363   2.975   2.175   7.577
13160TIP3   OH239364   2.878   1.979   7.145
13160TIP3    H139365   2.784   1.955   7.160
13160TIP3    H239366   2.892   1.939   7.056
13161TIP3   OH239367   3.368   2.065   6.873
13161TIP3    H139368   3.316   2.136   6.830
13161TIP3    H239369   3.423   2.033   6.799
13162TIP3   OH239370   3.543   2.343   7.959
13162TIP3    H139371   3.521   2.270   8.021
13162TIP3    H239372   3.637   2.357   7.981
13163TIP3   OH239373   3.524   2.093   7.111
13163TIP3    H139374   3.463   2.120   7.040
13163TIP3    H239375   3.559   2.012   7.069
13164TIP3   OH239376   2.812   2.121   7.841
13164TIP3    H139377   2.845   2.184   7.908
13164TIP3    H239378   2.802   2.039   7.893
13165TIP3   OH239379   2.862   1.599   6.550
13165TIP3    H139380   2.854   1.598   6.647
13165TIP3    H239381   2.784   1.653   6.525
13166TIP3   OH239382   2.388   1.623   6.946
13166TIP3    H139383   2.430   1.656   6.863
13166TIP3    H239384   2.322   1.695   6.957
13167TIP3   OH239385   3.534   2.340   7.534
13167TIP3    H139386   3.568   2.269   7.476
13167TIP3    H239387   3.506   2.287   7.612
13168TIP3   OH239388   3.205   1.804   7.207
13168TIP3    H139389   3.126   1.801   7.264
13168TIP3    H239390   3.277   1.796   7.272
13169TIP3   OH239391   2.635   1.855   7.212
13169TIP3    H139392   2.541   1.852   7.185
13169TIP3    H239393   2.670   1.766   7.190
13170TIP3   OH239394   2.907   1.853   6.903
13170TIP3    H139395   3.002   1.868   6.884
13170TIP3    H239396   2.862   1.876   6.819
13171TIP3   OH239397   3.694   1.880   7.407
13171TIP3    H139398   3.662   1.891   7.500
13171TIP3    H239399   3.628   1.817   7.373
13172TIP3   OH239400   2.750   1.888   6.681
13172TIP3    H139401   2.681   1.843   6.630
13172TIP3    H239402   2.804   1.926   6.607
13173TIP3   OH239403   3.867   3.566   7.628
13173TIP3    H139404   3.865   3.590   7.533
13173TIP3    H239405   3.947   3.614   7.657
13174TIP3   OH239406   2.824   2.677   8.049
13174TIP3    H139407   2.904   2.706   8.097
13174TIP3    H239408   2.760   2.675   8.122
13175TIP3   OH239409   3.287   2.131   7.304
13175TIP3    H139410   3.361   2.091   7.255
13175TIP3    H239411   3.296   2.088   7.391
13176TIP3   OH239412   2.805   1.619   7.182
13176TIP3    H139413   2.779   1.538   7.231
13176TIP3    H239414   2.862   1.583   7.113
13177TIP3   OH239415   3.264   2.028   7.592
13177TIP3    H139416   3.175   2.064   7.608
13177TIP3    H239417   3.322   2.087   7.644
13178TIP3   OH239418   3.001   2.417   6.688
13178TIP3    H139419   2.928   2.352   6.677
13178TIP3    H239420   2.982   2.451   6.779
13179TIP3   OH239421   3.900   2.652   7.318
13179TIP3    H139422   3.921   2.703   7.237
13179TIP3    H239423   3.814   2.610   7.294
13180TIP3   OH239424   3.459   1.728   6.553
13180TIP3    H139425   3.362   1.711   6.560
13180TIP3    H239426   3.467   1.823   6.576
13181TIP3   OH239427   3.400   2.735   7.686
13181TIP3    H139428   3.427   2.714   7.776
13181TIP3    H239429   3.362   2.824   7.694
13182TIP3   OH239430   3.528   1.977   6.656
13182TIP3    H139431   3.625   1.984   6.670
13182TIP3    H239432   3.509   2.057   6.602
13183TIP3   OH239433   2.690   2.434   7.364
13183TIP3    H139434   2.731   2.410   7.279
13183TIP3    H239435   2.741   2.379   7.426
13184TIP3   OH239436   3.147   2.567   6.512
13184TIP3    H139437   3.099   2.653   6.516
13184TIP3    H239438   3.092   2.512   6.571
13185TIP3   OH239439   2.574   2.360   7.978
13185TIP3    H139440   2.596   2.348   8.073
13185TIP3    H239441   2.507   2.291   7.965
13186TIP3   OH239442   3.301   2.475   7.997
13186TIP3    H139443   3.243   2.415   7.948
13186TIP3    H239444   3.389   2.440   7.971
13187TIP3   OH239445   3.561   2.995   7.582
13187TIP3    H139446   3.464   2.994   7.595
13187TIP3    H239447   3.589   3.047   7.660
13188TIP3   OH239448   3.973   2.069   6.491
13188TIP3    H139449   3.910   2.024   6.429
13188TIP3    H239450   3.970   2.158   6.448
13189TIP3   OH239451   4.190   2.924   7.570
13189TIP3    H139452   4.092   2.919   7.562
13189TIP3    H239453   4.216   2.896   7.480
13190TIP3   OH239454   3.674   2.886   6.400
13190TIP3    H139455   3.644   2.814   6.458
13190TIP3    H239456   3.685   2.842   6.314
13191TIP3   OH239457   3.667   2.516   7.235
13191TIP3    H139458   3.573   2.491   7.250
13191TIP3    H239459   3.700   2.436   7.190
13192TIP3   OH239460   2.795   2.744   6.990
13192TIP3    H139461   2.796   2.825   6.936
13192TIP3    H239462   2.700   2.728   6.999
13193TIP3   OH239463   2.360   2.047   6.695
13193TIP3    H139464   2.405   2.132   6.713
13193TIP3    H239465   2.281   2.054   6.753
13194TIP3   OH239466   2.931   2.508   6.933
13194TIP3    H139467   2.897   2.598   6.951
13194TIP3    H239468   2.895   2.459   7.009
13195TIP3   OH239469   3.064   3.087   7.458
13195TIP3    H139470   3.105   3.160   7.408
13195TIP3    H239471   3.141   3.052   7.507
13196TIP3   OH239472   2.714   2.982   6.842
13196TIP3    H139473   2.628   2.991   6.888
13196TIP3    H239474   2.746   3.075   6.845
13197TIP3   OH239475   3.451   2.721   7.418
13197TIP3    H139476   3.441   2.720   7.515
13197TIP3    H239477   3.531   2.668   7.407
13198TIP3   OH239478   3.427   2.615   6.300
13198TIP3    H139479   3.479   2.589   6.380
13198TIP3    H239480   3.338   2.588   6.328
13199TIP3   OH239481   3.701   3.254   7.467
13199TIP3    H139482   3.621   3.198   7.460
13199TIP3    H239483   3.685   3.319   7.395
13200TIP3   OH239484   3.766   3.088   6.120
13200TIP3    H139485   3.804   3.159   6.066
13200TIP3    H239486   3.686   3.134   6.153
13201TIP3   OH239487   2.787   1.864   7.985
13201TIP3    H139488   2.692   1.868   8.003
13201TIP3    H239489   2.819   1.808   8.058
13202TIP3   OH239490   3.586   2.550   6.518
13202TIP3    H139491   3.576   2.482   6.588
13202TIP3    H239492   3.683   2.546   6.503
13203TIP3   OH239493   2.502   2.949   7.617
13203TIP3    H139494   2.556   2.875   7.651
13203TIP3    H239495   2.531   3.021   7.675
13204TIP3   OH239496   2.792   2.595   6.300
13204TIP3    H139497   2.806   2.503   6.271
13204TIP3    H239498   2.772   2.582   6.395
13205TIP3   OH239499   2.737   2.599   6.574
13205TIP3    H139500   2.811   2.574   6.630
13205TIP3    H239501   2.741   2.697   6.579
13206TIP3   OH239502   2.472   2.293   6.776
13206TIP3    H139503   2.406   2.338   6.832
13206TIP3    H239504   2.487   2.361   6.708
13207TIP3   OH239505   3.621   1.929   7.667
13207TIP3    H139506   3.702   1.969   7.703
13207TIP3    H239507   3.610   1.849   7.723
13208TIP3   OH239508   3.503   1.680   6.833
13208TIP3    H139509   3.490   1.703   6.740
13208TIP3    H239510   3.543   1.763   6.869
13209TIP3   OH239511   3.004   2.796   6.522
13209TIP3    H139512   2.917   2.824   6.556
13209TIP3    H239513   3.020   2.867   6.458
13210TIP3   OH239514   3.189   1.862   6.935
13210TIP3    H139515   3.255   1.933   6.918
13210TIP3    H239516   3.197   1.853   7.033
13211TIP3   OH239517   3.462   2.178   7.742
13211TIP3    H139518   3.484   2.230   7.822
13211TIP3    H239519   3.517   2.098   7.754
13212TIP3   OH239520   3.335   1.585   7.036
13212TIP3    H139521   3.335   1.660   7.099
13212TIP3    H239522   3.397   1.621   6.967
13213TIP3   OH239523   2.747   2.872   6.588
13213TIP3    H139524   2.718   2.942   6.526
13213TIP3    H239525   2.732   2.916   6.675
13214TIP3   OH239526   2.847   1.586   6.827
13214TIP3    H139527   2.847   1.677   6.862
13214TIP3    H239528   2.943   1.566   6.834
13215TIP3   OH239529   4.101   2.082   7.735
13215TIP3    H139530   4.003   2.072   7.729
13215TIP3    H239531   4.127   2.055   7.646
13216TIP3   OH239532   3.749   2.276   7.107
13216TIP3    H139533   3.674   2.216   7.122
13216TIP3    H239534   3.821   2.231   7.157
13217TIP3   OH239535   2.465   2.501   6.581
13217TIP3    H139536   2.532   2.571   6.590
13217TIP3    H239537   2.510   2.445   6.513
13218TIP3   OH239538   2.406   1.776   6.718
13218TIP3    H139539   2.409   1.873   6.713
13218TIP3    H239540   2.331   1.756   6.662
13219TIP3   OH239541   3.721   3.229   7.060
13219TIP3    H139542   3.678   3.276   6.985
13219TIP3    H239543   3.815   3.248   7.039
13220TIP3   OH239544   2.790   1.500   7.589
13220TIP3    H139545   2.768   1.462   7.502
13220TIP3    H239546   2.787   1.421   7.648
13221TIP3   OH239547   2.335   2.714   6.967
13221TIP3    H139548   2.266   2.746   7.027
13221TIP3    H239549   2.307   2.756   6.882
13222TIP3   OH239550   2.493   3.259   8.041
13222TIP3    H139551   2.580   3.259   8.087
13222TIP3    H239552   2.474   3.164   8.038
13223TIP3   OH239553   2.973   3.222   8.085
13223TIP3    H139554   3.068   3.203   8.092
13223TIP3    H239555   2.948   3.162   8.011
13224TIP3   OH239556   2.956   2.799   6.213
13224TIP3    H139557   2.901   2.726   6.250
13224TIP3    H239558   3.031   2.748   6.176
13225TIP3   OH239559   3.613   3.129   7.818
13225TIP3    H139560   3.605   3.059   7.886
13225TIP3    H239561   3.691   3.179   7.849
13226TIP3   OH239562   3.391   2.839   6.124
13226TIP3    H139563   3.436   2.774   6.181
13226TIP3    H239564   3.446   2.838   6.043
13227TIP3   OH239565   2.623   2.666   8.240
13227TIP3    H139566   2.640   2.570   8.246
13227TIP3    H239567   2.536   2.667   8.196
13228TIP3   OH239568   2.600   2.314   6.434
13228TIP3    H139569   2.658   2.283   6.506
13228TIP3    H239570   2.666   2.319   6.361
13229TIP3   OH239571   3.230   2.750   8.014
13229TIP3    H139572   3.190   2.767   7.927
13229TIP3    H239573   3.262   2.657   8.006
13230TIP3   OH239574   3.112   2.513   6.242
13230TIP3    H139575   3.114   2.526   6.339
13230TIP3    H239576   3.112   2.415   6.236
13231TIP3   OH239577   3.723   2.759   7.619
13231TIP3    H139578   3.799   2.804   7.577
13231TIP3    H239579   3.652   2.825   7.606
13232TIP3   OH239580   2.743   2.400   8.220
13232TIP3    H139581   2.817   2.342   8.200
13232TIP3    H239582   2.768   2.432   8.310
13233TIP3   OH239583   2.808   2.219   6.654
13233TIP3    H139584   2.783   2.176   6.737
13233TIP3    H239585   2.845   2.145   6.603
13234TIP3   OH239586   3.075   2.280   7.881
13234TIP3    H139587   2.999   2.343   7.884
13234TIP3    H239588   3.127   2.316   7.805
13235TIP3   OH239589   2.910   2.013   6.496
13235TIP3    H139590   2.884   2.017   6.402
13235TIP3    H239591   3.007   2.018   6.488
13236TIP3   OH239592   3.595   2.685   8.017
13236TIP3    H139593   3.676   2.659   7.970
13236TIP3    H239594   3.591   2.619   8.089
13237TIP3   OH239595   3.732   2.342   6.161
13237TIP3    H139596   3.711   2.297   6.076
13237TIP3    H239597   3.699   2.433   6.138
13238TIP3   OH239598   3.200   2.072   8.010
13238TIP3    H139599   3.202   1.992   7.955
13238TIP3    H239600   3.156   2.137   7.951
13239TIP3   OH239601   3.203   1.859   7.817
13239TIP3    H139602   3.232   1.899   7.733
13239TIP3    H239603   3.110   1.836   7.798
13240TIP3   OH239604   3.229   2.392   7.690
13240TIP3    H139605   3.314   2.401   7.646
13240TIP3    H239606   3.174   2.460   7.645
13241TIP3   OH239607   3.812   2.360   8.070
13241TIP3    H139608   3.858   2.275   8.084
13241TIP3    H239609   3.883   2.416   8.036
13242TIP3   OH239610   3.852   2.615   7.807
13242TIP3    H139611   3.795   2.669   7.748
13242TIP3    H239612   3.941   2.633   7.768
13243TIP3   OH239613   3.078   2.184   8.240
13243TIP3    H139614   3.010   2.115   8.256
13243TIP3    H239615   3.113   2.156   8.153
13244TIP3   OH239616   3.336   1.621   7.883
13244TIP3    H139617   3.286   1.703   7.863
13244TIP3    H239618   3.266   1.553   7.874
13245TIP3   OH239619   3.461   2.127   8.101
13245TIP3    H139620   3.451   2.112   8.197
13245TIP3    H239621   3.371   2.101   8.072
13246TIP3   OH239622   3.701   2.077   7.955
13246TIP3    H139623   3.627   2.076   8.018
13246TIP3    H239624   3.776   2.045   8.011
13247TIP3   OH239625   3.928   2.016   8.106
13247TIP3    H139626   3.941   1.920   8.123
13247TIP3    H239627   3.925   2.054   8.196
13248TIP3   OH239628   2.919   1.962   8.293
13248TIP3    H139629   2.924   1.870   8.261
13248TIP3    H239630   2.957   1.951   8.383
13249TIP3   OH239631   3.431   1.633   8.140
13249TIP3    H139632   3.497   1.561   8.137
13249TIP3    H239633   3.391   1.625   8.052
13250TIP3   OH239634   3.497   1.848   8.298
13250TIP3    H139635   3.475   1.775   8.236
13250TIP3    H239636   3.418   1.905   8.293
13251TIP3   OH239637   2.717   3.075   6.401
13251TIP3    H139638   2.813   3.069   6.382
13251TIP3    H239639   2.688   3.124   6.323
13252TIP3   OH239640   2.197   2.456   6.618
13252TIP3    H139641   2.291   2.478   6.603
13252TIP3    H239642   2.191   2.367   6.576
13253TIP3   OH239643   2.112   3.069   7.031
13253TIP3    H139644   2.045   3.008   6.994
13253TIP3    H239645   2.156   3.010   7.096
13254TIP3   OH239646   2.248   2.918   7.217
13254TIP3    H139647   2.234   2.847   7.281
13254TIP3    H239648   2.299   2.981   7.272
13255TIP3   OH239649   3.976   3.315   7.018
13255TIP3    H139650   4.001   3.352   7.105
13255TIP3    H239651   4.035   3.363   6.958
13256TIP3   OH239652   4.003   3.341   7.301
13256TIP3    H139653   3.960   3.253   7.296
13256TIP3    H239654   4.079   3.319   7.357
13257TIP3   OH239655   4.049   3.018   7.871
13257TIP3    H139656   3.977   3.026   7.937
13257TIP3    H239657   4.091   3.106   7.877
13258TIP3   OH239658   3.866   2.530   6.492
13258TIP3    H139659   3.931   2.596   6.460
13258TIP3    H239660   3.912   2.493   6.570
13259TIP3   OH239661   3.993   2.403   6.707
13259TIP3    H139662   3.920   2.348   6.744
13259TIP3    H239663   4.009   2.463   6.780
13260TIP3   OH239664   4.044   2.792   7.130
13260TIP3    H139665   4.086   2.731   7.068
13260TIP3    H239666   4.037   2.874   7.076
13261TIP3   OH239667   3.878   3.089   7.323
13261TIP3    H139668   3.808   3.134   7.375
13261TIP3    H239669   3.826   3.044   7.253
13262TIP3   OH239670   3.931   2.306   6.343
13262TIP3    H139671   3.861   2.305   6.274
13262TIP3    H239672   3.902   2.384   6.395
13263TIP3   OH239673   3.804   1.978   6.298
13263TIP3    H139674   3.761   2.017   6.221
13263TIP3    H239675   3.779   1.884   6.288
13264TIP3   OH239676   3.809   2.253   6.840
13264TIP3    H139677   3.815   2.156   6.834
13264TIP3    H239678   3.793   2.267   6.936
13265TIP3   OH239679   2.434   2.327   7.588
13265TIP3    H139680   2.433   2.298   7.495
13265TIP3    H239681   2.531   2.329   7.606
13266TIP3   OH239682   4.097   2.679   7.699
13266TIP3    H139683   4.168   2.612   7.690
13266TIP3    H239684   4.126   2.749   7.639
13267TIP3   OH239685   4.281   2.483   7.711
13267TIP3    H139686   4.206   2.433   7.751
13267TIP3    H239687   4.355   2.422   7.731
13268TIP3   OH239688   3.746   1.713   6.283
13268TIP3    H139689   3.820   1.680   6.339
13268TIP3    H239690   3.672   1.654   6.305
13269TIP3   OH239691   3.805   1.972   6.737
13269TIP3    H139692   3.844   1.882   6.752
13269TIP3    H239693   3.863   2.002   6.664
13270TIP3   OH239694   3.963   2.155   7.226
13270TIP3    H139695   4.046   2.181   7.182
13270TIP3    H239696   3.982   2.181   7.318
13271TIP3   OH239697   4.023   2.294   7.467
13271TIP3    H139698   3.945   2.328   7.515
13271TIP3    H239699   4.057   2.375   7.424
13272TIP3   OH239700   2.653   2.016   8.260
13272TIP3    H139701   2.751   2.008   8.266
13272TIP3    H239702   2.628   1.931   8.302
13273TIP3   OH239703   4.486   1.881   8.019
13273TIP3    H139704   4.545   1.815   7.975
13273TIP3    H239705   4.457   1.936   7.942
13274TIP3   OH239706   3.912   1.721   6.774
13274TIP3    H139707   3.961   1.705   6.858
13274TIP3    H239708   3.852   1.644   6.773
13275TIP3   OH239709   2.597   1.701   7.601
13275TIP3    H139710   2.663   1.630   7.611
13275TIP3    H239711   2.655   1.778   7.592
13276TIP3   OH239712   2.418   1.982   7.660
13276TIP3    H139713   2.474   1.989   7.581
13276TIP3    H239714   2.438   2.063   7.707
13277TIP3   OH239715   4.357   2.023   7.825
13277TIP3    H139716   4.266   2.057   7.836
13277TIP3    H239717   4.338   1.948   7.766
13278TIP3   OH239718   3.994   1.654   6.409
13278TIP3    H139719   4.033   1.583   6.354
13278TIP3    H239720   4.060   1.725   6.402
13279TIP3   OH239721   2.342   1.541   7.203
13279TIP3    H139722   2.294   1.466   7.163
13279TIP3    H239723   2.386   1.574   7.122
13280TIP3   OH239724   3.559   3.187   6.675
13280TIP3    H139725   3.608   3.173   6.592
13280TIP3    H239726   3.611   3.255   6.719
13281TIP3   OH239727   2.619   1.566   7.983
13281TIP3    H139728   2.571   1.558   8.067
13281TIP3    H239729   2.550   1.602   7.925
13282TIP3   OH239730   2.658   2.993   8.059
13282TIP3    H139731   2.566   2.965   8.042
13282TIP3    H239732   2.669   2.972   8.152
13283TIP3   OH239733   2.837   3.024   7.607
13283TIP3    H139734   2.790   3.100   7.568
13283TIP3    H239735   2.924   3.038   7.563
13284TIP3   OH239736   3.281   3.268   7.745
13284TIP3    H139737   3.323   3.268   7.834
13284TIP3    H239738   3.347   3.319   7.693
13285TIP3   OH239739   3.460   3.420   7.605
13285TIP3    H139740   3.531   3.369   7.562
13285TIP3    H239741   3.512   3.477   7.665
13286TIP3   OH239742   4.253   1.783   7.717
13286TIP3    H139743   4.171   1.788   7.665
13286TIP3    H239744   4.291   1.698   7.686
13287TIP3   OH239745   2.513   3.280   7.631
13287TIP3    H139746   2.424   3.313   7.608
13287TIP3    H239747   2.524   3.320   7.718
13288TIP3   OH239748   2.750   3.259   7.489
13288TIP3    H139749   2.663   3.272   7.533
13288TIP3    H239750   2.730   3.292   7.399
13289TIP3   OH239751   3.175   3.287   7.287
13289TIP3    H139752   3.106   3.307   7.221
13289TIP3    H239753   3.188   3.375   7.329
13290TIP3   OH239754   3.444   3.226   7.338
13290TIP3    H139755   3.350   3.244   7.319
13290TIP3    H239756   3.488   3.302   7.295
13291TIP3   OH239757   3.651   3.418   7.253
13291TIP3    H139758   3.637   3.503   7.205
13291TIP3    H239759   3.677   3.359   7.179
13292TIP3   OH239760   2.425   3.074   7.375
13292TIP3    H139761   2.451   3.048   7.466
13292TIP3    H239762   2.497   3.031   7.325
13293TIP3   OH239763   2.619   2.945   7.233
13293TIP3    H139764   2.635   2.861   7.282
13293TIP3    H239765   2.710   2.982   7.229
13294TIP3   OH239766   2.885   3.040   7.237
13294TIP3    H139767   2.917   2.949   7.224
13294TIP3    H239768   2.931   3.062   7.320
13295TIP3   OH239769   3.455   1.694   7.317
13295TIP3    H139770   3.416   1.624   7.373
13295TIP3    H239771   3.533   1.649   7.278
13296TIP3   OH239772   3.983   1.571   7.223
13296TIP3    H139773   4.019   1.628   7.151
13296TIP3    H239774   3.889   1.596   7.222
13297TIP3   OH239775   4.079   1.680   6.990
13297TIP3    H139776   4.153   1.628   6.952
13297TIP3    H239777   4.114   1.771   6.977
13298TIP3   OH239778   2.707   1.402   7.338
13298TIP3    H139779   2.618   1.365   7.343
13298TIP3    H239780   2.761   1.319   7.337
13299TIP3   OH239781   2.506   1.272   6.982
13299TIP3    H139782   2.536   1.322   6.903
13299TIP3    H239783   2.472   1.342   7.038
13300TIP3   OH239784   3.150   1.441   7.222
13300TIP3    H139785   3.209   1.487   7.160
13300TIP3    H239786   3.183   1.473   7.307
13301TIP3   OH239787   3.697   1.585   7.205
13301TIP3    H139788   3.699   1.546   7.117
13301TIP3    H239789   3.685   1.505   7.261
13302TIP3   OH239790   3.730   1.507   6.766
13302TIP3    H139791   3.643   1.550   6.779
13302TIP3    H239792   3.716   1.422   6.813
13303TIP3   OH239793   2.213   2.847   6.767
13303TIP3    H139794   2.128   2.814   6.733
13303TIP3    H239795   2.203   2.942   6.746
13304TIP3   OH239796   2.614   1.432   6.754
13304TIP3    H139797   2.661   1.370   6.694
13304TIP3    H239798   2.688   1.487   6.786
13305TIP3   OH239799   3.124   1.611   6.850
13305TIP3    H139800   3.185   1.564   6.909
13305TIP3    H239801   3.146   1.703   6.874
13306TIP3   OH239802   2.985   3.034   6.349
13306TIP3    H139803   3.073   3.057   6.313
13306TIP3    H239804   2.963   2.959   6.289
13307TIP3   OH239805   3.703   3.153   6.443
13307TIP3    H139806   3.696   3.055   6.430
13307TIP3    H239807   3.659   3.186   6.362
13308TIP3   OH239808   2.918   1.687   8.229
13308TIP3    H139809   2.883   1.616   8.287
13308TIP3    H239810   3.012   1.686   8.258
13309TIP3   OH239811   3.167   1.683   8.348
13309TIP3    H139812   3.252   1.655   8.312
13309TIP3    H239813   3.152   1.614   8.416
13310TIP3   OH239814   2.289   2.870   6.404
13310TIP3    H139815   2.291   2.895   6.498
13310TIP3    H239816   2.377   2.829   6.392
13311TIP3   OH239817   3.991   1.746   8.137
13311TIP3    H139818   4.010   1.715   8.228
13311TIP3    H239819   4.080   1.741   8.095
13312TIP3   OH239820   3.929   3.297   7.629
13312TIP3    H139821   3.851   3.266   7.580
13312TIP3    H239822   3.910   3.393   7.634
13313TIP3   OH239823   5.195   2.667   6.396
13313TIP3    H139824   5.168   2.759   6.377
13313TIP3    H239825   5.119   2.619   6.359
13314TIP3   OH239826   5.197   2.671   6.775
13314TIP3    H139827   5.225   2.646   6.864
13314TIP3    H239828   5.153   2.591   6.743
13315TIP3   OH239829   5.438   2.972   6.459
13315TIP3    H139830   5.427   2.904   6.527
13315TIP3    H239831   5.470   3.048   6.511
13316TIP3   OH239832   4.471   2.982   6.865
13316TIP3    H139833   4.465   2.887   6.858
13316TIP3    H239834   4.568   2.996   6.856
13317TIP3   OH239835   4.171   2.192   6.665
13317TIP3    H139836   4.109   2.267   6.665
13317TIP3    H239837   4.115   2.123   6.626
13318TIP3   OH239838   4.326   2.435   6.837
13318TIP3    H139839   4.264   2.360   6.829
13318TIP3    H239840   4.312   2.478   6.750
13319TIP3   OH239841   5.087   3.433   6.475
13319TIP3    H139842   5.132   3.362   6.424
13319TIP3    H239843   5.085   3.395   6.564
13320TIP3   OH239844   4.991   2.895   6.828
13320TIP3    H139845   5.032   2.821   6.779
13320TIP3    H239846   5.074   2.941   6.853
13321TIP3   OH239847   5.981   2.224   6.814
13321TIP3    H139848   6.032   2.288   6.867
13321TIP3    H239849   6.029   2.228   6.730
13322TIP3   OH239850   5.394   2.387   6.863
13322TIP3    H139851   5.464   2.319   6.869
13322TIP3    H239852   5.371   2.380   6.768
13323TIP3   OH239853   4.746   2.054   6.825
13323TIP3    H139854   4.726   2.125   6.759
13323TIP3    H239855   4.698   1.979   6.784
13324TIP3   OH239856   5.439   2.150   6.446
13324TIP3    H139857   5.510   2.135   6.512
13324TIP3    H239858   5.492   2.182   6.370
13325TIP3   OH239859   4.802   2.444   6.739
13325TIP3    H139860   4.899   2.433   6.748
13325TIP3    H239861   4.777   2.363   6.691
13326TIP3   OH239862   6.076   2.422   6.991
13326TIP3    H139863   5.993   2.470   6.976
13326TIP3    H239864   6.104   2.455   7.078
13327TIP3   OH239865   5.083   2.887   6.267
13327TIP3    H139866   5.047   2.874   6.178
13327TIP3    H239867   5.042   2.972   6.292
13328TIP3   OH239868   4.850   2.810   7.063
13328TIP3    H139869   4.785   2.877   7.094
13328TIP3    H239870   4.885   2.851   6.983
13329TIP3   OH239871   5.646   2.154   6.622
13329TIP3    H139872   5.667   2.096   6.695
13329TIP3    H239873   5.704   2.230   6.640
13330TIP3   OH239874   4.595   2.223   6.997
13330TIP3    H139875   4.646   2.209   7.081
13330TIP3    H239876   4.621   2.140   6.952
13331TIP3   OH239877   4.673   3.009   7.147
13331TIP3    H139878   4.651   3.097   7.110
13331TIP3    H239879   4.596   2.996   7.205
13332TIP3   OH239880   4.068   2.699   6.387
13332TIP3    H139881   4.029   2.722   6.300
13332TIP3    H239882   4.098   2.786   6.420
13333TIP3   OH239883   5.508   3.214   6.625
13333TIP3    H139884   5.418   3.207   6.663
13333TIP3    H239885   5.501   3.301   6.580
13334TIP3   OH239886   5.804   2.107   6.989
13334TIP3    H139887   5.719   2.146   6.961
13334TIP3    H239888   5.866   2.144   6.921
13335TIP3   OH239889   5.095   1.768   6.980
13335TIP3    H139890   5.095   1.672   6.993
13335TIP3    H239891   5.011   1.793   7.025
13336TIP3   OH239892   5.208   3.260   6.297
13336TIP3    H139893   5.259   3.178   6.277
13336TIP3    H239894   5.270   3.326   6.258
13337TIP3   OH239895   5.351   3.045   6.207
13337TIP3    H139896   5.323   2.964   6.164
13337TIP3    H239897   5.388   3.011   6.292
13338TIP3   OH239898   5.734   3.128   6.970
13338TIP3    H139899   5.725   3.051   6.909
13338TIP3    H239900   5.718   3.203   6.909
13339TIP3   OH239901   5.026   2.521   6.227
13339TIP3    H139902   4.947   2.574   6.205
13339TIP3    H239903   5.074   2.519   6.141
13340TIP3   OH239904   4.986   2.306   5.942
13340TIP3    H139905   5.053   2.358   5.991
13340TIP3    H239906   5.044   2.243   5.895
13341TIP3   OH239907   5.929   2.763   6.814
13341TIP3    H139908   5.847   2.817   6.818
13341TIP3    H239909   5.961   2.786   6.724
13342TIP3   OH239910   5.373   2.603   6.198
13342TIP3    H139911   5.320   2.628   6.277
13342TIP3    H239912   5.458   2.578   6.241
13343TIP3   OH239913   5.608   2.646   7.114
13343TIP3    H139914   5.610   2.727   7.169
13343TIP3    H239915   5.527   2.661   7.062
13344TIP3   OH239916   4.603   2.600   6.617
13344TIP3    H139917   4.566   2.540   6.548
13344TIP3    H239918   4.679   2.549   6.651
13345TIP3   OH239919   4.732   3.004   6.767
13345TIP3    H139920   4.720   2.973   6.676
13345TIP3    H239921   4.823   2.973   6.787
13346TIP3   OH239922   5.266   3.210   6.746
13346TIP3    H139923   5.254   3.291   6.799
13346TIP3    H239924   5.252   3.139   6.811
13347TIP3   OH239925   4.881   3.129   7.293
13347TIP3    H139926   4.820   3.191   7.339
13347TIP3    H239927   4.817   3.075   7.243
13348TIP3   OH239928   5.214   2.462   6.024
13348TIP3    H139929   5.273   2.521   6.075
13348TIP3    H239930   5.240   2.485   5.932
13349TIP3   OH239931   4.636   2.686   7.395
13349TIP3    H139932   4.639   2.775   7.436
13349TIP3    H239933   4.542   2.663   7.409
13350TIP3   OH239934   4.957   3.142   6.302
13350TIP3    H139935   5.040   3.193   6.313
13350TIP3    H239936   4.899   3.206   6.259
13351TIP3   OH239937   4.675   3.296   7.380
13351TIP3    H139938   4.640   3.298   7.289
13351TIP3    H239939   4.595   3.276   7.433
13352TIP3   OH239940   5.730   1.703   6.071
13352TIP3    H139941   5.650   1.725   6.123
13352TIP3    H239942   5.745   1.786   6.022
13353TIP3   OH239943   4.469   2.441   6.424
13353TIP3    H139944   4.406   2.488   6.365
13353TIP3    H239945   4.433   2.352   6.423
13354TIP3   OH239946   5.530   3.069   5.621
13354TIP3    H139947   5.538   3.166   5.606
13354TIP3    H239948   5.623   3.041   5.609
13355TIP3   OH239949   4.253   2.826   7.325
13355TIP3    H139950   4.179   2.802   7.266
13355TIP3    H239951   4.286   2.739   7.357
13356TIP3   OH239952   4.112   3.021   6.964
13356TIP3    H139953   4.207   3.033   6.957
13356TIP3    H239954   4.087   3.101   7.013
13357TIP3   OH239955   5.972   3.471   7.015
13357TIP3    H139956   5.971   3.375   7.030
13357TIP3    H239957   5.890   3.497   7.062
13358TIP3   OH239958   5.079   3.258   7.150
13358TIP3    H139959   5.077   3.351   7.182
13358TIP3    H239960   5.008   3.218   7.205
13359TIP3   OH239961   4.839   3.385   6.104
13359TIP3    H139962   4.795   3.369   6.018
13359TIP3    H239963   4.808   3.475   6.126
13360TIP3   OH239964   4.276   3.236   6.485
13360TIP3    H139965   4.326   3.228   6.570
13360TIP3    H239966   4.218   3.159   6.491
13361TIP3   OH239967   5.040   3.288   5.741
13361TIP3    H139968   5.099   3.218   5.705
13361TIP3    H239969   5.076   3.298   5.832
13362TIP3   OH239970   5.091   3.337   6.011
13362TIP3    H139971   5.003   3.346   6.055
13362TIP3    H239972   5.144   3.300   6.084
13363TIP3   OH239973   5.861   2.602   7.294
13363TIP3    H139974   5.785   2.613   7.236
13363TIP3    H239975   5.880   2.506   7.283
13364TIP3   OH239976   4.458   3.010   7.314
13364TIP3    H139977   4.509   2.996   7.397
13364TIP3    H239978   4.385   2.946   7.324
13365TIP3   OH239979   4.855   1.840   7.103
13365TIP3    H139980   4.768   1.800   7.081
13365TIP3    H239981   4.822   1.930   7.123
13366TIP3   OH239982   5.627   2.378   7.202
13366TIP3    H139983   5.579   2.366   7.286
13366TIP3    H239984   5.608   2.471   7.178
13367TIP3   OH239985   5.290   2.506   5.768
13367TIP3    H139986   5.257   2.482   5.679
13367TIP3    H239987   5.372   2.554   5.745
13368TIP3   OH239988   5.002   1.883   6.071
13368TIP3    H139989   4.969   1.880   6.162
13368TIP3    H239990   4.965   1.800   6.036
13369TIP3   OH239991   4.814   2.373   7.123
13369TIP3    H139992   4.749   2.369   7.196
13369TIP3    H239993   4.830   2.468   7.118
13370TIP3   OH239994   4.676   2.231   6.630
13370TIP3    H139995   4.583   2.201   6.645
13370TIP3    H239996   4.691   2.194   6.541
13371TIP3   OH239997   5.163   2.321   6.359
13371TIP3    H139998   5.112   2.393   6.317
13371TIP3    H239999   5.220   2.291   6.286
13372TIP3   OH240000   5.336   2.602   7.444
13372TIP3    H140001   5.318   2.529   7.508
13372TIP3    H240002   5.429   2.620   7.464
13373TIP3   OH240003   5.317   2.350   6.600
13373TIP3    H140004   5.262   2.383   6.527
13373TIP3    H240005   5.354   2.270   6.556
13374TIP3   OH240006   4.604   2.375   7.301
13374TIP3    H140007   4.610   2.418   7.387
13374TIP3    H240008   4.602   2.280   7.323
13375TIP3   OH240009   4.659   1.856   6.037
13375TIP3    H140010   4.649   1.855   6.134
13375TIP3    H240011   4.581   1.909   6.011
13376TIP3   OH240012   4.208   1.903   6.906
13376TIP3    H140013   4.287   1.935   6.954
13376TIP3    H240014   4.244   1.864   6.825
13377TIP3   OH240015   4.173   1.882   6.428
13377TIP3    H140016   4.218   1.919   6.349
13377TIP3    H240017   4.111   1.954   6.447
13378TIP3   OH240018   5.317   2.591   7.022
13378TIP3    H140019   5.355   2.521   6.964
13378TIP3    H240020   5.307   2.540   7.104
13379TIP3   OH240021   5.003   2.052   6.692
13379TIP3    H140022   4.918   2.051   6.741
13379TIP3    H240023   5.067   2.063   6.764
13380TIP3   OH240024   4.441   2.122   6.698
13380TIP3    H140025   4.343   2.129   6.687
13380TIP3    H240026   4.457   2.027   6.682
13381TIP3   OH240027   4.705   2.111   6.388
13381TIP3    H140028   4.799   2.125   6.365
13381TIP3    H240029   4.657   2.133   6.305
13382TIP3   OH240030   5.501   2.131   6.899
13382TIP3    H140031   5.436   2.148   6.968
13382TIP3    H240032   5.454   2.065   6.846
13383TIP3   OH240033   4.547   2.145   6.169
13383TIP3    H140034   4.477   2.099   6.119
13383TIP3    H240035   4.600   2.181   6.094
13384TIP3   OH240036   5.664   3.823   7.115
13384TIP3    H140037   5.662   3.848   7.021
13384TIP3    H240038   5.743   3.870   7.146
13385TIP3   OH240039   4.620   2.934   7.535
13385TIP3    H140040   4.701   2.963   7.582
13385TIP3    H240041   4.556   2.932   7.609
13386TIP3   OH240042   5.084   2.383   6.782
13386TIP3    H140043   5.157   2.356   6.725
13386TIP3    H240044   5.113   2.351   6.869
13387TIP3   OH240045   4.608   1.873   6.673
13387TIP3    H140046   4.572   1.795   6.719
13387TIP3    H240047   4.652   1.832   6.597
13388TIP3   OH240048   5.074   2.276   7.102
13388TIP3    H140049   4.985   2.318   7.090
13388TIP3    H240050   5.127   2.350   7.138
13389TIP3   OH240051   4.797   2.674   6.176
13389TIP3    H140052   4.724   2.609   6.164
13389TIP3    H240053   4.778   2.707   6.267
13390TIP3   OH240054   5.698   2.911   6.804
13390TIP3    H140055   5.724   2.960   6.723
13390TIP3    H240056   5.613   2.870   6.777
13391TIP3   OH240057   5.256   1.985   6.041
13391TIP3    H140058   5.159   1.969   6.047
13391TIP3    H240059   5.266   2.079   6.063
13392TIP3   OH240060   5.192   2.987   7.176
13392TIP3    H140061   5.227   2.977   7.265
13392TIP3    H240062   5.158   3.079   7.177
13393TIP3   OH240063   5.325   2.234   6.142
13393TIP3    H140064   5.421   2.240   6.158
13393TIP3    H240065   5.307   2.314   6.089
13394TIP3   OH240066   4.943   2.823   5.997
13394TIP3    H140067   4.895   2.909   6.002
13394TIP3    H240068   4.889   2.769   6.058
13395TIP3   OH240069   4.369   2.616   7.465
13395TIP3    H140070   4.393   2.606   7.559
13395TIP3    H240071   4.301   2.548   7.454
13396TIP3   OH240072   5.096   2.732   7.486
13396TIP3    H140073   5.037   2.670   7.441
13396TIP3    H240074   5.184   2.700   7.458
13397TIP3   OH240075   5.356   3.246   7.073
13397TIP3    H140076   5.259   3.251   7.083
13397TIP3    H240077   5.385   3.301   7.148
13398TIP3   OH240078   5.765   2.325   5.978
13398TIP3    H140079   5.703   2.280   5.915
13398TIP3    H240080   5.762   2.414   5.937
13399TIP3   OH240081   5.985   3.182   7.058
13399TIP3    H140082   5.887   3.176   7.049
13399TIP3    H240083   6.011   3.152   6.968
13400TIP3   OH240084   5.465   3.143   5.884
13400TIP3    H140085   5.444   3.071   5.945
13400TIP3    H240086   5.481   3.097   5.800
13401TIP3   OH240087   5.462   2.773   6.725
13401TIP3    H140088   5.368   2.749   6.734
13401TIP3    H240089   5.497   2.694   6.678
13402TIP3   OH240090   4.592   3.001   6.479
13402TIP3    H140091   4.597   3.082   6.425
13402TIP3    H240092   4.497   2.986   6.479
13403TIP3   OH240093   4.156   2.304   6.182
13403TIP3    H140094   4.200   2.389   6.200
13403TIP3    H240095   4.078   2.310   6.241
13404TIP3   OH240096   4.725   2.763   6.421
13404TIP3    H140097   4.693   2.854   6.439
13404TIP3    H240098   4.688   2.715   6.497
13405TIP3   OH240099   4.860   3.343   6.944
13405TIP3    H140100   4.901   3.416   6.894
13405TIP3    H240101   4.937   3.309   6.993
13406TIP3   OH240102   4.512   3.239   6.330
13406TIP3    H140103   4.425   3.249   6.374
13406TIP3    H240104   4.544   3.331   6.332
13407TIP3   OH240105   5.246   2.977   6.906
13407TIP3    H140106   5.238   2.974   7.003
13407TIP3    H240107   5.330   2.931   6.892
13408TIP3   OH240108   5.224   2.869   5.788
13408TIP3    H140109   5.277   2.845   5.867
13408TIP3    H240110   5.135   2.845   5.818
13409TIP3   OH240111   5.495   3.511   6.954
13409TIP3    H140112   5.415   3.457   6.944
13409TIP3    H240113   5.483   3.577   6.882
13410TIP3   OH240114   5.561   3.344   5.607
13410TIP3    H140115   5.599   3.416   5.553
13410TIP3    H240116   5.482   3.391   5.640
13411TIP3   OH240117   5.384   2.805   6.006
13411TIP3    H140118   5.375   2.738   6.076
13411TIP3    H240119   5.481   2.802   5.991
13412TIP3   OH240120   4.301   3.205   7.105
13412TIP3    H140121   4.356   3.136   7.145
13412TIP3    H240122   4.325   3.282   7.158
13413TIP3   OH240123   4.589   2.851   5.787
13413TIP3    H140124   4.603   2.759   5.758
13413TIP3    H240125   4.569   2.839   5.882
13414TIP3   OH240126   4.534   2.856   6.060
13414TIP3    H140127   4.609   2.831   6.115
13414TIP3    H240128   4.537   2.954   6.065
13415TIP3   OH240129   4.269   2.550   6.263
13415TIP3    H140130   4.203   2.596   6.318
13415TIP3    H240131   4.284   2.617   6.194
13416TIP3   OH240132   5.297   1.938   6.321
13416TIP3    H140133   5.285   1.959   6.227
13416TIP3    H240134   5.338   2.020   6.356
13417TIP3   OH240135   4.799   3.052   6.008
13417TIP3    H140136   4.713   3.081   6.043
13417TIP3    H240137   4.818   3.125   5.947
13418TIP3   OH240138   4.988   2.116   6.420
13418TIP3    H140139   5.052   2.188   6.401
13418TIP3    H240140   4.995   2.111   6.518
13419TIP3   OH240141   5.277   2.420   7.243
13419TIP3    H140142   5.262   2.495   7.304
13419TIP3    H240143   5.354   2.380   7.288
13420TIP3   OH240144   5.131   1.843   6.524
13420TIP3    H140145   5.114   1.924   6.577
13420TIP3    H240146   5.194   1.878   6.457
13421TIP3   OH240147   4.543   3.128   6.076
13421TIP3    H140148   4.514   3.198   6.012
13421TIP3    H240149   4.528   3.173   6.162
13422TIP3   OH240150   4.643   1.843   6.314
13422TIP3    H140151   4.641   1.934   6.350
13422TIP3    H240152   4.739   1.825   6.321
13423TIP3   OH240153   5.897   2.339   7.213
13423TIP3    H140154   5.799   2.333   7.208
13423TIP3    H240155   5.921   2.302   7.126
13424TIP3   OH240156   5.545   2.533   6.599
13424TIP3    H140157   5.474   2.467   6.607
13424TIP3    H240158   5.621   2.490   6.644
13425TIP3   OH240159   4.261   2.757   6.068
13425TIP3    H140160   4.328   2.828   6.076
13425TIP3    H240161   4.306   2.702   6.000
13426TIP3   OH240162   4.204   2.033   6.203
13426TIP3    H140163   4.205   2.131   6.198
13426TIP3    H240164   4.124   2.012   6.153
13427TIP3   OH240165   5.517   3.485   6.547
13427TIP3    H140166   5.474   3.533   6.472
13427TIP3    H240167   5.611   3.504   6.526
13428TIP3   OH240168   4.595   1.751   7.071
13428TIP3    H140169   4.562   1.719   6.985
13428TIP3    H240170   4.584   1.673   7.129
13429TIP3   OH240171   4.130   2.968   6.456
13429TIP3    H140172   4.059   3.003   6.512
13429TIP3    H240173   4.107   3.011   6.370
13430TIP3   OH240174   4.289   3.517   7.530
13430TIP3    H140175   4.376   3.517   7.575
13430TIP3    H240176   4.270   3.422   7.526
13431TIP3   OH240177   4.768   3.478   7.572
13431TIP3    H140178   4.863   3.463   7.580
13431TIP3    H240179   4.746   3.419   7.498
13432TIP3   OH240180   4.752   3.055   5.698
13432TIP3    H140181   4.697   2.983   5.737
13432TIP3    H240182   4.827   3.004   5.664
13433TIP3   OH240183   5.408   3.386   7.305
13433TIP3    H140184   5.402   3.316   7.374
13433TIP3    H240185   5.487   3.436   7.334
13434TIP3   OH240186   5.187   3.094   5.610
13434TIP3    H140187   5.235   3.033   5.669
13434TIP3    H240188   5.243   3.095   5.530
13435TIP3   OH240189   4.420   2.922   7.727
13435TIP3    H140190   4.437   2.826   7.734
13435TIP3    H240191   4.332   2.923   7.683
13436TIP3   OH240192   4.396   2.571   5.921
13436TIP3    H140193   4.454   2.540   5.993
13436TIP3    H240194   4.462   2.576   5.848
13437TIP3   OH240195   5.026   3.007   7.501
13437TIP3    H140196   4.987   3.026   7.413
13437TIP3    H240197   5.059   2.915   7.491
13438TIP3   OH240198   4.907   2.770   5.728
13438TIP3    H140199   4.910   2.783   5.825
13438TIP3    H240200   4.907   2.672   5.723
13439TIP3   OH240201   5.518   3.016   7.105
13439TIP3    H140202   5.595   3.057   7.061
13439TIP3    H240203   5.451   3.086   7.092
13440TIP3   OH240204   4.537   2.655   7.708
13440TIP3    H140205   4.610   2.596   7.687
13440TIP3    H240206   4.564   2.689   7.796
13441TIP3   OH240207   4.604   2.475   6.141
13441TIP3    H140208   4.579   2.431   6.224
13441TIP3    H240209   4.642   2.401   6.089
13442TIP3   OH240210   4.877   2.542   7.368
13442TIP3    H140211   4.794   2.595   7.370
13442TIP3    H240212   4.925   2.581   7.291
13443TIP3   OH240213   4.706   2.269   5.983
13443TIP3    H140214   4.680   2.274   5.889
13443TIP3    H240215   4.804   2.274   5.975
13444TIP3   OH240216   5.389   2.939   7.503
13444TIP3    H140217   5.473   2.921   7.459
13444TIP3    H240218   5.390   2.876   7.577
13445TIP3   OH240219   5.526   2.599   5.647
13445TIP3    H140220   5.505   2.555   5.563
13445TIP3    H240221   5.495   2.690   5.625
13446TIP3   OH240222   5.002   2.336   7.496
13446TIP3    H140223   4.966   2.253   7.465
13446TIP3    H240224   4.954   2.402   7.441
13447TIP3   OH240225   5.025   2.077   7.277
13447TIP3    H140226   5.006   2.151   7.214
13447TIP3    H240227   4.936   2.053   7.307
13448TIP3   OH240228   5.031   2.636   7.163
13448TIP3    H140229   5.113   2.666   7.122
13448TIP3    H240230   4.968   2.704   7.128
13449TIP3   OH240231   5.608   2.615   7.556
13449TIP3    H140232   5.661   2.534   7.572
13449TIP3    H240233   5.676   2.674   7.520
13450TIP3   OH240234   5.649   2.869   7.291
13450TIP3    H140235   5.592   2.925   7.232
13450TIP3    H240236   5.737   2.890   7.253
13451TIP3   OH240237   4.873   2.439   7.729
13451TIP3    H140238   4.806   2.369   7.741
13451TIP3    H240239   4.909   2.417   7.641
13452TIP3   OH240240   5.261   2.383   7.590
13452TIP3    H140241   5.254   2.372   7.686
13452TIP3    H240242   5.169   2.364   7.563
13453TIP3   OH240243   5.484   2.323   7.432
13453TIP3    H140244   5.420   2.335   7.505
13453TIP3    H240245   5.564   2.298   7.484
13454TIP3   OH240246   5.709   2.271   7.589
13454TIP3    H140247   5.732   2.177   7.606
13454TIP3    H240248   5.715   2.311   7.678
13455TIP3   OH240249   4.716   2.213   7.771
13455TIP3    H140250   4.710   2.121   7.738
13455TIP3    H240251   4.750   2.198   7.861
13456TIP3   OH240252   5.229   1.898   7.594
13456TIP3    H140253   5.306   1.838   7.608
13456TIP3    H240254   5.163   1.834   7.566
13457TIP3   OH240255   5.289   2.100   7.787
13457TIP3    H140256   5.270   2.038   7.714
13457TIP3    H240257   5.213   2.161   7.783
13458TIP3   OH240258   4.513   3.329   5.888
13458TIP3    H140259   4.609   3.326   5.869
13458TIP3    H240260   4.484   3.380   5.810
13459TIP3   OH240261   3.994   2.710   6.109
13459TIP3    H140262   4.087   2.734   6.091
13459TIP3    H240263   3.987   2.624   6.063
13460TIP3   OH240264   3.907   3.325   6.518
13460TIP3    H140265   3.840   3.264   6.480
13460TIP3    H240266   3.952   3.267   6.583
13461TIP3   OH240267   4.044   3.175   6.703
13461TIP3    H140268   4.030   3.105   6.768
13461TIP3    H240269   4.096   3.238   6.756
13462TIP3   OH240270   5.771   3.575   6.504
13462TIP3    H140271   5.798   3.607   6.592
13462TIP3    H240272   5.830   3.624   6.445
13463TIP3   OH240273   5.802   3.596   6.786
13463TIP3    H140274   5.759   3.509   6.781
13463TIP3    H240275   5.874   3.576   6.848
13464TIP3   OH240276   5.845   3.274   7.360
13464TIP3    H140277   5.773   3.283   7.425
13464TIP3    H240278   5.888   3.362   7.363
13465TIP3   OH240279   5.662   2.787   5.979
13465TIP3    H140280   5.729   2.851   5.949
13465TIP3    H240281   5.706   2.748   6.058
13466TIP3   OH240282   5.789   2.654   6.182
13466TIP3    H140283   5.726   2.614   6.244
13466TIP3    H240284   5.858   2.690   6.242
13467TIP3   OH240285   5.842   3.044   6.613
13467TIP3    H140286   5.898   2.979   6.566
13467TIP3    H240287   5.840   3.119   6.549
13468TIP3   OH240288   5.675   3.347   6.810
13468TIP3    H140289   5.604   3.389   6.861
13468TIP3    H240290   5.626   3.299   6.740
13469TIP3   OH240291   5.727   2.561   5.830
13469TIP3    H140292   5.656   2.565   5.762
13469TIP3    H240293   5.701   2.638   5.885
13470TIP3   OH240294   5.598   2.235   5.784
13470TIP3    H140295   5.555   2.274   5.707
13470TIP3    H240296   5.574   2.140   5.773
13471TIP3   OH240297   5.601   2.512   6.329
13471TIP3    H140298   5.615   2.416   6.325
13471TIP3    H240299   5.590   2.527   6.426
13472TIP3   OH240300   4.237   2.589   7.071
13472TIP3    H140301   4.259   2.535   6.993
13472TIP3    H240302   4.315   2.645   7.083
13473TIP3   OH240303   5.893   2.936   7.186
13473TIP3    H140304   5.965   2.869   7.178
13473TIP3    H240305   5.922   3.005   7.124
13474TIP3   OH240306   6.076   2.740   7.205
13474TIP3    H140307   6.003   2.688   7.244
13474TIP3    H240308   6.150   2.677   7.218
13475TIP3   OH240309   5.543   1.968   5.766
13475TIP3    H140310   5.620   1.940   5.821
13475TIP3    H240311   5.472   1.909   5.794
13476TIP3   OH240312   5.599   2.226   6.224
13476TIP3    H140313   5.641   2.138   6.238
13476TIP3    H240314   5.658   2.261   6.154
13477TIP3   OH240315   5.756   2.409   6.717
13477TIP3    H140316   5.844   2.428   6.676
13477TIP3    H240317   5.778   2.437   6.808
13478TIP3   OH240318   5.828   2.547   6.953
13478TIP3    H140319   5.751   2.584   6.999
13478TIP3    H240320   5.863   2.625   6.905
13479TIP3   OH240321   4.450   2.276   7.755
13479TIP3    H140322   4.547   2.262   7.753
13479TIP3    H240323   4.421   2.191   7.792
13480TIP3   OH240324   6.281   2.136   7.507
13480TIP3    H140325   6.341   2.070   7.464
13480TIP3    H240326   6.253   2.190   7.430
13481TIP3   OH240327   5.708   1.978   6.262
13481TIP3    H140328   5.761   1.961   6.344
13481TIP3    H240329   5.650   1.899   6.262
13482TIP3   OH240330   4.417   1.979   7.085
13482TIP3    H140331   4.470   1.897   7.087
13482TIP3    H240332   4.477   2.034   7.140
13483TIP3   OH240333   4.214   2.254   7.120
13483TIP3    H140334   4.272   2.178   7.105
13483TIP3    H240335   4.254   2.297   7.197
13484TIP3   OH240336   6.153   2.277   7.312
13484TIP3    H140337   6.062   2.312   7.323
13484TIP3    H240338   6.134   2.205   7.248
13485TIP3   OH240339   5.787   1.912   5.892
13485TIP3    H140340   5.832   1.840   5.844
13485TIP3    H240341   5.856   1.982   5.892
13486TIP3   OH240342   4.195   1.741   6.657
13486TIP3    H140343   4.101   1.735   6.682
13486TIP3    H240344   4.192   1.798   6.577
13487TIP3   OH240345   5.354   3.443   6.162
13487TIP3    H140346   5.405   3.430   6.079
13487TIP3    H240347   5.406   3.511   6.207
13488TIP3   OH240348   4.454   3.249   7.545
13488TIP3    H140349   4.361   3.222   7.531
13488TIP3    H240350   4.467   3.229   7.639
13489TIP3   OH240351   4.634   3.280   7.093
13489TIP3    H140352   4.587   3.357   7.054
13489TIP3    H240353   4.720   3.293   7.049
13490TIP3   OH240354   5.077   3.525   7.231
13490TIP3    H140355   5.119   3.525   7.320
13490TIP3    H240356   5.143   3.575   7.179
13491TIP3   OH240357   5.257   3.676   7.092
13491TIP3    H140358   5.329   3.627   7.049
13491TIP3    H240359   5.308   3.734   7.152
13492TIP3   OH240360   6.045   2.035   7.201
13492TIP3    H140361   5.962   2.031   7.151
13492TIP3    H240362   6.079   1.942   7.190
13493TIP3   OH240363   4.307   3.533   7.120
13493TIP3    H140364   4.219   3.568   7.095
13493TIP3    H240365   4.321   3.578   7.204
13494TIP3   OH240366   4.545   3.514   6.976
13494TIP3    H140367   4.458   3.527   7.019
13494TIP3    H240368   4.527   3.548   6.886
13495TIP3   OH240369   4.971   3.543   6.775
13495TIP3    H140370   4.904   3.564   6.707
13495TIP3    H240371   4.985   3.631   6.817
13496TIP3   OH240372   5.241   3.482   6.825
13496TIP3    H140373   5.147   3.501   6.806
13496TIP3    H240374   5.285   3.557   6.783
13497TIP3   OH240375   5.447   3.674   6.739
13497TIP3    H140376   5.433   3.759   6.693
13497TIP3    H240377   5.473   3.615   6.666
13498TIP3   OH240378   4.220   3.330   6.862
13498TIP3    H140379   4.248   3.305   6.953
13498TIP3    H240380   4.293   3.289   6.811
13499TIP3   OH240381   4.415   3.207   6.718
13499TIP3    H140382   4.433   3.124   6.769
13499TIP3    H240383   4.505   3.245   6.713
13500TIP3   OH240384   4.679   3.298   6.725
13500TIP3    H140385   4.715   3.209   6.708
13500TIP3    H240386   4.727   3.320   6.807
13501TIP3   OH240387   5.265   1.955   6.834
13501TIP3    H140388   5.217   1.880   6.872
13501TIP3    H240389   5.329   1.911   6.775
13502TIP3   OH240390   5.779   1.829   6.715
13502TIP3    H140391   5.824   1.880   6.645
13502TIP3    H240392   5.686   1.857   6.705
13503TIP3   OH240393   5.873   1.934   6.479
13503TIP3    H140394   5.948   1.880   6.446
13503TIP3    H240395   5.910   2.024   6.466
13504TIP3   OH240396   4.504   1.661   6.823
13504TIP3    H140397   4.412   1.627   6.827
13504TIP3    H240398   4.554   1.577   6.821
13505TIP3   OH240399   4.294   1.532   6.474
13505TIP3    H140400   4.322   1.589   6.401
13505TIP3    H240401   4.265   1.596   6.541
13506TIP3   OH240402   4.950   1.692   6.705
13506TIP3    H140403   5.009   1.741   6.646
13506TIP3    H240404   4.965   1.736   6.789
13507TIP3   OH240405   5.485   1.842   6.693
13507TIP3    H140406   5.498   1.805   6.605
13507TIP3    H240407   5.480   1.761   6.749
13508TIP3   OH240408   5.526   1.763   6.252
13508TIP3    H140409   5.439   1.806   6.265
13508TIP3    H240410   5.512   1.678   6.298
13509TIP3   OH240411   4.009   3.104   6.256
13509TIP3    H140412   3.924   3.071   6.221
13509TIP3    H240413   4.000   3.198   6.232
13510TIP3   OH240414   4.410   1.690   6.238
13510TIP3    H140415   4.458   1.628   6.180
13510TIP3    H240416   4.483   1.745   6.273
13511TIP3   OH240417   4.920   1.866   6.336
13511TIP3    H140418   4.981   1.819   6.395
13511TIP3    H240419   4.943   1.958   6.360
13512TIP3   OH240420   4.782   3.290   5.837
13512TIP3    H140421   4.870   3.313   5.801
13512TIP3    H240422   4.759   3.216   5.777
13513TIP3   OH240423   5.499   3.410   5.929
13513TIP3    H140424   5.490   3.312   5.916
13513TIP3    H240425   5.455   3.443   5.848
13514TIP3   OH240426   4.717   1.932   7.736
13514TIP3    H140427   4.684   1.858   7.791
13514TIP3    H240428   4.810   1.937   7.764
13515TIP3   OH240429   4.969   1.939   7.843
13515TIP3    H140430   5.058   1.911   7.816
13515TIP3    H240431   4.948   1.870   7.910
13516TIP3   OH240432   4.084   3.125   5.891
13516TIP3    H140433   4.089   3.155   5.983
13516TIP3    H240434   4.173   3.084   5.878
13517TIP3   OH240435   5.788   2.006   7.624
13517TIP3    H140436   5.808   1.972   7.714
13517TIP3    H240437   5.876   2.000   7.581
13518TIP3   OH240438   5.725   3.553   7.116
13518TIP3    H140439   5.646   3.523   7.067
13518TIP3    H240440   5.708   3.650   7.120
13519TIP3   OH240441   6.994   2.925   5.880
13519TIP3    H140442   6.966   3.017   5.863
13519TIP3    H240443   6.914   2.877   5.853
13520TIP3   OH240444   7.000   2.921   6.259
13520TIP3    H140445   7.026   2.900   6.350
13520TIP3    H240446   6.951   2.841   6.233
13521TIP3   OH240447   6.289   2.823   6.635
13521TIP3    H140448   6.322   2.754   6.695
13521TIP3    H240449   6.370   2.873   6.617
13522TIP3   OH240450   7.236   3.229   5.946
13522TIP3    H140451   7.220   3.162   6.014
13522TIP3    H240452   7.264   3.305   5.999
13523TIP3   OH240453   6.249   3.224   6.362
13523TIP3    H140454   6.242   3.127   6.363
13523TIP3    H240455   6.344   3.231   6.337
13524TIP3   OH240456   5.969   2.431   6.136
13524TIP3    H140457   5.925   2.516   6.153
13524TIP3    H240458   5.896   2.381   6.097
13525TIP3   OH240459   6.026   2.719   6.309
13525TIP3    H140460   6.076   2.643   6.346
13525TIP3    H240461   6.094   2.762   6.254
13526TIP3   OH240462   6.880   3.693   5.955
13526TIP3    H140463   6.928   3.617   5.918
13526TIP3    H240464   6.867   3.668   6.047
13527TIP3   OH240465   6.800   3.132   6.321
13527TIP3    H140466   6.848   3.067   6.268
13527TIP3    H240467   6.874   3.193   6.341
13528TIP3   OH240468   7.805   2.471   6.310
13528TIP3    H140469   7.833   2.555   6.353
13528TIP3    H240470   7.826   2.490   6.217
13529TIP3   OH240471   7.203   2.652   6.345
13529TIP3    H140472   7.246   2.567   6.364
13529TIP3    H240473   7.171   2.638   6.253
13530TIP3   OH240474   6.541   2.313   6.308
13530TIP3    H140475   6.521   2.385   6.246
13530TIP3    H240476   6.491   2.239   6.266
13531TIP3   OH240477   7.235   2.403   5.930
13531TIP3    H140478   7.307   2.388   5.996
13531TIP3    H240479   7.288   2.439   5.856
13532TIP3   OH240480   6.175   2.515   6.416
13532TIP3    H140481   6.257   2.495   6.465
13532TIP3    H240482   6.190   2.460   6.336
13533TIP3   OH240483   6.614   2.712   6.211
13533TIP3    H140484   6.708   2.688   6.223
13533TIP3    H240485   6.576   2.628   6.178
13534TIP3   OH240486   7.877   2.679   6.481
13534TIP3    H140487   7.794   2.727   6.461
13534TIP3    H240488   7.896   2.712   6.570
13535TIP3   OH240489   6.539   2.296   6.744
13535TIP3    H140490   6.478   2.332   6.676
13535TIP3    H240491   6.487   2.312   6.825
13536TIP3   OH240492   6.884   3.147   5.751
13536TIP3    H140493   6.841   3.130   5.666
13536TIP3    H240494   6.841   3.231   5.777
13537TIP3   OH240495   6.643   3.070   6.539
13537TIP3    H140496   6.584   3.141   6.572
13537TIP3    H240497   6.684   3.112   6.460
13538TIP3   OH240498   7.444   2.407   6.105
13538TIP3    H140499   7.431   2.362   6.189
13538TIP3    H240500   7.497   2.485   6.131
13539TIP3   OH240501   6.408   2.410   6.528
13539TIP3    H140502   6.470   2.483   6.551
13539TIP3    H240503   6.458   2.369   6.454
13540TIP3   OH240504   6.471   3.263   6.640
13540TIP3    H140505   6.446   3.338   6.584
13540TIP3    H240506   6.390   3.254   6.694
13541TIP3   OH240507   5.864   2.956   5.873
13541TIP3    H140508   5.826   2.985   5.788
13541TIP3    H240509   5.897   3.041   5.909
13542TIP3   OH240510   7.308   3.471   6.110
13542TIP3    H140511   7.220   3.462   6.153
13542TIP3    H240512   7.298   3.558   6.066
13543TIP3   OH240513   7.597   2.370   6.475
13543TIP3    H140514   7.510   2.400   6.445
13543TIP3    H240515   7.657   2.403   6.404
13544TIP3   OH240516   6.894   2.013   6.458
13544TIP3    H140517   6.879   1.919   6.479
13544TIP3    H240518   6.817   2.053   6.504
13545TIP3   OH240519   7.008   3.516   5.786
13545TIP3    H140520   7.059   3.434   5.764
13545TIP3    H240521   7.067   3.583   5.745
13546TIP3   OH240522   7.152   3.302   5.694
13546TIP3    H140523   7.112   3.222   5.657
13546TIP3    H240524   7.188   3.268   5.779
13547TIP3   OH240525   7.532   3.383   6.457
13547TIP3    H140526   7.520   3.307   6.396
13547TIP3    H240527   7.513   3.459   6.397
13548TIP3   OH240528   6.821   2.774   5.712
13548TIP3    H140529   6.742   2.829   5.692
13548TIP3    H240530   6.870   2.778   5.628
13549TIP3   OH240531   6.781   2.564   5.426
13549TIP3    H140532   6.847   2.613   5.479
13549TIP3    H240533   6.840   2.502   5.378
13550TIP3   OH240534   7.727   3.020   6.301
13550TIP3    H140535   7.643   3.073   6.305
13550TIP3    H240536   7.757   3.045   6.211
13551TIP3   OH240537   7.171   2.859   5.684
13551TIP3    H140538   7.116   2.884   5.762
13551TIP3    H240539   7.255   2.835   5.728
13552TIP3   OH240540   7.405   2.899   6.598
13552TIP3    H140541   7.403   2.984   6.646
13552TIP3    H240542   7.319   2.903   6.552
13553TIP3   OH240543   6.402   2.857   6.102
13553TIP3    H140544   6.365   2.798   6.033
13553TIP3    H240545   6.480   2.806   6.133
13554TIP3   OH240546   6.501   3.236   6.265
13554TIP3    H140547   6.534   3.210   6.178
13554TIP3    H240548   6.567   3.302   6.291
13555TIP3   OH240549   6.533   2.833   6.455
13555TIP3    H140550   6.569   2.811   6.367
13555TIP3    H240551   6.579   2.918   6.476
13556TIP3   OH240552   7.071   3.466   6.235
13556TIP3    H140553   7.042   3.543   6.286
13556TIP3    H240554   7.049   3.391   6.294
13557TIP3   OH240555   6.673   3.381   6.786
13557TIP3    H140556   6.614   3.447   6.827
13557TIP3    H240557   6.609   3.328   6.734
13558TIP3   OH240558   7.011   2.719   5.510
13558TIP3    H140559   7.070   2.778   5.562
13558TIP3    H240560   7.037   2.743   5.418
13559TIP3   OH240561   6.434   2.940   6.886
13559TIP3    H140562   6.437   3.029   6.926
13559TIP3    H240563   6.338   2.922   6.890
13560TIP3   OH240564   6.756   3.396   5.781
13560TIP3    H140565   6.836   3.448   5.802
13560TIP3    H240566   6.695   3.463   5.750
13561TIP3   OH240567   6.466   3.570   6.863
13561TIP3    H140568   6.437   3.550   6.772
13561TIP3    H240569   6.390   3.539   6.917
13562TIP3   OH240570   7.527   1.959   5.559
13562TIP3    H140571   7.446   1.980   5.610
13562TIP3    H240572   7.540   2.042   5.509
13563TIP3   OH240573   6.273   2.699   5.899
13563TIP3    H140574   6.203   2.744   5.847
13563TIP3    H240575   6.230   2.616   5.921
13564TIP3   OH240576   7.327   3.326   5.108
13564TIP3    H140577   7.336   3.422   5.092
13564TIP3    H240578   7.420   3.296   5.097
13565TIP3   OH240579   6.049   3.085   6.814
13565TIP3    H140580   5.987   3.060   6.743
13565TIP3    H240581   6.088   2.999   6.840
13566TIP3   OH240582   5.905   3.275   6.448
13566TIP3    H140583   6.001   3.266   6.435
13566TIP3    H240584   5.899   3.355   6.501
13567TIP3   OH240585   7.770   3.730   6.506
13567TIP3    H140586   7.768   3.633   6.519
13567TIP3    H240587   7.686   3.755   6.549
13568TIP3   OH240588   6.898   3.508   6.656
13568TIP3    H140589   6.879   3.603   6.663
13568TIP3    H240590   6.810   3.470   6.675
13569TIP3   OH240591   6.634   3.643   5.588
13569TIP3    H140592   6.590   3.626   5.503
13569TIP3    H240593   6.602   3.732   5.612
13570TIP3   OH240594   6.076   3.493   5.979
13570TIP3    H140595   6.126   3.481   6.062
13570TIP3    H240596   6.021   3.412   5.979
13571TIP3   OH240597   6.837   3.545   5.229
13571TIP3    H140598   6.896   3.475   5.192
13571TIP3    H240599   6.872   3.555   5.320
13572TIP3   OH240600   6.887   3.595   5.499
13572TIP3    H140601   6.799   3.603   5.542
13572TIP3    H240602   6.939   3.555   5.570
13573TIP3   OH240603   7.658   2.859   6.778
13573TIP3    H140604   7.577   2.873   6.727
13573TIP3    H240605   7.673   2.763   6.767
13574TIP3   OH240606   6.252   3.271   6.803
13574TIP3    H140607   6.304   3.253   6.884
13574TIP3    H240608   6.180   3.206   6.810
13575TIP3   OH240609   6.657   2.092   6.585
13575TIP3    H140610   6.568   2.058   6.560
13575TIP3    H240611   6.629   2.172   6.634
13576TIP3   OH240612   7.188   2.206   6.781
13576TIP3    H140613   7.256   2.178   6.846
13576TIP3    H240614   7.104   2.186   6.827
13577TIP3   OH240615   7.427   2.635   6.699
13577TIP3    H140616   7.377   2.633   6.784
13577TIP3    H240617   7.403   2.723   6.663
13578TIP3   OH240618   7.083   2.762   5.251
13578TIP3    H140619   7.055   2.738   5.162
13578TIP3    H240620   7.165   2.811   5.232
13579TIP3   OH240621   6.793   2.143   5.555
13579TIP3    H140622   6.766   2.140   5.648
13579TIP3    H240623   6.760   2.056   5.525
13580TIP3   OH240624   6.585   2.608   6.603
13580TIP3    H140625   6.537   2.629   6.685
13580TIP3    H240626   6.569   2.690   6.550
13581TIP3   OH240627   6.470   2.492   6.118
13581TIP3    H140628   6.377   2.466   6.137
13581TIP3    H240629   6.482   2.450   6.030
13582TIP3   OH240630   6.960   2.577   5.846
13582TIP3    H140631   6.908   2.649   5.804
13582TIP3    H240632   7.016   2.547   5.772
13583TIP3   OH240633   7.136   2.856   6.933
13583TIP3    H140634   7.113   2.783   6.995
13583TIP3    H240635   7.230   2.870   6.954
13584TIP3   OH240636   7.117   2.606   6.087
13584TIP3    H140637   7.058   2.638   6.016
13584TIP3    H240638   7.150   2.525   6.042
13585TIP3   OH240639   6.405   2.635   6.815
13585TIP3    H140640   6.439   2.697   6.881
13585TIP3    H240641   6.394   2.553   6.867
13586TIP3   OH240642   6.446   2.108   5.522
13586TIP3    H140643   6.450   2.104   5.619
13586TIP3    H240644   6.372   2.171   5.511
13587TIP3   OH240645   5.998   2.156   6.394
13587TIP3    H140646   6.070   2.188   6.452
13587TIP3    H240647   6.046   2.123   6.317
13588TIP3   OH240648   5.967   2.138   5.911
13588TIP3    H140649   6.016   2.176   5.835
13588TIP3    H240650   5.909   2.213   5.933
13589TIP3   OH240651   7.129   2.852   6.509
13589TIP3    H140652   7.161   2.781   6.449
13589TIP3    H240653   7.098   2.799   6.585
13590TIP3   OH240654   6.798   2.314   6.180
13590TIP3    H140655   6.716   2.313   6.234
13590TIP3    H240656   6.867   2.313   6.248
13591TIP3   OH240657   6.232   2.371   6.188
13591TIP3    H140658   6.138   2.376   6.161
13591TIP3    H240659   6.257   2.279   6.166
13592TIP3   OH240660   6.500   2.364   5.878
13592TIP3    H140661   6.595   2.381   5.859
13592TIP3    H240662   6.455   2.388   5.794
13593TIP3   OH240663   7.290   2.390   6.382
13593TIP3    H140664   7.257   2.403   6.473
13593TIP3    H240665   7.223   2.330   6.346
13594TIP3   OH240666   6.341   2.395   5.655
13594TIP3    H140667   6.265   2.361   5.605
13594TIP3    H240668   6.395   2.435   5.583
13595TIP3   OH240669   7.465   4.084   6.603
13595TIP3    H140670   7.466   4.106   6.508
13595TIP3    H240671   7.500   4.167   6.643
13596TIP3   OH240672   6.415   3.190   7.021
13596TIP3    H140673   6.496   3.220   7.067
13596TIP3    H240674   6.352   3.190   7.096
13597TIP3   OH240675   6.880   2.643   6.277
13597TIP3    H140676   6.954   2.605   6.228
13597TIP3    H240677   6.888   2.601   6.364
13598TIP3   OH240678   6.399   2.131   6.157
13598TIP3    H140679   6.364   2.053   6.207
13598TIP3    H240680   6.458   2.089   6.093
13599TIP3   OH240681   6.857   2.540   6.567
13599TIP3    H140682   6.767   2.577   6.581
13599TIP3    H240683   6.914   2.602   6.618
13600TIP3   OH240684   6.594   2.929   5.661
13600TIP3    H140685   6.520   2.866   5.650
13600TIP3    H240686   6.576   2.964   5.752
13601TIP3   OH240687   7.494   3.166   6.291
13601TIP3    H140688   7.518   3.217   6.210
13601TIP3    H240689   7.409   3.125   6.266
13602TIP3   OH240690   7.050   2.243   5.524
13602TIP3    H140691   6.953   2.229   5.533
13602TIP3    H240692   7.062   2.337   5.549
13603TIP3   OH240693   6.995   3.248   6.661
13603TIP3    H140694   7.018   3.230   6.753
13603TIP3    H240695   6.963   3.340   6.665
13604TIP3   OH240696   7.121   2.489   5.626
13604TIP3    H140697   7.217   2.496   5.644
13604TIP3    H240698   7.104   2.571   5.575
13605TIP3   OH240699   6.276   2.942   6.337
13605TIP3    H140700   6.320   2.927   6.251
13605TIP3    H240701   6.334   2.894   6.398
13606TIP3   OH240702   6.737   3.078   5.480
13606TIP3    H140703   6.690   3.165   5.486
13606TIP3    H240704   6.684   3.024   5.543
13607TIP3   OH240705   6.164   2.877   6.954
13607TIP3    H140706   6.189   2.862   7.047
13607TIP3    H240707   6.101   2.805   6.939
13608TIP3   OH240708   6.893   2.986   6.972
13608TIP3    H140709   6.834   2.930   6.919
13608TIP3    H240710   6.980   2.953   6.943
13609TIP3   OH240711   7.162   3.505   6.561
13609TIP3    H140712   7.065   3.501   6.572
13609TIP3    H240713   7.186   3.562   6.637
13610TIP3   OH240714   7.563   2.582   5.465
13610TIP3    H140715   7.500   2.537   5.403
13610TIP3    H240716   7.560   2.671   5.424
13611TIP3   OH240717   7.782   3.437   6.546
13611TIP3    H140718   7.684   3.433   6.536
13611TIP3    H240719   7.808   3.408   6.455
13612TIP3   OH240720   7.258   3.401   5.371
13612TIP3    H140721   7.241   3.329   5.433
13612TIP3    H240722   7.277   3.354   5.287
13613TIP3   OH240723   7.261   3.028   6.209
13613TIP3    H140724   7.167   3.003   6.222
13613TIP3    H240725   7.294   2.949   6.163
13614TIP3   OH240726   6.385   3.252   5.947
13614TIP3    H140727   6.387   3.338   5.902
13614TIP3    H240728   6.293   3.244   5.971
13615TIP3   OH240729   5.950   2.561   5.666
13615TIP3    H140730   5.997   2.644   5.687
13615TIP3    H240731   5.874   2.566   5.728
13616TIP3   OH240732   6.524   3.018   5.905
13616TIP3    H140733   6.489   3.109   5.921
13616TIP3    H240734   6.491   2.972   5.984
13617TIP3   OH240735   6.305   3.499   5.813
13617TIP3    H140736   6.220   3.507   5.861
13617TIP3    H240737   6.338   3.592   5.817
13618TIP3   OH240738   7.047   3.234   6.392
13618TIP3    H140739   7.034   3.233   6.489
13618TIP3    H240740   7.128   3.182   6.383
13619TIP3   OH240741   7.019   3.125   5.275
13619TIP3    H140742   7.074   3.101   5.353
13619TIP3    H240743   6.931   3.103   5.309
13620TIP3   OH240744   7.294   3.767   6.441
13620TIP3    H140745   7.213   3.712   6.432
13620TIP3    H240746   7.279   3.832   6.370
13621TIP3   OH240747   7.358   3.602   5.091
13621TIP3    H140748   7.406   3.678   5.052
13621TIP3    H240749   7.277   3.647   5.121
13622TIP3   OH240750   6.377   2.379   6.960
13622TIP3    H140751   6.281   2.365   6.961
13622TIP3    H240752   6.405   2.311   7.024
13623TIP3   OH240753   7.180   3.058   5.489
13623TIP3    H140754   7.171   2.993   5.562
13623TIP3    H240755   7.277   3.058   5.477
13624TIP3   OH240756   6.100   3.468   6.593
13624TIP3    H140757   6.148   3.384   6.602
13624TIP3    H240758   6.135   3.515   6.669
13625TIP3   OH240759   6.385   3.110   5.274
13625TIP3    H140760   6.399   3.017   5.247
13625TIP3    H240761   6.367   3.099   5.370
13626TIP3   OH240762   6.330   3.112   5.546
13626TIP3    H140763   6.402   3.087   5.606
13626TIP3    H240764   6.333   3.210   5.553
13627TIP3   OH240765   6.063   2.804   5.749
13627TIP3    H140766   5.998   2.851   5.806
13627TIP3    H240767   6.080   2.874   5.683
13628TIP3   OH240768   7.216   2.442   6.641
13628TIP3    H140769   7.296   2.481   6.680
13628TIP3    H240770   7.202   2.362   6.695
13629TIP3   OH240771   7.096   2.193   5.806
13629TIP3    H140772   7.084   2.218   5.713
13629TIP3    H240773   7.136   2.275   5.844
13630TIP3   OH240774   6.594   3.308   5.491
13630TIP3    H140775   6.509   3.335   5.530
13630TIP3    H240776   6.614   3.384   5.435
13631TIP3   OH240777   6.782   2.374   5.908
13631TIP3    H140778   6.847   2.445   5.891
13631TIP3    H240779   6.788   2.366   6.006
13632TIP3   OH240780   7.053   2.691   6.716
13632TIP3    H140781   7.075   2.746   6.794
13632TIP3    H240782   7.108   2.612   6.729
13633TIP3   OH240783   6.928   2.099   6.010
13633TIP3    H140784   6.923   2.175   6.071
13633TIP3    H240785   6.989   2.135   5.942
13634TIP3   OH240786   6.338   3.385   5.562
13634TIP3    H140787   6.310   3.455   5.500
13634TIP3    H240788   6.324   3.429   5.649
13635TIP3   OH240789   6.443   2.098   5.797
13635TIP3    H140790   6.439   2.188   5.836
13635TIP3    H240791   6.539   2.080   5.809
13636TIP3   OH240792   7.694   2.592   6.699
13636TIP3    H140793   7.596   2.590   6.704
13636TIP3    H240794   7.706   2.555   6.610
13637TIP3   OH240795   7.345   2.786   6.084
13637TIP3    H140796   7.269   2.727   6.098
13637TIP3    H240797   7.417   2.739   6.133
13638TIP3   OH240798   6.057   3.016   5.555
13638TIP3    H140799   6.124   3.086   5.565
13638TIP3    H240800   6.102   2.960   5.488
13639TIP3   OH240801   6.003   2.291   5.684
13639TIP3    H140802   6.004   2.389   5.682
13639TIP3    H240803   5.915   2.271   5.649
13640TIP3   OH240804   7.314   3.744   6.034
13640TIP3    H140805   7.271   3.790   5.959
13640TIP3    H240806   7.408   3.763   6.013
13641TIP3   OH240807   6.393   2.014   6.560
13641TIP3    H140808   6.361   1.974   6.477
13641TIP3    H240809   6.349   1.957   6.627
13642TIP3   OH240810   5.928   3.230   5.941
13642TIP3    H140811   5.857   3.261   5.999
13642TIP3    H240812   5.902   3.271   5.856
13643TIP3   OH240813   6.078   3.759   7.018
13643TIP3    H140814   6.166   3.772   7.059
13643TIP3    H240815   6.069   3.663   7.021
13644TIP3   OH240816   6.568   3.737   7.059
13644TIP3    H140817   6.661   3.713   7.067
13644TIP3    H240818   6.539   3.676   6.988
13645TIP3   OH240819   6.548   3.313   5.184
13645TIP3    H140820   6.494   3.241   5.223
13645TIP3    H240821   6.623   3.262   5.150
13646TIP3   OH240822   7.202   3.647   6.795
13646TIP3    H140823   7.196   3.575   6.861
13646TIP3    H240824   7.282   3.695   6.824
13647TIP3   OH240825   6.983   3.351   5.097
13647TIP3    H140826   7.031   3.291   5.157
13647TIP3    H240827   7.039   3.352   5.017
13648TIP3   OH240828   6.215   3.177   7.215
13648TIP3    H140829   6.233   3.081   7.218
13648TIP3    H240830   6.128   3.179   7.169
13649TIP3   OH240831   6.192   2.827   5.410
13649TIP3    H140832   6.249   2.798   5.483
13649TIP3    H240833   6.259   2.837   5.339
13650TIP3   OH240834   6.822   3.263   6.989
13650TIP3    H140835   6.782   3.284   6.902
13650TIP3    H240836   6.853   3.171   6.977
13651TIP3   OH240837   6.702   3.023   5.213
13651TIP3    H140838   6.705   3.039   5.309
13651TIP3    H240839   6.699   2.925   5.211
13652TIP3   OH240840   7.317   3.271   6.594
13652TIP3    H140841   7.391   3.316   6.550
13652TIP3    H240842   7.246   3.337   6.581
13653TIP3   OH240843   6.333   2.911   7.196
13653TIP3    H140844   6.410   2.861   7.168
13653TIP3    H240845   6.361   2.944   7.284
13654TIP3   OH240846   6.395   2.734   5.627
13654TIP3    H140847   6.373   2.698   5.715
13654TIP3    H240848   6.436   2.656   5.583
13655TIP3   OH240849   6.669   2.794   6.855
13655TIP3    H140850   6.592   2.856   6.858
13655TIP3    H240851   6.720   2.829   6.778
13656TIP3   OH240852   6.506   2.522   5.478
13656TIP3    H140853   6.479   2.535   5.385
13656TIP3    H240854   6.603   2.530   5.470
13657TIP3   OH240855   7.187   3.199   6.993
13657TIP3    H140856   7.263   3.173   6.940
13657TIP3    H240857   7.185   3.130   7.062
13658TIP3   OH240858   7.321   2.855   5.135
13658TIP3    H140859   7.302   2.812   5.049
13658TIP3    H240860   7.290   2.946   5.112
13659TIP3   OH240861   6.794   2.586   6.983
13659TIP3    H140862   6.794   2.506   6.927
13659TIP3    H240863   6.750   2.651   6.925
13660TIP3   OH240864   6.797   2.372   6.792
13660TIP3    H140865   6.824   2.413   6.707
13660TIP3    H240866   6.704   2.348   6.773
13661TIP3   OH240867   6.822   2.908   6.666
13661TIP3    H140868   6.906   2.920   6.618
13661TIP3    H240869   6.765   2.974   6.620
13662TIP3   OH240870   7.405   2.874   7.045
13662TIP3    H140871   7.455   2.790   7.051
13662TIP3    H240872   7.472   2.933   7.008
13663TIP3   OH240873   7.445   3.127   6.782
13663TIP3    H140874   7.388   3.180   6.722
13663TIP3    H240875   7.533   3.147   6.742
13664TIP3   OH240876   6.672   2.695   7.215
13664TIP3    H140877   6.604   2.626   7.228
13664TIP3    H240878   6.706   2.672   7.127
13665TIP3   OH240879   6.929   2.135   6.858
13665TIP3    H140880   6.879   2.217   6.836
13665TIP3    H240881   6.860   2.067   6.846
13666TIP3   OH240882   7.054   2.638   7.074
13666TIP3    H140883   7.040   2.625   7.170
13666TIP3    H240884   6.965   2.614   7.041
13667TIP3   OH240885   7.293   2.589   6.929
13667TIP3    H140886   7.218   2.590   6.991
13667TIP3    H240887   7.367   2.558   6.986
13668TIP3   OH240888   7.524   2.530   7.081
13668TIP3    H140889   7.535   2.434   7.098
13668TIP3    H240890   7.519   2.568   7.171
13669TIP3   OH240891   6.509   2.478   7.269
13669TIP3    H140892   6.510   2.387   7.233
13669TIP3    H240893   6.546   2.462   7.358
13670TIP3   OH240894   7.022   2.144   7.116
13670TIP3    H140895   7.089   2.072   7.109
13670TIP3    H240896   6.982   2.139   7.027
13671TIP3   OH240897   7.088   2.359   7.275
13671TIP3    H140898   7.067   2.288   7.211
13671TIP3    H240899   7.010   2.418   7.268
13672TIP3   OH240900   6.309   3.587   5.374
13672TIP3    H140901   6.405   3.582   5.355
13672TIP3    H240902   6.281   3.638   5.296
13673TIP3   OH240903   5.789   2.970   5.591
13673TIP3    H140904   5.883   2.993   5.577
13673TIP3    H240905   5.784   2.881   5.549
13674TIP3   OH240906   5.704   3.581   6.005
13674TIP3    H140907   5.637   3.519   5.968
13674TIP3    H240908   5.748   3.523   6.070
13675TIP3   OH240909   5.840   3.432   6.193
13675TIP3    H140910   5.828   3.359   6.255
13675TIP3    H240911   5.892   3.494   6.247
13676TIP3   OH240912   7.566   3.836   5.990
13676TIP3    H140913   7.591   3.866   6.079
13676TIP3    H240914   7.635   3.876   5.935
13677TIP3   OH240915   7.596   3.852   6.270
13677TIP3    H140916   7.554   3.764   6.271
13677TIP3    H240917   7.672   3.835   6.328
13678TIP3   OH240918   7.645   3.530   6.848
13678TIP3    H140919   7.571   3.540   6.911
13678TIP3    H240920   7.684   3.620   6.850
13679TIP3   OH240921   7.458   3.043   5.465
13679TIP3    H140922   7.525   3.108   5.435
13679TIP3    H240923   7.503   3.005   5.544
13680TIP3   OH240924   7.587   2.910   5.669
13680TIP3    H140925   7.521   2.869   5.729
13680TIP3    H240926   7.652   2.948   5.731
13681TIP3   OH240927   7.642   3.303   6.103
13681TIP3    H140928   7.694   3.238   6.052
13681TIP3    H240929   7.634   3.377   6.040
13682TIP3   OH240930   7.471   3.602   6.298
13682TIP3    H140931   7.399   3.645   6.349
13682TIP3    H240932   7.421   3.556   6.227
13683TIP3   OH240933   7.523   2.818   5.316
13683TIP3    H140934   7.452   2.822   5.249
13683TIP3    H240935   7.498   2.895   5.372
13684TIP3   OH240936   7.393   2.491   5.272
13684TIP3    H140937   7.354   2.530   5.194
13684TIP3    H240938   7.369   2.397   5.261
13685TIP3   OH240939   7.399   2.768   5.816
13685TIP3    H140940   7.409   2.672   5.811
13685TIP3    H240941   7.385   2.783   5.912
13686TIP3   OH240942   6.026   2.843   6.563
13686TIP3    H140943   6.025   2.811   6.471
13686TIP3    H240944   6.123   2.844   6.581
13687TIP3   OH240945   7.689   3.192   6.674
13687TIP3    H140946   7.762   3.127   6.663
13687TIP3    H240947   7.714   3.262   6.611
13688TIP3   OH240948   7.873   2.996   6.687
13688TIP3    H140949   7.799   2.946   6.728
13688TIP3    H240950   7.946   2.932   6.703
13689TIP3   OH240951   7.339   2.224   5.254
13689TIP3    H140952   7.415   2.196   5.309
13689TIP3    H240953   7.268   2.165   5.282
13690TIP3   OH240954   7.395   2.483   5.710
13690TIP3    H140955   7.437   2.395   5.725
13690TIP3    H240956   7.454   2.517   5.640
13691TIP3   OH240957   7.558   2.656   6.206
13691TIP3    H140958   7.644   2.682   6.165
13691TIP3    H240959   7.571   2.694   6.295
13692TIP3   OH240960   7.627   2.801   6.438
13692TIP3    H140961   7.549   2.836   6.486
13692TIP3    H240962   7.659   2.882   6.392
13693TIP3   OH240963   6.242   2.529   7.240
13693TIP3    H140964   6.340   2.521   7.237
13693TIP3    H240965   6.219   2.442   7.278
13694TIP3   OH240966   8.080   2.393   6.994
13694TIP3    H140967   8.138   2.328   6.950
13694TIP3    H240968   8.049   2.447   6.918
13695TIP3   OH240969   7.505   2.234   5.748
13695TIP3    H140970   7.554   2.218   5.832
13695TIP3    H240971   7.445   2.157   5.747
13696TIP3   OH240972   6.202   2.220   6.569
13696TIP3    H140973   6.260   2.142   6.582
13696TIP3    H240974   6.269   2.291   6.561
13697TIP3   OH240975   6.001   2.498   6.634
13697TIP3    H140976   6.056   2.488   6.553
13697TIP3    H240977   6.040   2.576   6.674
13698TIP3   OH240978   7.948   2.530   6.801
13698TIP3    H140979   7.862   2.573   6.819
13698TIP3    H240980   7.918   2.459   6.741
13699TIP3   OH240981   7.585   2.168   5.381
13699TIP3    H140982   7.626   2.096   5.328
13699TIP3    H240983   7.653   2.239   5.377
13700TIP3   OH240984   5.990   1.991   6.136
13700TIP3    H140985   5.898   1.995   6.168
13700TIP3    H240986   5.988   2.054   6.061
13701TIP3   OH240987   7.146   3.702   5.647
13701TIP3    H140988   7.199   3.688   5.566
13701TIP3    H240989   7.205   3.761   5.698
13702TIP3   OH240990   6.214   2.127   6.982
13702TIP3    H140991   6.164   2.077   7.047
13702TIP3    H240992   6.185   2.087   6.899
13703TIP3   OH240993   6.253   3.501   7.030
13703TIP3    H140994   6.161   3.472   7.016
13703TIP3    H240995   6.263   3.490   7.125
13704TIP3   OH240996   6.421   3.545   6.596
13704TIP3    H140997   6.376   3.608   6.537
13704TIP3    H240998   6.496   3.526   6.535
13705TIP3   OH240999   6.865   3.801   6.726
13705TIP3    H141000   6.915   3.785   6.809
13705TIP3    H241001   6.935   3.840   6.670
13706TIP3   OH241002   7.048   3.936   6.576
13706TIP3    H141003   7.116   3.882   6.531
13706TIP3    H241004   7.105   3.991   6.635
13707TIP3   OH241005   7.848   2.295   6.678
13707TIP3    H141006   7.757   2.289   6.642
13707TIP3    H241007   7.878   2.202   6.666
13708TIP3   OH241008   6.108   3.818   6.627
13708TIP3    H141009   6.021   3.852   6.595
13708TIP3    H241010   6.082   3.784   6.714
13709TIP3   OH241011   6.334   3.787   6.487
13709TIP3    H141012   6.241   3.796   6.519
13709TIP3    H241013   6.320   3.801   6.390
13710TIP3   OH241014   6.805   3.842   6.213
13710TIP3    H141015   6.713   3.830   6.188
13710TIP3    H241016   6.800   3.914   6.279
13711TIP3   OH241017   7.039   3.742   6.317
13711TIP3    H141018   6.946   3.755   6.287
13711TIP3    H241019   7.083   3.814   6.269
13712TIP3   OH241020   7.247   3.933   6.227
13712TIP3    H141021   7.231   4.017   6.178
13712TIP3    H241022   7.272   3.872   6.155
13713TIP3   OH241023   6.023   3.584   6.350
13713TIP3    H141024   6.047   3.555   6.441
13713TIP3    H241025   6.096   3.542   6.300
13714TIP3   OH241026   6.222   3.453   6.212
13714TIP3    H141027   6.225   3.367   6.260
13714TIP3    H241028   6.317   3.475   6.212
13715TIP3   OH241029   7.051   2.208   6.295
13715TIP3    H141030   7.009   2.139   6.348
13715TIP3    H241031   7.126   2.161   6.254
13716TIP3   OH241032   7.576   2.089   6.202
13716TIP3    H141033   7.612   2.141   6.127
13716TIP3    H241034   7.480   2.109   6.196
13717TIP3   OH241035   7.670   2.189   5.966
13717TIP3    H141036   7.744   2.138   5.926
13717TIP3    H241037   7.704   2.281   5.951
13718TIP3   OH241038   6.299   1.920   6.307
13718TIP3    H141039   6.209   1.884   6.316
13718TIP3    H241040   6.351   1.836   6.307
13719TIP3   OH241041   6.079   1.789   5.958
13719TIP3    H141042   6.116   1.847   5.889
13719TIP3    H241043   6.057   1.853   6.028
13720TIP3   OH241044   6.743   1.952   6.192
13720TIP3    H141045   6.804   2.002   6.135
13720TIP3    H241046   6.765   1.987   6.280
13721TIP3   OH241047   7.292   2.098   6.177
13721TIP3    H141048   7.291   2.060   6.089
13721TIP3    H241049   7.279   2.018   6.233
13722TIP3   OH241050   7.322   2.021   5.740
13722TIP3    H141051   7.235   2.064   5.754
13722TIP3    H241052   7.308   1.935   5.786
13723TIP3   OH241053   5.804   3.361   5.741
13723TIP3    H141054   5.719   3.329   5.706
13723TIP3    H241055   5.796   3.455   5.719
13724TIP3   OH241056   6.207   1.950   5.721
13724TIP3    H141057   6.257   1.886   5.667
13724TIP3    H241058   6.280   2.004   5.759
13725TIP3   OH241059   6.720   2.123   5.822
13725TIP3    H141060   6.778   2.077   5.884
13725TIP3    H241061   6.739   2.216   5.848
13726TIP3   OH241062   6.578   3.547   5.323
13726TIP3    H141063   6.666   3.569   5.287
13726TIP3    H241064   6.556   3.472   5.263
13727TIP3   OH241065   7.293   3.667   5.417
13727TIP3    H141066   7.287   3.569   5.405
13727TIP3    H241067   7.252   3.697   5.334
13728TIP3   OH241068   6.508   2.207   7.212
13728TIP3    H141069   6.476   2.129   7.260
13728TIP3    H241070   6.603   2.204   7.235
13729TIP3   OH241071   6.761   2.199   7.326
13729TIP3    H141072   6.844   2.171   7.282
13729TIP3    H241073   6.748   2.126   7.390
13730TIP3   OH241074   5.880   3.381   5.378
13730TIP3    H141075   5.883   3.411   5.470
13730TIP3    H241076   5.969   3.341   5.365
13731TIP3   OH241077   7.584   2.259   7.110
13731TIP3    H141078   7.603   2.228   7.202
13731TIP3    H241079   7.673   2.254   7.069
13732TIP3   OH241080   7.522   3.811   6.604
13732TIP3    H141081   7.443   3.783   6.554
13732TIP3    H241082   7.507   3.908   6.607
13733TIP3   OH241083   8.789   3.183   5.368
13733TIP3    H141084   8.759   3.274   5.346
13733TIP3    H241085   8.713   3.133   5.335
13734TIP3   OH241086   8.792   3.182   5.750
13734TIP3    H141087   8.821   3.155   5.838
13734TIP3    H241088   8.747   3.102   5.718
13735TIP3   OH241089   8.087   3.078   6.116
13735TIP3    H141090   8.119   3.010   6.179
13735TIP3    H241091   8.165   3.134   6.108
13736TIP3   OH241092   9.038   3.482   5.432
13736TIP3    H141093   9.013   3.417   5.499
13736TIP3    H241094   9.058   3.560   5.487
13737TIP3   OH241095   8.059   3.487   5.840
13737TIP3    H141096   8.050   3.390   5.842
13737TIP3    H241097   8.155   3.496   5.832
13738TIP3   OH241098   7.765   2.689   5.625
13738TIP3    H141099   7.719   2.773   5.640
13738TIP3    H241100   7.694   2.637   5.583
13739TIP3   OH241101   7.824   2.977   5.797
13739TIP3    H141102   7.874   2.901   5.833
13739TIP3    H241103   7.885   3.012   5.731
13740TIP3   OH241104   8.682   3.949   5.450
13740TIP3    H141105   8.727   3.878   5.398
13740TIP3    H241106   8.675   3.908   5.537
13741TIP3   OH241107   8.586   3.408   5.799
13741TIP3    H141108   8.624   3.334   5.750
13741TIP3    H241109   8.669   3.454   5.825
13742TIP3   OH241110   9.537   2.747   5.812
13742TIP3    H141111   9.595   2.809   5.861
13742TIP3    H241112   9.569   2.760   5.721
13743TIP3   OH241113   8.999   2.910   5.830
13743TIP3    H141114   9.041   2.824   5.850
13743TIP3    H241115   8.967   2.894   5.739
13744TIP3   OH241116   8.338   2.569   5.796
13744TIP3    H141117   8.318   2.642   5.733
13744TIP3    H241118   8.289   2.496   5.752
13745TIP3   OH241119   9.033   2.661   5.418
13745TIP3    H141120   9.105   2.645   5.483
13745TIP3    H241121   9.084   2.697   5.344
13746TIP3   OH241122   7.970   2.771   5.903
13746TIP3    H141123   8.053   2.752   5.951
13746TIP3    H241124   7.984   2.716   5.823
13747TIP3   OH241125   8.411   2.969   5.697
13747TIP3    H141126   8.505   2.943   5.709
13747TIP3    H241127   8.372   2.885   5.664
13748TIP3   OH241128   9.669   2.934   5.962
13748TIP3    H141129   9.586   2.986   5.960
13748TIP3    H241130   9.712   2.969   6.042
13749TIP3   OH241131   8.333   2.553   6.231
13749TIP3    H141132   8.274   2.590   6.162
13749TIP3    H241133   8.281   2.572   6.311
13750TIP3   OH241134   8.679   3.403   5.238
13750TIP3    H141135   8.638   3.385   5.152
13750TIP3    H241136   8.635   3.487   5.263
13751TIP3   OH241137   8.440   3.328   6.025
13751TIP3    H141138   8.378   3.395   6.062
13751TIP3    H241139   8.482   3.378   5.952
13752TIP3   OH241140   9.244   2.662   5.592
13752TIP3    H141141   9.227   2.617   5.676
13752TIP3    H241142   9.292   2.741   5.621
13753TIP3   OH241143   8.205   2.667   6.014
13753TIP3    H141144   8.266   2.741   6.037
13753TIP3    H241145   8.254   2.627   5.939
13754TIP3   OH241146   8.268   3.522   6.123
13754TIP3    H141147   8.243   3.608   6.084
13754TIP3    H241148   8.189   3.506   6.179
13755TIP3   OH241149   7.660   3.212   5.360
13755TIP3    H141150   7.624   3.239   5.274
13755TIP3    H241151   7.693   3.297   5.396
13756TIP3   OH241152   9.104   3.727   5.597
13756TIP3    H141153   9.015   3.718   5.639
13756TIP3    H241154   9.093   3.814   5.553
13757TIP3   OH241155   9.369   2.618   5.977
13757TIP3    H141156   9.281   2.645   5.945
13757TIP3    H241157   9.428   2.660   5.909
13758TIP3   OH241158   8.690   2.271   5.945
13758TIP3    H141159   8.674   2.176   5.962
13758TIP3    H241160   8.612   2.310   5.991
13759TIP3   OH241161   8.804   3.775   5.274
13759TIP3    H141162   8.852   3.692   5.253
13759TIP3    H241163   8.864   3.840   5.232
13760TIP3   OH241164   8.945   3.560   5.182
13760TIP3    H141165   8.912   3.481   5.138
13760TIP3    H241166   8.982   3.522   5.265
13761TIP3   OH241167   9.328   3.639   5.942
13761TIP3    H141168   9.310   3.563   5.883
13761TIP3    H241169   9.306   3.715   5.884
13762TIP3   OH241170   8.621   3.033   5.201
13762TIP3    H141171   8.540   3.085   5.183
13762TIP3    H241172   8.664   3.033   5.115
13763TIP3   OH241173   8.578   2.820   4.915
13763TIP3    H141174   8.645   2.871   4.965
13763TIP3    H241175   8.636   2.757   4.868
13764TIP3   OH241176   9.521   3.281   5.793
13764TIP3    H141177   9.436   3.331   5.795
13764TIP3    H241178   9.550   3.296   5.701
13765TIP3   OH241179   8.967   3.116   5.171
13765TIP3    H141180   8.911   3.142   5.249
13765TIP3    H241181   9.050   3.091   5.217
13766TIP3   OH241182   9.201   3.157   6.084
13766TIP3    H141183   9.197   3.239   6.136
13766TIP3    H241184   9.114   3.161   6.039
13767TIP3   OH241185   8.198   3.114   5.590
13767TIP3    H141186   8.157   3.057   5.521
13767TIP3    H241187   8.276   3.061   5.617
13768TIP3   OH241188   8.327   3.525   5.737
13768TIP3    H141189   8.307   3.488   5.649
13768TIP3    H241190   8.416   3.490   5.754
13769TIP3   OH241191   8.336   3.086   5.943
13769TIP3    H141192   8.368   3.064   5.853
13769TIP3    H241193   8.378   3.172   5.962
13770TIP3   OH241194   8.864   3.721   5.720
13770TIP3    H141195   8.850   3.803   5.771
13770TIP3    H241196   8.846   3.651   5.785
13771TIP3   OH241197   8.475   3.641   6.268
13771TIP3    H141198   8.417   3.705   6.316
13771TIP3    H241199   8.407   3.590   6.219
13772TIP3   OH241200   8.808   2.973   4.998
13772TIP3    H141201   8.866   3.034   5.049
13772TIP3    H241202   8.834   2.995   4.905
13773TIP3   OH241203   8.229   3.196   6.371
13773TIP3    H141204   8.233   3.285   6.412
13773TIP3    H241205   8.133   3.178   6.379
13774TIP3   OH241206   8.552   3.653   5.273
13774TIP3    H141207   8.631   3.708   5.288
13774TIP3    H241208   8.489   3.714   5.233
13775TIP3   OH241209   8.266   3.813   6.355
13775TIP3    H141210   8.232   3.810   6.263
13775TIP3    H241211   8.188   3.787   6.408
13776TIP3   OH241212   9.334   2.232   5.076
13776TIP3    H141213   9.243   2.248   5.110
13776TIP3    H241214   9.338   2.296   5.002
13777TIP3   OH241215   8.065   2.958   5.393
13777TIP3    H141216   8.001   3.005   5.336
13777TIP3    H241217   8.022   2.872   5.403
13778TIP3   OH241218   7.846   3.342   6.301
13778TIP3    H141219   7.779   3.321   6.232
13778TIP3    H241220   7.883   3.254   6.323
13779TIP3   OH241221   7.702   3.533   5.934
13779TIP3    H141222   7.798   3.528   5.923
13779TIP3    H241223   7.692   3.612   5.989
13780TIP3   OH241224   9.566   3.991   5.987
13780TIP3    H141225   9.562   3.895   6.001
13780TIP3    H241226   9.482   4.017   6.032
13781TIP3   OH241227   8.670   3.773   6.122
13781TIP3    H141228   8.675   3.863   6.161
13781TIP3    H241229   8.600   3.733   6.179
13782TIP3   OH241230   8.432   3.898   5.078
13782TIP3    H141231   8.392   3.877   4.991
13782TIP3    H241232   8.397   3.988   5.096
13783TIP3   OH241233   7.861   3.752   5.462
13783TIP3    H141234   7.916   3.741   5.543
13783TIP3    H241235   7.813   3.668   5.462
13784TIP3   OH241236   8.645   3.793   4.710
13784TIP3    H141237   8.717   3.733   4.684
13784TIP3    H241238   8.668   3.810   4.804
13785TIP3   OH241239   8.682   3.850   4.982
13785TIP3    H141240   8.593   3.859   5.023
13785TIP3    H241241   8.731   3.808   5.054
13786TIP3   OH241242   9.467   3.122   6.254
13786TIP3    H141243   9.379   3.133   6.216
13786TIP3    H241244   9.478   3.025   6.249
13787TIP3   OH241245   8.051   3.523   6.287
13787TIP3    H141246   8.100   3.509   6.371
13787TIP3    H241247   7.977   3.461   6.296
13788TIP3   OH241248   8.451   2.347   6.074
13788TIP3    H141249   8.362   2.317   6.047
13788TIP3    H241250   8.426   2.430   6.120
13789TIP3   OH241251   8.984   2.462   6.267
13789TIP3    H141252   9.053   2.436   6.332
13789TIP3    H241253   8.900   2.443   6.314
13790TIP3   OH241254   9.221   2.894   6.185
13790TIP3    H141255   9.173   2.890   6.271
13790TIP3    H241256   9.198   2.982   6.152
13791TIP3   OH241257   8.883   3.015   4.741
13791TIP3    H141258   8.851   2.993   4.652
13791TIP3    H241259   8.956   3.076   4.720
13792TIP3   OH241260   8.596   2.395   5.044
13792TIP3    H141261   8.562   2.393   5.136
13792TIP3    H241262   8.557   2.313   5.010
13793TIP3   OH241263   8.382   2.863   6.091
13793TIP3    H141264   8.332   2.885   6.173
13793TIP3    H241265   8.367   2.944   6.038
13794TIP3   OH241266   8.267   2.749   5.606
13794TIP3    H141267   8.174   2.724   5.623
13794TIP3    H241268   8.279   2.709   5.517
13795TIP3   OH241269   8.758   2.834   5.334
13795TIP3    H141270   8.705   2.906   5.292
13795TIP3    H241271   8.812   2.804   5.259
13796TIP3   OH241272   8.933   3.112   6.417
13796TIP3    H141273   8.911   3.040   6.480
13796TIP3    H241274   9.026   3.127   6.440
13797TIP3   OH241275   8.913   2.863   5.572
13797TIP3    H141276   8.852   2.893   5.501
13797TIP3    H241277   8.946   2.781   5.529
13798TIP3   OH241278   8.202   2.892   6.300
13798TIP3    H141279   8.229   2.958   6.367
13798TIP3    H241280   8.191   2.811   6.354
13799TIP3   OH241281   8.251   2.370   5.010
13799TIP3    H141282   8.242   2.368   5.108
13799TIP3    H241283   8.173   2.424   4.986
13800TIP3   OH241284   7.795   2.413   5.882
13800TIP3    H141285   7.869   2.446   5.936
13800TIP3    H241286   7.837   2.384   5.800
13801TIP3   OH241287   7.765   2.394   5.400
13801TIP3    H141288   7.810   2.433   5.322
13801TIP3    H241289   7.704   2.468   5.421
13802TIP3   OH241290   8.925   3.109   5.995
13802TIP3    H141291   8.958   3.037   5.936
13802TIP3    H241292   8.895   3.056   6.072
13803TIP3   OH241293   8.595   2.570   5.667
13803TIP3    H141294   8.512   2.569   5.719
13803TIP3    H241295   8.663   2.570   5.737
13804TIP3   OH241296   8.028   2.628   5.676
13804TIP3    H141297   7.933   2.635   5.648
13804TIP3    H241298   8.051   2.536   5.651
13805TIP3   OH241299   8.296   2.623   5.364
13805TIP3    H141300   8.390   2.639   5.341
13805TIP3    H241301   8.249   2.645   5.281
13806TIP3   OH241302   9.084   2.646   5.868
13806TIP3    H141303   9.051   2.660   5.960
13806TIP3    H241304   9.016   2.586   5.833
13807TIP3   OH241305   8.141   2.655   5.142
13807TIP3    H141306   8.069   2.612   5.092
13807TIP3    H241307   8.192   2.694   5.068
13808TIP3   OH241308   9.271   4.328   6.074
13808TIP3    H141309   9.262   4.365   5.985
13808TIP3    H241310   9.327   4.392   6.120
13809TIP3   OH241311   8.213   3.444   6.509
13809TIP3    H141312   8.293   3.476   6.556
13809TIP3    H241313   8.148   3.448   6.582
13810TIP3   OH241314   8.676   2.899   5.764
13810TIP3    H141315   8.750   2.861   5.714
13810TIP3    H241316   8.686   2.857   5.851
13811TIP3   OH241317   8.199   2.387   5.644
13811TIP3    H141318   8.164   2.308   5.690
13811TIP3    H241319   8.246   2.348   5.569
13812TIP3   OH241320   8.653   2.796   6.057
13812TIP3    H141321   8.564   2.833   6.069
13812TIP3    H241322   8.710   2.858   6.106
13813TIP3   OH241323   8.394   3.183   5.152
13813TIP3    H141324   8.318   3.124   5.136
13813TIP3    H241325   8.372   3.219   5.241
13814TIP3   OH241326   9.287   3.422   5.777
13814TIP3    H141327   9.307   3.470   5.694
13814TIP3    H241328   9.201   3.379   5.756
13815TIP3   OH241329   8.848   2.499   5.013
13815TIP3    H141330   8.751   2.482   5.021
13815TIP3    H241331   8.856   2.594   5.036
13816TIP3   OH241332   8.788   3.505   6.147
13816TIP3    H141333   8.816   3.488   6.238
13816TIP3    H241334   8.752   3.595   6.152
13817TIP3   OH241335   8.918   2.747   5.116
13817TIP3    H141336   9.015   2.755   5.128
13817TIP3    H241337   8.897   2.826   5.063
13818TIP3   OH241338   8.081   3.208   5.825
13818TIP3    H141339   8.119   3.181   5.739
13818TIP3    H241340   8.125   3.147   5.886
13819TIP3   OH241341   8.534   3.340   4.973
13819TIP3    H141342   8.483   3.424   4.977
13819TIP3    H241343   8.479   3.283   5.032
13820TIP3   OH241344   7.963   3.129   6.438
13820TIP3    H141345   7.982   3.115   6.533
13820TIP3    H241346   7.893   3.063   6.422
13821TIP3   OH241347   8.690   3.241   6.459
13821TIP3    H141348   8.631   3.184   6.407
13821TIP3    H241349   8.778   3.209   6.430
13822TIP3   OH241350   8.948   3.757   6.037
13822TIP3    H141351   8.853   3.764   6.053
13822TIP3    H241352   8.982   3.808   6.114
13823TIP3   OH241353   9.352   2.830   4.964
13823TIP3    H141354   9.295   2.784   4.899
13823TIP3    H241355   9.371   2.909   4.909
13824TIP3   OH241356   9.581   3.686   6.022
13824TIP3    H141357   9.482   3.687   6.020
13824TIP3    H241358   9.598   3.651   5.932
13825TIP3   OH241359   9.068   3.655   4.851
13825TIP3    H141360   9.036   3.586   4.910
13825TIP3    H241361   9.056   3.615   4.764
13826TIP3   OH241362   9.056   3.285   5.698
13826TIP3    H141363   8.962   3.262   5.712
13826TIP3    H241364   9.087   3.206   5.650
13827TIP3   OH241365   8.185   3.510   5.456
13827TIP3    H141366   8.183   3.596   5.409
13827TIP3    H241367   8.091   3.490   5.460
13828TIP3   OH241368   7.748   2.818   5.154
13828TIP3    H141369   7.793   2.903   5.172
13828TIP3    H241370   7.671   2.824   5.215
13829TIP3   OH241371   8.321   3.278   5.395
13829TIP3    H141372   8.287   3.368   5.412
13829TIP3    H241373   8.283   3.228   5.470
13830TIP3   OH241374   8.454   3.856   5.920
13830TIP3    H141375   8.497   3.928   5.869
13830TIP3    H241376   8.529   3.821   5.971
13831TIP3   OH241377   8.119   3.750   5.336
13831TIP3    H141378   8.023   3.756   5.346
13831TIP3    H241379   8.141   3.841   5.308
13832TIP3   OH241380   8.839   3.489   5.879
13832TIP3    H141381   8.828   3.490   5.976
13832TIP3    H241382   8.921   3.438   5.869
13833TIP3   OH241383   8.807   3.364   4.763
13833TIP3    H141384   8.859   3.349   4.845
13833TIP3    H241385   8.717   3.348   4.795
13834TIP3   OH241386   9.092   4.018   5.922
13834TIP3    H141387   9.009   3.967   5.922
13834TIP3    H241388   9.073   4.087   5.856
13835TIP3   OH241389   9.173   3.875   4.581
13835TIP3    H141390   9.176   3.950   4.520
13835TIP3    H241391   9.079   3.874   4.603
13836TIP3   OH241392   8.174   2.635   6.446
13836TIP3    H141393   8.077   2.639   6.459
13836TIP3    H241394   8.201   2.576   6.518
13837TIP3   OH241395   8.973   3.321   4.982
13837TIP3    H141396   8.966   3.252   5.051
13837TIP3    H241397   9.069   3.318   4.963
13838TIP3   OH241398   7.891   3.720   6.078
13838TIP3    H141399   7.945   3.647   6.109
13838TIP3    H241400   7.916   3.790   6.140
13839TIP3   OH241401   8.208   3.350   4.754
13839TIP3    H141402   8.202   3.255   4.734
13839TIP3    H241403   8.172   3.352   4.846
13840TIP3   OH241404   8.136   3.363   5.019
13840TIP3    H141405   8.196   3.361   5.094
13840TIP3    H241406   8.096   3.451   5.023
13841TIP3   OH241407   7.862   3.064   5.234
13841TIP3    H141408   7.796   3.110   5.291
13841TIP3    H241409   7.876   3.133   5.167
13842TIP3   OH241410   9.013   2.698   6.126
13842TIP3    H141411   9.091   2.738   6.168
13842TIP3    H241412   8.999   2.618   6.182
13843TIP3   OH241413   8.890   2.451   5.294
13843TIP3    H141414   8.876   2.473   5.200
13843TIP3    H241415   8.929   2.533   5.329
13844TIP3   OH241416   8.390   3.571   4.982
13844TIP3    H141417   8.314   3.612   5.025
13844TIP3    H241418   8.407   3.635   4.912
13845TIP3   OH241419   8.581   2.630   5.395
13845TIP3    H141420   8.644   2.703   5.378
13845TIP3    H241421   8.585   2.623   5.493
13846TIP3   OH241422   8.850   2.948   6.203
13846TIP3    H141423   8.872   3.004   6.281
13846TIP3    H241424   8.905   2.870   6.218
13847TIP3   OH241425   8.723   2.356   5.498
13847TIP3    H141426   8.714   2.434   5.556
13847TIP3    H241427   8.784   2.391   5.429
13848TIP3   OH241428   8.236   2.356   5.287
13848TIP3    H141429   8.234   2.447   5.323
13848TIP3    H241430   8.332   2.337   5.295
13849TIP3   OH241431   9.487   2.848   6.184
13849TIP3    H141432   9.389   2.845   6.190
13849TIP3    H241433   9.499   2.821   6.092
13850TIP3   OH241434   9.134   3.047   5.567
13850TIP3    H141435   9.058   2.987   5.582
13850TIP3    H241436   9.206   3.002   5.617
13851TIP3   OH241437   7.846   3.283   5.043
13851TIP3    H141438   7.860   3.378   5.025
13851TIP3    H241439   7.910   3.243   4.980
13852TIP3   OH241440   7.797   2.547   5.176
13852TIP3    H141441   7.800   2.645   5.172
13852TIP3    H241442   7.716   2.528   5.129
13853TIP3   OH241443   9.110   3.999   5.520
13853TIP3    H141444   9.067   4.046   5.446
13853TIP3    H241445   9.204   4.018   5.499
13854TIP3   OH241446   8.186   2.268   6.047
13854TIP3    H141447   8.155   2.235   5.961
13854TIP3    H241448   8.175   2.189   6.104
13855TIP3   OH241449   7.733   3.485   5.433
13855TIP3    H141450   7.654   3.517   5.478
13855TIP3    H241451   7.715   3.520   5.343
13856TIP3   OH241452   7.897   4.025   6.470
13856TIP3    H141453   7.970   4.031   6.535
13856TIP3    H241454   7.859   3.938   6.492
13857TIP3   OH241455   8.374   3.997   6.537
13857TIP3    H141456   8.463   3.958   6.545
13857TIP3    H241457   8.338   3.937   6.468
13858TIP3   OH241458   8.342   3.570   4.669
13858TIP3    H141459   8.287   3.497   4.707
13858TIP3    H241460   8.419   3.519   4.638
13859TIP3   OH241461   9.010   3.889   6.264
13859TIP3    H141462   8.984   3.837   6.344
13859TIP3    H241463   9.075   3.952   6.301
13860TIP3   OH241464   8.011   3.434   6.702
13860TIP3    H141465   8.028   3.338   6.704
13860TIP3    H241466   7.924   3.438   6.656
13861TIP3   OH241467   7.988   3.081   4.894
13861TIP3    H141468   8.045   3.058   4.969
13861TIP3    H241469   8.055   3.088   4.823
13862TIP3   OH241470   8.618   3.516   6.475
13862TIP3    H141471   8.579   3.537   6.388
13862TIP3    H241472   8.649   3.423   6.464
13863TIP3   OH241473   8.511   3.281   4.698
13863TIP3    H141474   8.497   3.298   4.793
13863TIP3    H241475   8.501   3.184   4.695
13864TIP3   OH241476   9.112   3.527   6.079
13864TIP3    H141477   9.186   3.576   6.038
13864TIP3    H241478   9.040   3.593   6.068
13865TIP3   OH241479   8.130   3.167   6.684
13865TIP3    H141480   8.209   3.118   6.658
13865TIP3    H241481   8.157   3.201   6.772
13866TIP3   OH241482   8.197   2.989   5.116
13866TIP3    H141483   8.170   2.947   5.199
13866TIP3    H241484   8.233   2.913   5.065
13867TIP3   OH241485   8.466   3.051   6.344
13867TIP3    H141486   8.389   3.112   6.346
13867TIP3    H241487   8.516   3.086   6.266
13868TIP3   OH241488   8.298   2.781   4.957
13868TIP3    H141489   8.271   2.788   4.863
13868TIP3    H241490   8.396   2.788   4.949
13869TIP3   OH241491   8.981   3.452   6.480
13869TIP3    H141492   9.062   3.430   6.431
13869TIP3    H241493   8.981   3.385   6.551
13870TIP3   OH241494   9.123   3.122   4.616
13870TIP3    H141495   9.093   3.077   4.534
13870TIP3    H241496   9.091   3.214   4.599
13871TIP3   OH241497   8.589   2.842   6.470
13871TIP3    H141498   8.590   2.763   6.413
13871TIP3    H241499   8.546   2.908   6.413
13872TIP3   OH241500   8.592   2.627   6.278
13872TIP3    H141501   8.620   2.670   6.194
13872TIP3    H241502   8.499   2.605   6.259
13873TIP3   OH241503   8.618   3.163   6.151
13873TIP3    H141504   8.702   3.175   6.106
13873TIP3    H241505   8.561   3.229   6.107
13874TIP3   OH241506   9.196   3.131   6.527
13874TIP3    H141507   9.243   3.059   6.574
13874TIP3    H241508   9.269   3.187   6.498
13875TIP3   OH241509   9.242   3.383   6.266
13875TIP3    H141510   9.183   3.437   6.208
13875TIP3    H241511   9.329   3.403   6.226
13876TIP3   OH241512   8.468   2.951   6.703
13876TIP3    H141513   8.399   2.883   6.715
13876TIP3    H241514   8.502   2.928   6.614
13877TIP3   OH241515   8.724   2.391   6.346
13877TIP3    H141516   8.675   2.473   6.322
13877TIP3    H241517   8.654   2.323   6.333
13878TIP3   OH241518   8.852   2.894   6.561
13878TIP3    H141519   8.839   2.883   6.657
13878TIP3    H241520   8.761   2.871   6.530
13879TIP3   OH241521   9.087   2.838   6.413
13879TIP3    H141522   9.014   2.846   6.477
13879TIP3    H241523   9.163   2.814   6.471
13880TIP3   OH241524   9.328   2.782   6.560
13880TIP3    H141525   9.329   2.688   6.587
13880TIP3    H241526   9.312   2.831   6.644
13881TIP3   OH241527   8.305   2.732   6.755
13881TIP3    H141528   8.312   2.641   6.719
13881TIP3    H241529   8.342   2.720   6.845
13882TIP3   OH241530   8.817   2.399   6.604
13882TIP3    H141531   8.885   2.329   6.596
13882TIP3    H241532   8.777   2.396   6.514
13883TIP3   OH241533   8.883   2.614   6.764
13883TIP3    H141534   8.861   2.544   6.698
13883TIP3    H241535   8.806   2.675   6.756
13884TIP3   OH241536   7.584   3.223   5.082
13884TIP3    H141537   7.677   3.250   5.065
13884TIP3    H241538   7.581   3.137   5.036
13885TIP3   OH241539   7.495   3.843   5.493
13885TIP3    H141540   7.435   3.777   5.453
13885TIP3    H241541   7.543   3.786   5.557
13886TIP3   OH241542   7.631   3.695   5.680
13886TIP3    H141543   7.623   3.617   5.737
13886TIP3    H241544   7.686   3.753   5.736
13887TIP3   OH241545   9.367   4.083   5.479
13887TIP3    H141546   9.389   4.119   5.567
13887TIP3    H241547   9.423   4.136   5.421
13888TIP3   OH241548   9.391   4.111   5.759
13888TIP3    H141549   9.347   4.023   5.757
13888TIP3    H241550   9.464   4.091   5.820
13889TIP3   OH241551   9.442   3.785   6.332
13889TIP3    H141552   9.365   3.794   6.392
13889TIP3    H241553   9.478   3.876   6.335
13890TIP3   OH241554   9.250   3.300   4.950
13890TIP3    H141555   9.316   3.368   4.924
13890TIP3    H241556   9.293   3.260   5.028
13891TIP3   OH241557   9.369   3.165   5.154
13891TIP3    H141558   9.299   3.122   5.208
13891TIP3    H241559   9.422   3.210   5.222
13892TIP3   OH241560   9.438   3.553   5.583
13892TIP3    H141561   9.470   3.507   5.504
13892TIP3    H241562   9.419   3.641   5.545
13893TIP3   OH241563   9.268   3.858   5.784
13893TIP3    H141564   9.201   3.905   5.837
13893TIP3    H241565   9.213   3.815   5.715
13894TIP3   OH241566   9.325   3.081   4.796
13894TIP3    H141567   9.250   3.079   4.733
13894TIP3    H241568   9.295   3.153   4.855
13895TIP3   OH241569   9.184   2.746   4.767
13895TIP3    H141570   9.156   2.788   4.686
13895TIP3    H241571   9.161   2.652   4.750
13896TIP3   OH241572   9.195   3.022   5.302
13896TIP3    H141573   9.200   2.925   5.295
13896TIP3    H241574   9.178   3.035   5.399
13897TIP3   OH241575   7.822   3.095   6.051
13897TIP3    H141576   7.820   3.065   5.957
13897TIP3    H241577   7.920   3.098   6.066
13898TIP3   OH241578   9.487   3.448   6.159
13898TIP3    H141579   9.562   3.386   6.149
13898TIP3    H241580   9.510   3.520   6.099
13899TIP3   OH241581   9.685   3.262   6.175
13899TIP3    H141582   9.605   3.216   6.210
13899TIP3    H241583   9.748   3.187   6.184
13900TIP3   OH241584   9.132   2.480   4.741
13900TIP3    H141585   9.204   2.445   4.797
13900TIP3    H241586   9.055   2.424   4.764
13901TIP3   OH241587   9.196   2.744   5.197
13901TIP3    H141588   9.236   2.655   5.212
13901TIP3    H241589   9.250   2.775   5.121
13902TIP3   OH241590   9.344   2.926   5.687
13902TIP3    H141591   9.425   2.963   5.647
13902TIP3    H241592   9.361   2.944   5.781
13903TIP3   OH241593   9.422   3.058   5.928
13903TIP3    H141594   9.344   3.091   5.976
13903TIP3    H241595   9.452   3.140   5.883
13904TIP3   OH241596   8.038   2.782   6.723
13904TIP3    H141597   8.136   2.777   6.725
13904TIP3    H241598   8.015   2.697   6.765
13905TIP3   OH241599   9.302   2.491   5.244
13905TIP3    H141600   9.335   2.476   5.334
13905TIP3    H241601   9.239   2.417   5.235
13906TIP3   OH241602   8.001   2.476   6.056
13906TIP3    H141603   8.064   2.402   6.064
13906TIP3    H241604   8.063   2.551   6.048
13907TIP3   OH241605   7.804   2.749   6.129
13907TIP3    H141606   7.853   2.745   6.044
13907TIP3    H241607   7.830   2.837   6.160
13908TIP3   OH241608   9.733   2.774   6.307
13908TIP3    H141609   9.658   2.831   6.335
13908TIP3    H241610   9.687   2.721   6.239
13909TIP3   OH241611   9.383   2.407   4.857
13909TIP3    H141612   9.426   2.322   4.837
13909TIP3    H241613   9.435   2.467   4.800
13910TIP3   OH241614   7.788   2.252   5.628
13910TIP3    H141615   7.695   2.250   5.656
13910TIP3    H241616   7.785   2.311   5.550
13911TIP3   OH241617   8.948   3.957   5.134
13911TIP3    H141618   8.996   3.942   5.050
13911TIP3    H241619   9.003   4.024   5.177
13912TIP3   OH241620   8.008   2.332   6.443
13912TIP3    H141621   7.956   2.329   6.525
13912TIP3    H241622   7.942   2.371   6.382
13913TIP3   OH241623   8.051   3.751   6.521
13913TIP3    H141624   7.956   3.735   6.502
13913TIP3    H241625   8.053   3.741   6.617
13914TIP3   OH241626   8.226   3.793   6.068
13914TIP3    H141627   8.178   3.869   6.029
13914TIP3    H241628   8.312   3.807   6.024
13915TIP3   OH241629   8.680   4.037   6.213
13915TIP3    H141630   8.721   4.065   6.296
13915TIP3    H241631   8.736   4.087   6.150
13916TIP3   OH241632   8.846   4.192   6.058
13916TIP3    H141633   8.934   4.153   6.046
13916TIP3    H241634   8.857   4.239   6.143
13917TIP3   OH241635   9.634   2.551   6.166
13917TIP3    H141636   9.547   2.556   6.123
13917TIP3    H241637   9.664   2.463   6.139
13918TIP3   OH241638   7.903   4.053   6.091
13918TIP3    H141639   7.812   4.085   6.071
13918TIP3    H241640   7.911   4.080   6.183
13919TIP3   OH241641   8.140   4.032   5.952
13919TIP3    H141642   8.053   4.043   5.996
13919TIP3    H241643   8.119   4.060   5.861
13920TIP3   OH241644   8.564   4.060   5.749
13920TIP3    H141645   8.494   4.076   5.683
13920TIP3    H241646   8.575   4.149   5.788
13921TIP3   OH241647   8.833   3.992   5.793
13921TIP3    H141648   8.739   4.013   5.777
13921TIP3    H241649   8.877   4.072   5.760
13922TIP3   OH241650   9.039   4.190   5.712
13922TIP3    H141651   9.025   4.274   5.664
13922TIP3    H241652   9.065   4.129   5.640
13923TIP3   OH241653   7.814   3.845   5.837
13923TIP3    H141654   7.841   3.818   5.927
13923TIP3    H241655   7.884   3.801   5.785
13924TIP3   OH241656   8.007   3.716   5.694
13924TIP3    H141657   8.023   3.632   5.742
13924TIP3    H241658   8.097   3.752   5.686
13925TIP3   OH241659   8.275   3.814   5.698
13925TIP3    H141660   8.304   3.722   5.680
13925TIP3    H241661   8.321   3.829   5.782
13926TIP3   OH241662   8.851   2.467   5.785
13926TIP3    H141663   8.807   2.396   5.835
13926TIP3    H241664   8.922   2.420   5.739
13927TIP3   OH241665   9.371   2.352   5.713
13927TIP3    H141666   9.403   2.401   5.634
13927TIP3    H241667   9.274   2.362   5.703
13928TIP3   OH241668   9.460   2.444   5.474
13928TIP3    H141669   9.542   2.401   5.442
13928TIP3    H241670   9.483   2.539   5.462
13929TIP3   OH241671   8.097   2.175   5.800
13929TIP3    H141672   8.005   2.142   5.801
13929TIP3    H241673   8.146   2.089   5.796
13930TIP3   OH241674   7.884   2.045   5.448
13930TIP3    H141675   7.915   2.102   5.375
13930TIP3    H241676   7.857   2.111   5.515
13931TIP3   OH241677   8.543   2.206   5.680
13931TIP3    H141678   8.599   2.256   5.619
13931TIP3    H241679   8.565   2.247   5.765
13932TIP3   OH241680   9.086   2.354   5.666
13932TIP3    H141681   9.093   2.316   5.577
13932TIP3    H241682   9.074   2.273   5.721
13933TIP3   OH241683   9.110   2.283   5.231
13933TIP3    H141684   9.024   2.326   5.246
13933TIP3    H241685   9.095   2.196   5.274
13934TIP3   OH241686   7.587   3.615   5.249
13934TIP3    H141687   7.506   3.587   5.202
13934TIP3    H241688   7.615   3.688   5.193
13935TIP3   OH241689   8.002   2.203   5.211
13935TIP3    H141690   8.051   2.141   5.154
13935TIP3    H241691   8.075   2.258   5.247
13936TIP3   OH241692   8.513   2.380   5.309
13936TIP3    H141693   8.573   2.333   5.369
13936TIP3    H241694   8.535   2.473   5.335
13937TIP3   OH241695   8.386   3.803   4.820
13937TIP3    H141696   8.468   3.816   4.768
13937TIP3    H241697   8.338   3.743   4.760
13938TIP3   OH241698   9.094   3.922   4.902
13938TIP3    H141699   9.092   3.825   4.886
13938TIP3    H241700   9.052   3.955   4.819
13939TIP3   OH241701   8.305   2.455   6.690
13939TIP3    H141702   8.270   2.385   6.748
13939TIP3    H241703   8.399   2.456   6.717
13940TIP3   OH241704   8.554   2.453   6.810
13940TIP3    H141705   8.639   2.431   6.769
13940TIP3    H241706   8.543   2.381   6.875
13941TIP3   OH241707   9.377   2.509   6.601
13941TIP3    H141708   9.401   2.483   6.692
13941TIP3    H241709   9.464   2.510   6.556
13942TIP3   OH241710   9.323   4.063   6.085
13942TIP3    H141711   9.240   4.031   6.045
13942TIP3    H241712   9.302   4.159   6.091
13943TIP3   OH241713   9.539   2.947   5.130
13943TIP3    H141714   9.473   3.019   5.132
13943TIP3    H241715   9.492   2.882   5.075
13944TIP3   OH241716   9.600   3.241   5.285
13944TIP3    H141717   9.631   3.154   5.311
13944TIP3    H241718   9.628   3.244   5.192
13945TIP3   OH241719   9.451   3.473   4.863
13945TIP3    H141720   9.421   3.484   4.772
13945TIP3    H241721   9.480   3.564   4.885
13946TIP3   OH241722   9.641   3.581   5.774
13946TIP3    H141723   9.568   3.555   5.715
13946TIP3    H241724   9.674   3.496   5.810
13947TIP3   OH241725   9.501   3.792   5.426
13947TIP3    H141726   9.597   3.806   5.424
13947TIP3    H241727   9.473   3.874   5.471
13948TIP3   OH241728   9.640   4.011   4.965
13948TIP3    H141729   9.690   4.006   5.048
13948TIP3    H241730   9.587   3.929   4.968
13949TIP3   OH241731   9.788   3.806   5.793
13949TIP3    H141732   9.806   3.798   5.888
13949TIP3    H241733   9.725   3.732   5.780
13950TIP3   OH241734   9.557   2.685   5.398
13950TIP3    H141735   9.621   2.741   5.445
13950TIP3    H241736   9.558   2.722   5.309
13951TIP3   OH241737   9.745   3.373   5.926
13951TIP3    H141738   9.753   3.344   6.019
13951TIP3    H241739   9.672   3.315   5.896
13952TIP3   OH241740   9.523   3.139   4.615
13952TIP3    H141741   9.593   3.136   4.683
13952TIP3    H241742   9.444   3.124   4.672
13953TIP3   OH241743   9.688   3.979   5.571
13953TIP3    H141744   9.725   3.916   5.635
13953TIP3    H241745   9.709   4.064   5.613
13954TIP3   OH241746   9.515   3.739   4.920
13954TIP3    H141747   9.441   3.765   4.976
13954TIP3    H241748   9.490   3.783   4.835
13955TIP3   OH241749   9.672   4.278   5.988
13955TIP3    H141750   9.762   4.265   6.022
13955TIP3    H241751   9.641   4.186   5.983
13956TIP3   OH241752   9.806   3.717   6.177
13956TIP3    H141753   9.831   3.632   6.217
13956TIP3    H241754   9.723   3.696   6.130
13957TIP3   OH241755   9.399   3.485   4.567
13957TIP3    H141756   9.493   3.462   4.571
13957TIP3    H241757   9.363   3.409   4.515
13958TIP3   OH241758   9.294   4.096   4.979
13958TIP3    H141759   9.228   4.034   4.941
13958TIP3    H241760   9.340   4.038   5.043
13959TIP3   OH241761   9.427   3.944   5.168
13959TIP3    H141762   9.412   3.874   5.233
13959TIP3    H241763   9.481   4.006   5.221
13960TIP3   OH241764   9.655   3.329   5.541
13960TIP3    H141765   9.624   3.310   5.449
13960TIP3    H241766   9.724   3.395   5.524
13961TIP3   OH241767   9.820   3.026   6.188
13961TIP3    H141768   9.910   3.061   6.201
13961TIP3    H241769   9.817   2.952   6.251
13962TIP3   OH241770   9.585   3.029   5.588
13962TIP3    H141771   9.656   2.963   5.591
13962TIP3    H241772   9.628   3.112   5.612
13963TIP3   OH241773   9.545   2.566   5.100
13963TIP3    H141774   9.451   2.549   5.118
13963TIP3    H241775   9.544   2.580   5.004
13964TIP3   OH241776   9.841   4.016   6.028
13964TIP3    H141777   9.752   3.997   5.994
13964TIP3    H241778   9.837   3.983   6.118
13965TIP3   OH241779   9.689   4.296   5.585
13965TIP3    H141780   9.603   4.334   5.556
13965TIP3    H241781   9.708   4.355   5.660
13966TIP3   OH241782   9.937   4.278   5.444
13966TIP3    H141783   9.848   4.288   5.481
13966TIP3    H241784   9.928   4.320   5.356
13967TIP3   OH241785   9.612   4.098   5.319
13967TIP3    H141786   9.638   4.079   5.411
13967TIP3    H241787   9.691   4.064   5.272
13968TIP3   OH241788   9.820   3.986   5.172
13968TIP3    H141789   9.848   3.893   5.165
13968TIP3    H241790   9.908   4.030   5.180
13969TIP3   OH241791   9.409   3.870   4.712
13969TIP3    H141792   9.325   3.837   4.674
13969TIP3    H241793   9.396   3.965   4.695
13970TIP3   OH241794   9.499   3.924   4.367
13970TIP3    H141795   9.452   3.953   4.447
13970TIP3    H241796   9.541   3.843   4.398
13971TIP3   OH241797   1.241   3.974   7.057
13971TIP3    H141798   1.212   4.065   7.035
13971TIP3    H241799   1.163   3.924   7.027
13972TIP3   OH241800   1.246   3.973   7.441
13972TIP3    H141801   1.273   3.939   7.528
13972TIP3    H241802   1.197   3.898   7.403
13973TIP3   OH241803   0.537   3.865   7.796
13973TIP3    H141804   0.562   3.795   7.859
13973TIP3    H241805   0.613   3.924   7.803
13974TIP3   OH241806   1.482   4.274   7.124
13974TIP3    H141807   1.470   4.199   7.184
13974TIP3    H241808   1.520   4.342   7.181
13975TIP3   OH241809   0.523   4.275   7.531
13975TIP3    H141810   0.503   4.179   7.534
13975TIP3    H241811   0.619   4.271   7.535
13976TIP3   OH241812   0.182   3.471   7.320
13976TIP3    H141813   0.173   3.566   7.338
13976TIP3    H241814   0.164   3.432   7.407
13977TIP3   OH241815   0.291   3.771   7.488
13977TIP3    H141816   0.337   3.693   7.524
13977TIP3    H241817   0.337   3.788   7.406
13978TIP3   OH241818   1.135   4.709   7.169
13978TIP3    H141819   1.160   4.657   7.089
13978TIP3    H241820   1.220   4.709   7.215
13979TIP3   OH241821   1.038   4.203   7.487
13979TIP3    H141822   1.062   4.125   7.435
13979TIP3    H241823   1.128   4.234   7.512
13980TIP3   OH241824   2.053   3.516   7.486
13980TIP3    H141825   2.082   3.599   7.529
13980TIP3    H241826   2.074   3.535   7.393
13981TIP3   OH241827   1.454   3.699   7.520
13981TIP3    H141828   1.494   3.612   7.540
13981TIP3    H241829   1.420   3.683   7.430
13982TIP3   OH241830   0.792   3.357   7.486
13982TIP3    H141831   0.770   3.430   7.424
13982TIP3    H241832   0.743   3.284   7.443
13983TIP3   OH241833   1.484   3.448   7.108
13983TIP3    H141834   1.556   3.433   7.173
13983TIP3    H241835   1.535   3.484   7.033
13984TIP3   OH241836   0.423   3.555   7.586
13984TIP3    H141837   0.500   3.539   7.644
13984TIP3    H241838   0.445   3.498   7.510
13985TIP3   OH241839   0.863   3.757   7.383
13985TIP3    H141840   0.956   3.730   7.399
13985TIP3    H241841   0.823   3.674   7.352
13986TIP3   OH241842   2.126   3.724   7.656
13986TIP3    H141843   2.042   3.771   7.637
13986TIP3    H241844   2.142   3.754   7.747
13987TIP3   OH241845   0.786   3.340   7.920
13987TIP3    H141846   0.727   3.378   7.852
13987TIP3    H241847   0.734   3.359   8.001
13988TIP3   OH241848   1.139   4.197   6.922
13988TIP3    H141849   1.086   4.167   6.847
13988TIP3    H241850   1.087   4.274   6.952
13989TIP3   OH241851   0.897   4.115   7.714
13989TIP3    H141852   0.831   4.177   7.754
13989TIP3    H241853   0.934   4.169   7.642
13990TIP3   OH241854   1.694   3.451   7.281
13990TIP3    H141855   1.678   3.406   7.365
13990TIP3    H241856   1.746   3.529   7.309
13991TIP3   OH241857   0.657   3.455   7.706
13991TIP3    H141858   0.718   3.529   7.728
13991TIP3    H241859   0.705   3.415   7.630
13992TIP3   OH241860   0.724   4.303   7.810
13992TIP3    H141861   0.698   4.391   7.776
13992TIP3    H241862   0.647   4.286   7.869
13993TIP3   OH241863   0.175   4.028   6.986
13993TIP3    H141864   0.085   4.052   6.958
13993TIP3    H241865   0.178   4.067   7.076
13994TIP3   OH241866   1.538   4.519   7.299
13994TIP3    H141867   1.445   4.518   7.325
13994TIP3    H241868   1.544   4.602   7.248
13995TIP3   OH241869   1.846   3.416   7.652
13995TIP3    H141870   1.758   3.444   7.622
13995TIP3    H241871   1.904   3.448   7.581
13996TIP3   OH241872   1.144   3.060   7.637
13996TIP3    H141873   1.126   2.965   7.650
13996TIP3    H241874   1.066   3.099   7.682
13997TIP3   OH241875   1.255   4.568   6.964
13997TIP3    H141876   1.302   4.483   6.945
13997TIP3    H241877   1.318   4.629   6.919
13998TIP3   OH241878   1.396   4.350   6.871
13998TIP3    H141879   1.347   4.274   6.838
13998TIP3    H241880   1.434   4.313   6.955
13999TIP3   OH241881   1.778   4.429   7.633
13999TIP3    H141882   1.769   4.351   7.574
13999TIP3    H241883   1.765   4.503   7.571
14000TIP3   OH241884   1.068   3.822   6.892
14000TIP3    H141885   0.976   3.845   6.874
14000TIP3    H241886   1.107   3.825   6.803
14001TIP3   OH241887   1.036   3.615   6.605
14001TIP3    H141888   1.108   3.664   6.650
14001TIP3    H241889   1.087   3.546   6.560
14002TIP3   OH241890   1.975   4.065   7.477
14002TIP3    H141891   1.892   4.117   7.483
14002TIP3    H241892   2.005   4.090   7.387
14003TIP3   OH241893   1.420   3.907   6.861
14003TIP3    H141894   1.363   3.931   6.938
14003TIP3    H241895   1.503   3.881   6.907
14004TIP3   OH241896   1.655   3.943   7.774
14004TIP3    H141897   1.651   4.027   7.824
14004TIP3    H241898   1.567   3.946   7.730
14005TIP3   OH241899   0.648   3.904   7.281
14005TIP3    H141900   0.600   3.846   7.219
14005TIP3    H241901   0.726   3.850   7.303
14006TIP3   OH241902   0.796   4.334   7.408
14006TIP3    H141903   0.758   4.282   7.334
14006TIP3    H241904   0.873   4.278   7.432
14007TIP3   OH241905   0.804   3.867   7.636
14007TIP3    H141906   0.821   3.852   7.541
14007TIP3    H241907   0.834   3.959   7.650
14008TIP3   OH241908   1.274   4.541   7.449
14008TIP3    H141909   1.323   4.565   7.530
14008TIP3    H241910   1.269   4.444   7.463
14009TIP3   OH241911   0.926   4.430   7.952
14009TIP3    H141912   0.868   4.493   8.001
14009TIP3    H241913   0.859   4.377   7.905
14010TIP3   OH241914   1.264   3.760   6.688
14010TIP3    H141915   1.319   3.823   6.740
14010TIP3    H241916   1.289   3.786   6.595
14011TIP3   OH241917   0.692   3.989   8.052
14011TIP3    H141918   0.693   4.078   8.093
14011TIP3    H241919   0.598   3.965   8.066
14012TIP3   OH241920   1.002   4.442   6.973
14012TIP3    H141921   1.078   4.501   6.972
14012TIP3    H241922   0.938   4.486   6.916
14013TIP3   OH241923   0.724   4.597   8.045
14013TIP3    H141924   0.679   4.588   7.960
14013TIP3    H241925   0.656   4.562   8.107
14014TIP3   OH241926   1.775   3.003   6.736
14014TIP3    H141927   1.694   3.024   6.787
14014TIP3    H241928   1.788   3.087   6.687
14015TIP3   OH241929   0.505   3.743   7.112
14015TIP3    H141930   0.466   3.789   7.034
14015TIP3    H241931   0.476   3.653   7.094
14016TIP3   OH241932   1.574   4.371   6.283
14016TIP3    H141933   1.582   4.468   6.270
14016TIP3    H241934   1.667   4.342   6.270
14017TIP3   OH241935   0.300   4.145   7.983
14017TIP3    H141936   0.247   4.108   7.911
14017TIP3    H241937   0.329   4.063   8.027
14018TIP3   OH241938   2.019   4.773   7.680
14018TIP3    H141939   2.016   4.677   7.696
14018TIP3    H241940   1.936   4.800   7.726
14019TIP3   OH241941   1.130   4.556   7.818
14019TIP3    H141942   1.123   4.650   7.845
14019TIP3    H241943   1.052   4.518   7.865
14020TIP3   OH241944   0.890   4.692   6.765
14020TIP3    H141945   0.836   4.665   6.689
14020TIP3    H241946   0.851   4.778   6.790
14021TIP3   OH241947   0.362   4.522   7.116
14021TIP3    H141948   0.367   4.493   7.209
14021TIP3    H241949   0.273   4.492   7.088
14022TIP3   OH241950   1.085   4.593   6.401
14022TIP3    H141951   1.142   4.522   6.366
14022TIP3    H241952   1.117   4.601   6.493
14023TIP3   OH241953   1.138   4.638   6.671
14023TIP3    H141954   1.049   4.649   6.710
14023TIP3    H241955   1.184   4.590   6.741
14024TIP3   OH241956   1.907   3.904   7.954
14024TIP3    H141957   1.825   3.916   7.904
14024TIP3    H241958   1.922   3.808   7.943
14025TIP3   OH241959   0.514   4.314   7.977
14025TIP3    H141960   0.554   4.308   8.066
14025TIP3    H241961   0.438   4.252   7.985
14026TIP3   OH241962   0.905   3.135   7.764
14026TIP3    H141963   0.816   3.103   7.738
14026TIP3    H241964   0.878   3.218   7.809
14027TIP3   OH241965   1.436   3.251   7.958
14027TIP3    H141966   1.504   3.223   8.023
14027TIP3    H241967   1.352   3.231   8.003
14028TIP3   OH241968   1.677   3.681   7.878
14028TIP3    H141969   1.626   3.677   7.961
14028TIP3    H241970   1.651   3.767   7.840
14029TIP3   OH241971   1.336   3.807   6.430
14029TIP3    H141972   1.303   3.782   6.342
14029TIP3    H241973   1.416   3.857   6.407
14030TIP3   OH241974   1.052   3.182   6.735
14030TIP3    H141975   1.015   3.181   6.825
14030TIP3    H241976   1.009   3.101   6.700
14031TIP3   OH241977   0.840   3.647   7.785
14031TIP3    H141978   0.785   3.669   7.864
14031TIP3    H241979   0.826   3.728   7.731
14032TIP3   OH241980   0.721   3.536   7.296
14032TIP3    H141981   0.625   3.518   7.310
14032TIP3    H241982   0.732   3.497   7.206
14033TIP3   OH241983   1.210   3.627   7.025
14033TIP3    H141984   1.156   3.697   6.983
14033TIP3    H241985   1.262   3.594   6.949
14034TIP3   OH241986   1.384   3.900   8.109
14034TIP3    H141987   1.360   3.828   8.172
14034TIP3    H241988   1.477   3.914   8.132
14035TIP3   OH241989   1.368   3.652   7.261
14035TIP3    H141990   1.305   3.681   7.192
14035TIP3    H241991   1.400   3.570   7.218
14036TIP3   OH241992   0.660   3.681   7.989
14036TIP3    H141993   0.657   3.748   8.058
14036TIP3    H241994   0.641   3.599   8.038
14037TIP3   OH241995   0.701   3.155   6.701
14037TIP3    H141996   0.692   3.155   6.798
14037TIP3    H241997   0.629   3.217   6.677
14038TIP3   OH241998   0.240   3.218   7.541
14038TIP3    H141999   0.299   3.241   7.615
14038TIP3    H242000   0.290   3.147   7.499
14039TIP3   OH242001   0.240   3.213   7.108
14039TIP3    H142002   0.269   3.232   7.017
14039TIP3    H242003   0.180   3.288   7.122
14040TIP3   OH242004   1.381   3.898   7.685
14040TIP3    H142005   1.412   3.826   7.626
14040TIP3    H242006   1.349   3.845   7.762
14041TIP3   OH242007   1.048   3.355   7.357
14041TIP3    H142008   0.963   3.357   7.406
14041TIP3    H242009   1.112   3.359   7.430
14042TIP3   OH242010   0.475   3.414   7.356
14042TIP3    H142011   0.384   3.410   7.321
14042TIP3    H242012   0.507   3.323   7.341
14043TIP3   OH242013   0.750   3.411   7.053
14043TIP3    H142014   0.841   3.432   7.025
14043TIP3    H242015   0.697   3.433   6.973
14044TIP3   OH242016   1.538   3.434   7.558
14044TIP3    H142017   1.505   3.447   7.650
14044TIP3    H242018   1.469   3.374   7.523
14045TIP3   OH242019   0.593   3.431   6.833
14045TIP3    H142020   0.522   3.398   6.776
14045TIP3    H242021   0.648   3.477   6.766
14046TIP3   OH242022   1.709   5.124   7.779
14046TIP3    H142023   1.706   5.150   7.685
14046TIP3    H242024   1.786   5.174   7.810
14047TIP3   OH242025   0.676   4.229   8.199
14047TIP3    H142026   0.752   4.264   8.248
14047TIP3    H242027   0.606   4.238   8.266
14048TIP3   OH242028   1.130   3.688   7.457
14048TIP3    H142029   1.202   3.646   7.407
14048TIP3    H242030   1.136   3.645   7.544
14049TIP3   OH242031   0.652   3.176   7.336
14049TIP3    H142032   0.616   3.097   7.380
14049TIP3    H242033   0.691   3.138   7.256
14050TIP3   OH242034   1.107   3.585   7.743
14050TIP3    H142035   1.015   3.618   7.757
14050TIP3    H242036   1.161   3.647   7.794
14051TIP3   OH242037   1.743   4.212   7.467
14051TIP3    H142038   1.767   4.261   7.386
14051TIP3    H242039   1.658   4.169   7.442
14052TIP3   OH242040   1.300   3.288   6.699
14052TIP3    H142041   1.204   3.269   6.710
14052TIP3    H242042   1.308   3.382   6.726
14053TIP3   OH242043   1.258   4.304   7.828
14053TIP3    H142044   1.264   4.264   7.916
14053TIP3    H242045   1.203   4.383   7.844
14054TIP3   OH242046   1.370   3.533   6.806
14054TIP3    H142047   1.466   3.541   6.821
14054TIP3    H242048   1.349   3.614   6.755
14055TIP3   OH242049   0.548   4.007   7.518
14055TIP3    H142050   0.578   3.969   7.433
14055TIP3    H242051   0.555   3.932   7.579
14056TIP3   OH242052   0.972   4.120   6.677
14056TIP3    H142053   0.938   4.212   6.675
14056TIP3    H242054   0.892   4.073   6.704
14057TIP3   OH242055   0.442   3.913   8.128
14057TIP3    H142056   0.446   3.909   8.225
14057TIP3    H242057   0.351   3.883   8.109
14058TIP3   OH242058   1.140   4.032   8.149
14058TIP3    H142059   1.076   3.974   8.105
14058TIP3    H242060   1.225   3.996   8.117
14059TIP3   OH242061   1.386   4.589   7.705
14059TIP3    H142062   1.299   4.562   7.741
14059TIP3    H242063   1.428   4.619   7.789
14060TIP3   OH242064   1.812   3.626   6.640
14060TIP3    H142065   1.750   3.581   6.578
14060TIP3    H242066   1.808   3.715   6.600
14061TIP3   OH242067   2.029   4.482   7.723
14061TIP3    H142068   1.932   4.477   7.714
14061TIP3    H242069   2.055   4.453   7.632
14062TIP3   OH242070   1.515   4.444   6.550
14062TIP3    H142071   1.485   4.375   6.611
14062TIP3    H242072   1.523   4.396   6.466
14063TIP3   OH242073   1.507   4.075   7.384
14063TIP3    H142074   1.414   4.047   7.399
14063TIP3    H242075   1.542   3.995   7.341
14064TIP3   OH242076   0.634   4.317   7.153
14064TIP3    H142077   0.636   4.383   7.080
14064TIP3    H242078   0.547   4.277   7.140
14065TIP3   OH242079   0.197   3.606   6.851
14065TIP3    H142080   0.263   3.678   6.858
14065TIP3    H242081   0.130   3.641   6.913
14066TIP3   OH242082   0.810   4.091   7.144
14066TIP3    H142083   0.752   4.165   7.120
14066TIP3    H242084   0.747   4.025   7.178
14067TIP3   OH242085   0.591   4.542   6.981
14067TIP3    H142086   0.503   4.544   7.025
14067TIP3    H242087   0.612   4.638   6.980
14068TIP3   OH242088   1.298   4.283   7.558
14068TIP3    H142089   1.288   4.284   7.657
14068TIP3    H242090   1.371   4.221   7.548
14069TIP3   OH242091   1.268   4.175   6.448
14069TIP3    H142092   1.318   4.148   6.528
14069TIP3    H242093   1.179   4.142   6.470
14070TIP3   OH242094   1.549   4.811   7.620
14070TIP3    H142095   1.472   4.751   7.629
14070TIP3    H242096   1.523   4.872   7.547
14071TIP3   OH242097   1.607   4.648   6.271
14071TIP3    H142098   1.643   4.722   6.219
14071TIP3    H242099   1.526   4.690   6.304
14072TIP3   OH242100   0.635   3.418   8.143
14072TIP3    H142101   0.543   3.430   8.167
14072TIP3    H242102   0.666   3.356   8.211
14073TIP3   OH242103   1.428   4.105   6.663
14073TIP3    H142104   1.417   4.041   6.737
14073TIP3    H242105   1.526   4.102   6.654
14074TIP3   OH242106   0.391   4.539   7.761
14074TIP3    H142107   0.405   4.443   7.771
14074TIP3    H242108   0.357   4.561   7.849
14075TIP3   OH242109   0.643   4.145   6.453
14075TIP3    H142110   0.662   4.061   6.407
14075TIP3    H242111   0.623   4.108   6.542
14076TIP3   OH242112   0.346   3.830   6.902
14076TIP3    H142113   0.286   3.903   6.930
14076TIP3    H242114   0.407   3.877   6.841
14077TIP3   OH242115   1.466   3.486   7.817
14077TIP3    H142116   1.545   3.525   7.859
14077TIP3    H242117   1.450   3.406   7.871
14078TIP3   OH242118   1.348   3.236   6.982
14078TIP3    H142119   1.330   3.260   6.890
14078TIP3    H242120   1.384   3.319   7.019
14079TIP3   OH242121   0.850   4.360   6.674
14079TIP3    H142122   0.756   4.362   6.705
14079TIP3    H242123   0.847   4.432   6.609
14080TIP3   OH242124   1.039   3.416   7.085
14080TIP3    H142125   1.099   3.491   7.069
14080TIP3    H242126   1.038   3.411   7.182
14081TIP3   OH242127   1.303   3.737   7.891
14081TIP3    H142128   1.322   3.791   7.970
14081TIP3    H242129   1.356   3.658   7.906
14082TIP3   OH242130   1.177   3.144   7.188
14082TIP3    H142131   1.162   3.224   7.243
14082TIP3    H242132   1.238   3.180   7.120
14083TIP3   OH242133   0.592   4.433   6.727
14083TIP3    H142134   0.557   4.506   6.671
14083TIP3    H242135   0.585   4.471   6.817
14084TIP3   OH242136   0.689   3.143   6.979
14084TIP3    H142137   0.684   3.236   7.009
14084TIP3    H242138   0.786   3.130   6.986
14085TIP3   OH242139   1.943   3.636   7.874
14085TIP3    H142140   1.845   3.636   7.882
14085TIP3    H242141   1.953   3.596   7.787
14086TIP3   OH242142   1.594   3.832   7.262
14086TIP3    H142143   1.517   3.773   7.273
14086TIP3    H242144   1.664   3.784   7.310
14087TIP3   OH242145   0.312   4.089   6.709
14087TIP3    H142146   0.358   4.163   6.750
14087TIP3    H242147   0.391   4.034   6.688
14088TIP3   OH242148   0.245   3.333   6.863
14088TIP3    H142149   0.248   3.430   6.868
14088TIP3    H242150   0.168   3.319   6.806
14089TIP3   OH242151   1.559   4.780   7.206
14089TIP3    H142152   1.520   4.832   7.132
14089TIP3    H242153   1.654   4.802   7.191
14090TIP3   OH242154   0.644   3.051   7.738
14090TIP3    H142155   0.608   3.021   7.651
14090TIP3    H242156   0.625   2.973   7.795
14091TIP3   OH242157   0.201   4.248   7.159
14091TIP3    H142158   0.116   4.289   7.140
14091TIP3    H242159   0.245   4.262   7.074
14092TIP3   OH242160   0.811   4.789   8.232
14092TIP3    H142161   0.904   4.765   8.244
14092TIP3    H242162   0.785   4.726   8.163
14093TIP3   OH242163   0.794   4.353   6.364
14093TIP3    H142164   0.735   4.286   6.406
14093TIP3    H242165   0.868   4.296   6.338
14094TIP3   OH242166   1.464   4.675   7.956
14094TIP3    H142167   1.449   4.612   8.030
14094TIP3    H242168   1.534   4.733   7.993
14095TIP3   OH242169   1.234   4.397   6.276
14095TIP3    H142170   1.272   4.329   6.335
14095TIP3    H242171   1.292   4.393   6.197
14096TIP3   OH242172   0.481   4.208   8.396
14096TIP3    H142173   0.515   4.117   8.397
14096TIP3    H242174   0.387   4.190   8.379
14097TIP3   OH242175   1.074   4.308   8.161
14097TIP3    H142176   1.028   4.322   8.076
14097TIP3    H242177   1.103   4.214   8.155
14098TIP3   OH242178   0.959   4.075   6.393
14098TIP3    H142179   0.945   4.081   6.489
14098TIP3    H242180   0.947   3.978   6.379
14099TIP3   OH242181   1.568   4.309   7.771
14099TIP3    H142182   1.637   4.362   7.727
14099TIP3    H242183   1.489   4.365   7.761
14100TIP3   OH242184   0.571   3.942   8.390
14100TIP3    H142185   0.650   3.899   8.355
14100TIP3    H242186   0.602   3.977   8.476
14101TIP3   OH242187   0.928   3.847   8.040
14101TIP3    H142188   0.844   3.898   8.038
14101TIP3    H242189   0.972   3.878   7.958
14102TIP3   OH242190   0.756   3.533   6.643
14102TIP3    H142191   0.718   3.564   6.559
14102TIP3    H242192   0.844   3.576   6.642
14103TIP3   OH242193   1.437   4.244   8.168
14103TIP3    H142194   1.517   4.218   8.122
14103TIP3    H242195   1.430   4.177   8.238
14104TIP3   OH242196   1.574   3.902   6.309
14104TIP3    H142197   1.550   3.855   6.226
14104TIP3    H242198   1.540   3.991   6.287
14105TIP3   OH242199   1.045   3.630   8.158
14105TIP3    H142200   1.040   3.551   8.101
14105TIP3    H242201   1.000   3.698   8.103
14106TIP3   OH242202   1.045   3.414   7.966
14106TIP3    H142203   1.071   3.457   7.882
14106TIP3    H242204   0.951   3.393   7.949
14107TIP3   OH242205   1.076   3.955   7.842
14107TIP3    H142206   1.153   3.958   7.785
14107TIP3    H242207   1.014   4.017   7.797
14108TIP3   OH242208   1.654   3.918   8.222
14108TIP3    H142209   1.703   3.834   8.228
14108TIP3    H242210   1.721   3.978   8.186
14109TIP3   OH242211   1.697   4.169   7.960
14109TIP3    H142212   1.638   4.222   7.900
14109TIP3    H242213   1.784   4.190   7.919
14110TIP3   OH242214   0.922   3.740   8.392
14110TIP3    H142215   0.853   3.672   8.404
14110TIP3    H242216   0.954   3.717   8.302
14111TIP3   OH242217   1.176   3.180   8.036
14111TIP3    H142218   1.128   3.262   8.012
14111TIP3    H242219   1.107   3.112   8.023
14112TIP3   OH242220   1.303   3.682   8.251
14112TIP3    H142221   1.285   3.671   8.346
14112TIP3    H242222   1.214   3.659   8.216
14113TIP3   OH242223   1.541   3.632   8.106
14113TIP3    H142224   1.465   3.635   8.167
14113TIP3    H242225   1.614   3.602   8.164
14114TIP3   OH242226   1.773   3.575   8.257
14114TIP3    H142227   1.784   3.479   8.274
14114TIP3    H242228   1.768   3.613   8.347
14115TIP3   OH242229   0.755   3.527   8.437
14115TIP3    H142230   0.761   3.436   8.404
14115TIP3    H242231   0.798   3.515   8.525
14116TIP3   OH242232   1.270   3.187   8.294
14116TIP3    H142233   1.337   3.117   8.284
14116TIP3    H242234   1.229   3.185   8.205
14117TIP3   OH242235   1.337   3.406   8.447
14117TIP3    H142236   1.313   3.335   8.384
14117TIP3    H242237   1.259   3.466   8.442
14118TIP3   OH242238   0.558   4.646   6.552
14118TIP3    H142239   0.652   4.632   6.531
14118TIP3    H242240   0.529   4.690   6.470
14119TIP3   OH242241   0.049   4.035   6.701
14119TIP3    H142242   0.145   4.047   6.723
14119TIP3    H242243   0.044   3.937   6.696
14120TIP3   OH242244   1.813   4.875   7.169
14120TIP3    H142245   1.838   4.911   7.257
14120TIP3    H242246   1.872   4.923   7.110
14121TIP3   OH242247   1.846   4.899   7.449
14121TIP3    H142248   1.806   4.810   7.446
14121TIP3    H242249   1.922   4.881   7.507
14122TIP3   OH242250   1.891   4.574   8.023
14122TIP3    H142251   1.818   4.584   8.088
14122TIP3    H242252   1.932   4.663   8.027
14123TIP3   OH242253   1.709   4.087   6.642
14123TIP3    H142254   1.777   4.152   6.615
14123TIP3    H242255   1.751   4.048   6.722
14124TIP3   OH242256   1.835   3.955   6.847
14124TIP3    H142257   1.769   3.913   6.905
14124TIP3    H242258   1.900   3.992   6.910
14125TIP3   OH242259   1.887   4.347   7.275
14125TIP3    H142260   1.942   4.282   7.229
14125TIP3    H242261   1.888   4.423   7.213
14126TIP3   OH242262   1.723   4.647   7.473
14126TIP3    H142263   1.656   4.696   7.525
14126TIP3    H242264   1.668   4.601   7.406
14127TIP3   OH242265   1.773   3.863   6.493
14127TIP3    H142266   1.701   3.866   6.425
14127TIP3    H242267   1.745   3.939   6.548
14128TIP3   OH242268   1.646   3.535   6.445
14128TIP3    H142269   1.598   3.574   6.371
14128TIP3    H242270   1.621   3.440   6.436
14129TIP3   OH242271   1.649   3.812   6.993
14129TIP3    H142272   1.655   3.716   6.986
14129TIP3    H242273   1.635   3.826   7.089
14130TIP3   OH242274   0.278   3.930   7.715
14130TIP3    H142275   0.275   3.877   7.633
14130TIP3    H242276   0.367   3.907   7.748
14131TIP3   OH242277   1.938   4.237   7.850
14131TIP3    H142278   2.010   4.171   7.840
14131TIP3    H242279   1.966   4.307   7.789
14132TIP3   OH242280   2.122   4.041   7.864
14132TIP3    H142281   2.047   3.991   7.904
14132TIP3    H242282   2.195   3.977   7.879
14133TIP3   OH242283   1.588   3.269   6.431
14133TIP3    H142284   1.661   3.238   6.488
14133TIP3    H242285   1.513   3.212   6.456
14134TIP3   OH242286   1.646   3.529   6.888
14134TIP3    H142287   1.686   3.440   6.903
14134TIP3    H242288   1.704   3.561   6.817
14135TIP3   OH242289   1.806   3.700   7.383
14135TIP3    H142290   1.892   3.727   7.342
14135TIP3    H242291   1.820   3.738   7.472
14136TIP3   OH242292   1.876   3.846   7.615
14136TIP3    H142293   1.798   3.880   7.663
14136TIP3    H242294   1.908   3.927   7.569
14137TIP3   OH242295   0.482   3.546   8.423
14137TIP3    H142296   0.576   3.567   8.405
14137TIP3    H242297   0.492   3.481   8.492
14138TIP3   OH242298   2.328   3.438   8.171
14138TIP3    H142299   2.386   3.372   8.127
14138TIP3    H242300   2.298   3.491   8.094
14139TIP3   OH242301   1.754   3.278   6.925
14139TIP3    H142302   1.802   3.262   7.009
14139TIP3    H242303   1.693   3.202   6.923
14140TIP3   OH242304   0.450   3.252   7.726
14140TIP3    H142305   0.520   3.186   7.743
14140TIP3    H242306   0.499   3.335   7.738
14141TIP3   OH242307   0.298   3.553   7.843
14141TIP3    H142308   0.316   3.540   7.749
14141TIP3    H242309   0.248   3.635   7.844
14142TIP3   OH242310   2.197   3.576   7.977
14142TIP3    H142311   2.111   3.617   7.996
14142TIP3    H242312   2.168   3.504   7.917
14143TIP3   OH242313   1.834   3.212   6.559
14143TIP3    H142314   1.874   3.141   6.505
14143TIP3    H242315   1.901   3.283   6.553
14144TIP3   OH242316   0.234   3.025   7.299
14144TIP3    H142317   0.153   3.058   7.340
14144TIP3    H242318   0.247   3.093   7.228
14145TIP3   OH242319   1.401   4.745   6.824
14145TIP3    H142320   1.452   4.732   6.742
14145TIP3    H242321   1.453   4.815   6.869
14146TIP3   OH242322   0.457   3.127   8.149
14146TIP3    H142323   0.390   3.120   8.218
14146TIP3    H242324   0.406   3.165   8.076
14147TIP3   OH242325   0.533   4.514   8.218
14147TIP3    H142326   0.450   4.564   8.202
14147TIP3    H242327   0.530   4.505   8.315
14148TIP3   OH242328   0.689   4.568   7.757
14148TIP3    H142329   0.610   4.618   7.731
14148TIP3    H242330   0.760   4.630   7.737
14149TIP3   OH242331   1.122   4.825   7.892
14149TIP3    H142332   1.162   4.824   7.982
14149TIP3    H242333   1.192   4.874   7.843
14150TIP3   OH242334   1.311   4.969   7.755
14150TIP3    H142335   1.392   4.931   7.716
14150TIP3    H242336   1.351   5.034   7.817
14151TIP3   OH242337   2.097   3.339   7.854
14151TIP3    H142338   2.006   3.333   7.819
14151TIP3    H242339   2.128   3.246   7.843
14152TIP3   OH242340   0.593   4.810   7.635
14152TIP3    H142341   0.510   4.815   7.685
14152TIP3    H242342   0.567   4.855   7.552
14153TIP3   OH242343   1.504   4.976   7.407
14153TIP3    H142344   1.480   5.060   7.363
14153TIP3    H242345   1.519   4.917   7.330
14154TIP3   OH242346   0.319   4.663   7.514
14154TIP3    H142347   0.336   4.623   7.603
14154TIP3    H242348   0.367   4.596   7.459
14155TIP3   OH242349   0.465   4.482   7.374
14155TIP3    H142350   0.466   4.401   7.430
14155TIP3    H242351   0.553   4.475   7.334
14156TIP3   OH242352   0.811   4.606   7.409
14156TIP3    H142353   0.800   4.509   7.389
14156TIP3    H242354   0.733   4.618   7.466
14157TIP3   OH242355   1.307   3.256   7.480
14157TIP3    H142356   1.259   3.187   7.528
14157TIP3    H242357   1.374   3.206   7.430
14158TIP3   OH242358   1.825   3.134   7.378
14158TIP3    H142359   1.861   3.187   7.304
14158TIP3    H242360   1.729   3.152   7.372
14159TIP3   OH242361   1.920   3.234   7.142
14159TIP3    H142362   1.993   3.183   7.102
14159TIP3    H242363   1.952   3.326   7.128
14160TIP3   OH242364   0.550   2.962   7.488
14160TIP3    H142365   0.458   2.926   7.486
14160TIP3    H242366   0.600   2.878   7.485
14161TIP3   OH242367   0.354   2.827   7.146
14161TIP3    H142368   0.366   2.883   7.068
14161TIP3    H242369   0.313   2.891   7.208
14162TIP3   OH242370   0.998   2.991   7.370
14162TIP3    H142371   1.053   3.044   7.310
14162TIP3    H242372   1.010   3.036   7.454
14163TIP3   OH242373   1.543   3.142   7.353
14163TIP3    H142374   1.536   3.105   7.264
14163TIP3    H242375   1.529   3.062   7.409
14164TIP3   OH242376   1.571   3.066   6.916
14164TIP3    H142377   1.485   3.110   6.931
14164TIP3    H242378   1.554   2.980   6.962
14165TIP3   OH242379   0.455   2.991   6.900
14165TIP3    H142380   0.506   2.932   6.841
14165TIP3    H242381   0.526   3.047   6.938
14166TIP3   OH242382   0.967   3.167   6.999
14166TIP3    H142383   1.026   3.122   7.061
14166TIP3    H242384   0.986   3.261   7.023
14167TIP3   OH242385   0.824   4.590   6.497
14167TIP3    H142386   0.912   4.612   6.461
14167TIP3    H242387   0.801   4.515   6.439
14168TIP3   OH242388   1.546   4.711   6.591
14168TIP3    H142389   1.537   4.613   6.580
14168TIP3    H242390   1.500   4.743   6.511
14169TIP3   OH242391   0.757   3.248   8.378
14169TIP3    H142392   0.722   3.173   8.431
14169TIP3    H242393   0.850   3.247   8.409
14170TIP3   OH242394   1.009   3.235   8.500
14170TIP3    H142395   1.093   3.212   8.457
14170TIP3    H242396   0.996   3.161   8.561
14171TIP3   OH242397   0.147   4.438   6.598
14171TIP3    H142398   0.165   4.533   6.613
14171TIP3    H242399   0.232   4.402   6.563
14172TIP3   OH242400   1.833   3.303   8.287
14172TIP3    H142401   1.853   3.271   8.378
14172TIP3    H242402   1.921   3.299   8.244
14173TIP3   OH242403   1.774   4.857   7.781
14173TIP3    H142404   1.695   4.828   7.731
14173TIP3    H242405   1.756   4.953   7.786
14174TIP3   OH242406   3.037   4.226   6.546
14174TIP3    H142407   3.009   4.318   6.526
14174TIP3    H242408   2.960   4.177   6.513
14175TIP3   OH242409   3.036   4.227   6.928
14175TIP3    H142410   3.069   4.201   7.015
14175TIP3    H242411   2.995   4.145   6.896
14176TIP3   OH242412   2.335   4.122   7.293
14176TIP3    H142413   2.366   4.054   7.355
14176TIP3    H242414   2.413   4.178   7.285
14177TIP3   OH242415   3.279   4.530   6.609
14177TIP3    H142416   3.267   4.461   6.676
14177TIP3    H242417   3.311   4.605   6.662
14178TIP3   OH242418   2.307   4.532   7.015
14178TIP3    H142419   2.299   4.434   7.018
14178TIP3    H242420   2.404   4.541   7.011
14179TIP3   OH242421   2.014   3.735   6.801
14179TIP3    H142422   1.966   3.818   6.817
14179TIP3    H242423   1.944   3.681   6.761
14180TIP3   OH242424   2.072   4.022   6.975
14180TIP3    H142425   2.122   3.945   7.011
14180TIP3    H242426   2.133   4.054   6.907
14181TIP3   OH242427   2.931   4.994   6.625
14181TIP3    H142428   2.975   4.922   6.575
14181TIP3    H242429   2.922   4.954   6.713
14182TIP3   OH242430   2.835   4.453   6.976
14182TIP3    H142431   2.875   4.377   6.930
14182TIP3    H242432   2.918   4.499   7.000
14183TIP3   OH242433   3.849   3.772   6.972
14183TIP3    H142434   3.877   3.856   7.015
14183TIP3    H242435   3.872   3.790   6.879
14184TIP3   OH242436   3.247   3.954   7.008
14184TIP3    H142437   3.290   3.869   7.027
14184TIP3    H242438   3.216   3.938   6.916
14185TIP3   OH242439   2.586   3.614   6.972
14185TIP3    H142440   2.566   3.687   6.910
14185TIP3    H242441   2.538   3.541   6.929
14186TIP3   OH242442   3.280   3.706   6.594
14186TIP3    H142443   3.352   3.690   6.659
14186TIP3    H242444   3.332   3.740   6.519
14187TIP3   OH242445   2.219   3.816   7.080
14187TIP3    H142446   2.302   3.796   7.127
14187TIP3    H242447   2.232   3.760   7.000
14188TIP3   OH242448   2.660   4.014   6.873
14188TIP3    H142449   2.754   3.988   6.886
14188TIP3    H242450   2.621   3.929   6.841
14189TIP3   OH242451   3.921   3.979   7.145
14189TIP3    H142452   3.839   4.028   7.123
14189TIP3    H242453   3.939   4.013   7.234
14190TIP3   OH242454   2.582   3.597   7.407
14190TIP3    H142455   2.522   3.634   7.339
14190TIP3    H242456   2.530   3.616   7.488
14191TIP3   OH242457   2.925   4.446   6.416
14191TIP3    H142458   2.889   4.431   6.328
14191TIP3    H242459   2.883   4.531   6.440
14192TIP3   OH242460   2.688   4.373   7.201
14192TIP3    H142461   2.627   4.440   7.238
14192TIP3    H242462   2.732   4.423   7.129
14193TIP3   OH242463   3.489   3.708   6.768
14193TIP3    H142464   3.478   3.662   6.852
14193TIP3    H242465   3.543   3.785   6.794
14194TIP3   OH242466   2.453   3.712   7.191
14194TIP3    H142467   2.515   3.785   7.214
14194TIP3    H242468   2.502   3.672   7.116
14195TIP3   OH242469   2.517   4.567   7.299
14195TIP3    H142470   2.492   4.654   7.262
14195TIP3    H242471   2.438   4.551   7.355
14196TIP3   OH242472   1.912   4.258   6.535
14196TIP3    H142473   1.867   4.286   6.454
14196TIP3    H242474   1.942   4.343   6.573
14197TIP3   OH242475   3.349   4.772   6.775
14197TIP3    H142476   3.259   4.764   6.814
14197TIP3    H242477   3.342   4.859   6.730
14198TIP3   OH242478   3.642   3.671   7.138
14198TIP3    H142479   3.555   3.701   7.108
14198TIP3    H242480   3.702   3.705   7.068
14199TIP3   OH242481   2.938   3.315   7.121
14199TIP3    H142482   2.923   3.221   7.139
14199TIP3    H242483   2.860   3.354   7.168
14200TIP3   OH242484   3.050   4.820   6.446
14200TIP3    H142485   3.100   4.737   6.428
14200TIP3    H242486   3.113   4.886   6.408
14201TIP3   OH242487   3.192   4.604   6.357
14201TIP3    H142488   3.161   4.522   6.315
14201TIP3    H242489   3.230   4.570   6.441
14202TIP3   OH242490   3.576   4.684   7.121
14202TIP3    H142491   3.566   4.608   7.060
14202TIP3    H242492   3.560   4.760   7.060
14203TIP3   OH242493   2.866   4.078   6.377
14203TIP3    H142494   2.787   4.132   6.355
14203TIP3    H242495   2.914   4.077   6.292
14204TIP3   OH242496   2.826   3.866   6.091
14204TIP3    H142497   2.893   3.915   6.142
14204TIP3    H242498   2.884   3.802   6.044
14205TIP3   OH242499   3.771   4.321   6.964
14205TIP3    H142500   3.689   4.374   6.969
14205TIP3    H242501   3.802   4.345   6.874
14206TIP3   OH242502   3.215   4.158   6.350
14206TIP3    H142503   3.161   4.184   6.429
14206TIP3    H242504   3.300   4.134   6.393
14207TIP3   OH242505   3.450   4.200   7.262
14207TIP3    H142506   3.448   4.284   7.311
14207TIP3    H242507   3.364   4.205   7.215
14208TIP3   OH242508   2.448   4.159   6.766
14208TIP3    H142509   2.407   4.101   6.698
14208TIP3    H242510   2.525   4.106   6.795
14209TIP3   OH242511   2.578   4.571   6.913
14209TIP3    H142512   2.558   4.529   6.828
14209TIP3    H242513   2.668   4.537   6.932
14210TIP3   OH242514   2.583   4.131   7.120
14210TIP3    H142515   2.617   4.108   7.030
14210TIP3    H242516   2.627   4.216   7.139
14211TIP3   OH242517   3.107   4.768   6.896
14211TIP3    H142518   3.096   4.848   6.950
14211TIP3    H242519   3.094   4.695   6.960
14212TIP3   OH242520   2.722   4.686   7.444
14212TIP3    H142521   2.663   4.749   7.490
14212TIP3    H242522   2.657   4.633   7.394
14213TIP3   OH242523   3.056   4.019   6.175
14213TIP3    H142524   3.114   4.078   6.229
14213TIP3    H242525   3.089   4.040   6.084
14214TIP3   OH242526   2.477   4.242   7.547
14214TIP3    H142527   2.482   4.330   7.589
14214TIP3    H242528   2.382   4.223   7.556
14215TIP3   OH242529   2.799   4.700   6.448
14215TIP3    H142530   2.881   4.751   6.463
14215TIP3    H242531   2.739   4.766   6.412
14216TIP3   OH242532   2.517   4.853   7.530
14216TIP3    H142533   2.481   4.855   7.439
14216TIP3    H242534   2.437   4.832   7.584
14217TIP3   OH242535   3.572   3.260   6.223
14217TIP3    H142536   3.491   3.282   6.273
14217TIP3    H242537   3.586   3.343   6.172
14218TIP3   OH242538   2.315   4.002   6.568
14218TIP3    H142539   2.247   4.046   6.513
14218TIP3    H242540   2.275   3.915   6.583
14219TIP3   OH242541   2.094   4.386   7.478
14219TIP3    H142542   2.030   4.363   7.408
14219TIP3    H242543   2.132   4.299   7.502
14220TIP3   OH242544   1.949   4.578   7.113
14220TIP3    H142545   2.045   4.573   7.101
14220TIP3    H242546   1.940   4.659   7.166
14221TIP3   OH242547   3.815   5.031   7.167
14221TIP3    H142548   3.813   4.934   7.182
14221TIP3    H242549   3.732   5.058   7.212
14222TIP3   OH242550   2.919   4.816   7.300
14222TIP3    H142551   2.918   4.909   7.333
14222TIP3    H242552   2.848   4.776   7.355
14223TIP3   OH242553   2.677   4.942   6.251
14223TIP3    H142554   2.637   4.930   6.163
14223TIP3    H242555   2.648   5.032   6.276
14224TIP3   OH242556   2.119   4.793   6.636
14224TIP3    H142557   2.167   4.785   6.722
14224TIP3    H242558   2.061   4.715   6.641
14225TIP3   OH242559   2.878   4.841   5.903
14225TIP3    H142560   2.944   4.787   5.854
14225TIP3    H242561   2.922   4.851   5.989
14226TIP3   OH242562   2.934   4.899   6.171
14226TIP3    H142563   2.845   4.905   6.210
14226TIP3    H242564   2.984   4.854   6.241
14227TIP3   OH242565   3.701   4.160   7.442
14227TIP3    H142566   3.622   4.174   7.389
14227TIP3    H242567   3.717   4.064   7.430
14228TIP3   OH242568   2.300   4.568   7.464
14228TIP3    H142569   2.349   4.553   7.547
14228TIP3    H242570   2.225   4.505   7.473
14229TIP3   OH242571   2.699   3.392   7.251
14229TIP3    H142572   2.610   3.361   7.223
14229TIP3    H242573   2.674   3.474   7.297
14230TIP3   OH242574   3.234   3.507   7.445
14230TIP3    H142575   3.302   3.479   7.509
14230TIP3    H242576   3.150   3.487   7.491
14231TIP3   OH242577   3.471   3.936   7.362
14231TIP3    H142578   3.422   3.934   7.447
14231TIP3    H242579   3.448   4.024   7.326
14232TIP3   OH242580   3.140   4.075   5.921
14232TIP3    H142581   3.106   4.041   5.836
14232TIP3    H242582   3.148   4.171   5.904
14233TIP3   OH242583   2.843   3.442   6.221
14233TIP3    H142584   2.810   3.438   6.313
14233TIP3    H242585   2.806   3.358   6.187
14234TIP3   OH242586   2.631   3.908   7.268
14234TIP3    H142587   2.581   3.929   7.350
14234TIP3    H242588   2.615   3.989   7.215
14235TIP3   OH242589   2.515   3.794   6.782
14235TIP3    H142590   2.422   3.767   6.800
14235TIP3    H242591   2.527   3.753   6.694
14236TIP3   OH242592   3.005   3.879   6.510
14236TIP3    H142593   2.953   3.951   6.468
14236TIP3    H242594   3.061   3.848   6.436
14237TIP3   OH242595   3.180   4.157   7.595
14237TIP3    H142596   3.158   4.084   7.658
14237TIP3    H242597   3.273   4.172   7.617
14238TIP3   OH242598   3.162   3.907   6.749
14238TIP3    H142599   3.102   3.938   6.678
14238TIP3    H242600   3.196   3.826   6.705
14239TIP3   OH242601   2.450   3.937   7.477
14239TIP3    H142602   2.478   4.001   7.544
14239TIP3    H242603   2.439   3.855   7.529
14240TIP3   OH242604   2.500   3.414   6.187
14240TIP3    H142605   2.491   3.412   6.284
14240TIP3    H242606   2.421   3.467   6.163
14241TIP3   OH242607   2.043   3.458   7.058
14241TIP3    H142608   2.119   3.490   7.112
14241TIP3    H242609   2.085   3.427   6.977
14242TIP3   OH242610   2.014   3.439   6.577
14242TIP3    H142611   2.060   3.478   6.499
14242TIP3    H242612   1.953   3.513   6.598
14243TIP3   OH242613   3.171   4.154   7.171
14243TIP3    H142614   3.205   4.082   7.113
14243TIP3    H242615   3.142   4.100   7.248
14244TIP3   OH242616   2.843   3.615   6.843
14244TIP3    H142617   2.761   3.614   6.897
14244TIP3    H242618   2.912   3.614   6.912
14245TIP3   OH242619   2.276   3.672   6.852
14245TIP3    H142620   2.182   3.680   6.824
14245TIP3    H242621   2.299   3.581   6.828
14246TIP3   OH242622   2.544   3.667   6.541
14246TIP3    H142623   2.639   3.683   6.520
14246TIP3    H242624   2.498   3.690   6.457
14247TIP3   OH242625   3.335   3.691   7.046
14247TIP3    H142626   3.300   3.704   7.137
14247TIP3    H242627   3.268   3.631   7.010
14248TIP3   OH242628   2.388   3.703   6.318
14248TIP3    H142629   2.316   3.657   6.270
14248TIP3    H242630   2.440   3.738   6.243
14249TIP3   OH242631   3.505   5.380   7.267
14249TIP3    H142632   3.508   5.407   7.173
14249TIP3    H242633   3.585   5.425   7.301
14250TIP3   OH242634   2.461   4.490   7.686
14250TIP3    H142635   2.541   4.521   7.733
14250TIP3    H242636   2.396   4.491   7.759
14251TIP3   OH242637   2.925   3.944   6.940
14251TIP3    H142638   2.999   3.906   6.890
14251TIP3    H242639   2.935   3.902   7.027
14252TIP3   OH242640   2.447   3.432   6.821
14252TIP3    H142641   2.412   3.353   6.868
14252TIP3    H242642   2.497   3.392   6.748
14253TIP3   OH242643   2.901   3.840   7.233
14253TIP3    H142644   2.812   3.878   7.245
14253TIP3    H242645   2.959   3.903   7.282
14254TIP3   OH242646   2.636   4.233   6.323
14254TIP3    H142647   2.565   4.166   6.314
14254TIP3    H242648   2.620   4.266   6.415
14255TIP3   OH242649   3.539   4.468   6.954
14255TIP3    H142650   3.564   4.518   6.873
14255TIP3    H242651   3.454   4.427   6.928
14256TIP3   OH242652   3.096   3.543   6.190
14256TIP3    H142653   2.999   3.526   6.198
14256TIP3    H242654   3.105   3.637   6.214
14257TIP3   OH242655   3.035   4.549   7.324
14257TIP3    H142656   3.064   4.532   7.414
14257TIP3    H242657   2.999   4.639   7.329
14258TIP3   OH242658   3.166   3.791   6.293
14258TIP3    H142659   3.262   3.796   6.308
14258TIP3    H242660   3.148   3.871   6.240
14259TIP3   OH242661   2.330   4.253   7.001
14259TIP3    H142662   2.369   4.225   6.916
14259TIP3    H242663   2.373   4.193   7.063
14260TIP3   OH242664   2.790   4.381   6.146
14260TIP3    H142665   2.740   4.466   6.152
14260TIP3    H242666   2.735   4.325   6.205
14261TIP3   OH242667   2.212   4.174   7.615
14261TIP3    H142668   2.232   4.161   7.710
14261TIP3    H242669   2.143   4.107   7.600
14262TIP3   OH242670   2.937   4.288   7.636
14262TIP3    H142671   2.878   4.230   7.585
14262TIP3    H242672   3.025   4.255   7.607
14263TIP3   OH242673   3.197   4.807   7.220
14263TIP3    H142674   3.100   4.809   7.233
14263TIP3    H242675   3.227   4.860   7.297
14264TIP3   OH242676   3.606   3.881   6.129
14264TIP3    H142677   3.543   3.838   6.066
14264TIP3    H242678   3.607   3.970   6.087
14265TIP3   OH242679   3.826   4.738   7.211
14265TIP3    H142680   3.729   4.734   7.201
14265TIP3    H242681   3.853   4.710   7.120
14266TIP3   OH242682   3.320   4.694   6.027
14266TIP3    H142683   3.288   4.641   6.102
14266TIP3    H242684   3.289   4.644   5.951
14267TIP3   OH242685   3.304   4.330   6.873
14267TIP3    H142686   3.210   4.305   6.885
14267TIP3    H242687   3.338   4.251   6.828
14268TIP3   OH242688   2.432   4.557   6.625
14268TIP3    H142689   2.432   4.639   6.572
14268TIP3    H242690   2.337   4.544   6.640
14269TIP3   OH242691   1.995   3.862   6.330
14269TIP3    H142692   2.041   3.946   6.353
14269TIP3    H242693   1.918   3.866   6.391
14270TIP3   OH242694   2.568   4.322   6.569
14270TIP3    H142695   2.534   4.412   6.588
14270TIP3    H242696   2.533   4.272   6.645
14271TIP3   OH242697   2.701   4.901   7.096
14271TIP3    H142698   2.743   4.974   7.046
14271TIP3    H242699   2.777   4.866   7.145
14272TIP3   OH242700   2.350   4.797   6.476
14272TIP3    H142701   2.266   4.805   6.524
14272TIP3    H242702   2.383   4.889   6.481
14273TIP3   OH242703   3.088   4.535   7.055
14273TIP3    H142704   3.079   4.534   7.153
14273TIP3    H242705   3.169   4.485   7.042
14274TIP3   OH242706   3.041   4.438   5.966
14274TIP3    H142707   3.108   4.412   6.033
14274TIP3    H242708   2.959   4.414   6.009
14275TIP3   OH242709   3.336   5.069   7.103
14275TIP3    H142710   3.256   5.014   7.095
14275TIP3    H242711   3.321   5.136   7.033
14276TIP3   OH242712   2.422   3.680   7.623
14276TIP3    H142713   2.326   3.684   7.635
14276TIP3    H242714   2.449   3.621   7.694
14277TIP3   OH242715   3.225   4.359   6.159
14277TIP3    H142716   3.219   4.291   6.230
14277TIP3    H242717   3.321   4.360   6.143
14278TIP3   OH242718   2.139   4.763   7.254
14278TIP3    H142719   2.194   4.692   7.291
14278TIP3    H242720   2.164   4.837   7.311
14279TIP3   OH242721   2.401   4.399   5.934
14279TIP3    H142722   2.463   4.329   5.909
14279TIP3    H242723   2.400   4.390   6.031
14280TIP3   OH242724   2.373   4.414   6.210
14280TIP3    H142725   2.448   4.383   6.263
14280TIP3    H242726   2.382   4.512   6.221
14281TIP3   OH242727   2.109   4.107   6.413
14281TIP3    H142728   2.043   4.151   6.470
14281TIP3    H242729   2.124   4.177   6.347
14282TIP3   OH242730   3.260   3.744   7.305
14282TIP3    H142731   3.341   3.782   7.343
14282TIP3    H242732   3.247   3.663   7.359
14283TIP3   OH242733   3.140   3.495   6.471
14283TIP3    H142734   3.127   3.517   6.377
14283TIP3    H242735   3.180   3.577   6.506
14284TIP3   OH242736   2.638   4.605   6.159
14284TIP3    H142737   2.555   4.642   6.195
14284TIP3    H242738   2.665   4.675   6.097
14285TIP3   OH242739   2.827   3.675   6.572
14285TIP3    H142740   2.892   3.747   6.554
14285TIP3    H242741   2.834   3.667   6.670
14286TIP3   OH242742   3.098   3.993   7.379
14286TIP3    H142743   3.120   4.046   7.458
14286TIP3    H242744   3.153   3.913   7.391
14287TIP3   OH242745   2.973   3.400   6.674
14287TIP3    H142746   2.966   3.477   6.733
14287TIP3    H242747   3.034   3.436   6.605
14288TIP3   OH242748   2.378   4.686   6.225
14288TIP3    H142749   2.355   4.762   6.166
14288TIP3    H242750   2.366   4.728   6.314
14289TIP3   OH242751   2.485   3.400   6.463
14289TIP3    H142752   2.483   3.491   6.500
14289TIP3    H242753   2.581   3.382   6.471
14290TIP3   OH242754   3.738   3.893   7.363
14290TIP3    H142755   3.640   3.891   7.368
14290TIP3    H242756   3.752   3.857   7.274
14291TIP3   OH242757   3.389   4.088   6.749
14291TIP3    H142758   3.314   4.027   6.761
14291TIP3    H242759   3.461   4.041   6.797
14292TIP3   OH242760   2.105   4.319   6.217
14292TIP3    H142761   2.179   4.380   6.235
14292TIP3    H242762   2.150   4.259   6.153
14293TIP3   OH242763   2.046   3.592   6.351
14293TIP3    H142764   2.046   3.690   6.348
14293TIP3    H242765   1.962   3.570   6.310
14294TIP3   OH242766   3.359   5.045   6.700
14294TIP3    H142767   3.317   5.096   6.628
14294TIP3    H242768   3.453   5.063   6.680
14295TIP3   OH242769   2.434   3.312   7.224
14295TIP3    H142770   2.403   3.279   7.138
14295TIP3    H242771   2.424   3.234   7.282
14296TIP3   OH242772   1.971   4.529   6.604
14296TIP3    H142773   1.903   4.560   6.665
14296TIP3    H242774   1.942   4.571   6.520
14297TIP3   OH242775   2.131   5.074   7.677
14297TIP3    H142776   2.217   5.076   7.725
14297TIP3    H242777   2.112   4.979   7.676
14298TIP3   OH242778   2.609   5.035   7.724
14298TIP3    H142779   2.705   5.022   7.729
14298TIP3    H242780   2.586   4.976   7.649
14299TIP3   OH242781   2.592   4.613   5.859
14299TIP3    H142782   2.558   4.529   5.894
14299TIP3    H242783   2.664   4.582   5.802
14300TIP3   OH242784   3.252   4.943   7.454
14300TIP3    H142785   3.244   4.874   7.524
14300TIP3    H242786   3.329   4.994   7.484
14301TIP3   OH242787   3.058   4.666   5.777
14301TIP3    H142788   3.059   4.576   5.815
14301TIP3    H242789   3.038   4.650   5.684
14302TIP3   OH242790   2.260   4.479   7.877
14302TIP3    H142791   2.276   4.382   7.881
14302TIP3    H242792   2.173   4.482   7.833
14303TIP3   OH242793   2.240   4.132   6.073
14303TIP3    H142794   2.293   4.096   6.146
14303TIP3    H242795   2.307   4.132   6.001
14304TIP3   OH242796   2.868   4.564   7.651
14304TIP3    H142797   2.827   4.583   7.564
14304TIP3    H242798   2.899   4.471   7.641
14305TIP3   OH242799   2.680   4.314   5.895
14305TIP3    H142800   2.731   4.339   5.974
14305TIP3    H242801   2.717   4.225   5.878
14306TIP3   OH242802   3.360   4.573   7.257
14306TIP3    H142803   3.436   4.616   7.213
14306TIP3    H242804   3.291   4.641   7.243
14307TIP3   OH242805   2.379   4.212   7.860
14307TIP3    H142806   2.456   4.161   7.836
14307TIP3    H242807   2.406   4.246   7.948
14308TIP3   OH242808   2.442   4.034   6.291
14308TIP3    H142809   2.418   3.993   6.376
14308TIP3    H242810   2.480   3.958   6.242
14309TIP3   OH242811   2.715   4.097   7.520
14309TIP3    H142812   2.637   4.157   7.522
14309TIP3    H242813   2.765   4.131   7.443
14310TIP3   OH242814   2.547   3.828   6.133
14310TIP3    H142815   2.522   3.829   6.039
14310TIP3    H242816   2.645   3.832   6.126
14311TIP3   OH242817   3.230   4.499   7.654
14311TIP3    H142818   3.311   4.476   7.606
14311TIP3    H242819   3.229   4.432   7.725
14312TIP3   OH242820   2.838   3.886   7.646
14312TIP3    H142821   2.838   3.807   7.589
14312TIP3    H242822   2.795   3.953   7.589
14313TIP3   OH242823   2.841   3.672   7.455
14313TIP3    H142824   2.869   3.714   7.371
14313TIP3    H242825   2.747   3.650   7.436
14314TIP3   OH242826   2.867   4.207   7.328
14314TIP3    H142827   2.951   4.218   7.282
14314TIP3    H242828   2.811   4.274   7.283
14315TIP3   OH242829   3.451   4.175   7.709
14315TIP3    H142830   3.500   4.092   7.712
14315TIP3    H242831   3.517   4.235   7.671
14316TIP3   OH242832   3.490   4.427   7.443
14316TIP3    H142833   3.432   4.482   7.385
14316TIP3    H242834   3.578   4.449   7.405
14317TIP3   OH242835   2.717   3.996   7.879
14317TIP3    H142836   2.648   3.928   7.892
14317TIP3    H242837   2.751   3.972   7.790
14318TIP3   OH242838   2.973   3.436   7.522
14318TIP3    H142839   2.924   3.518   7.499
14318TIP3    H242840   2.903   3.368   7.510
14319TIP3   OH242841   3.099   3.939   7.738
14319TIP3    H142842   3.085   3.927   7.833
14319TIP3    H242843   3.009   3.915   7.706
14320TIP3   OH242844   3.339   3.890   7.593
14320TIP3    H142845   3.263   3.891   7.655
14320TIP3    H242846   3.412   3.859   7.651
14321TIP3   OH242847   3.570   3.832   7.744
14321TIP3    H142848   3.581   3.736   7.761
14321TIP3    H242849   3.565   3.869   7.835
14322TIP3   OH242850   2.555   3.777   7.931
14322TIP3    H142851   2.561   3.686   7.896
14322TIP3    H242852   2.591   3.764   8.021
14323TIP3   OH242853   3.067   3.445   7.780
14323TIP3    H142854   3.134   3.375   7.774
14323TIP3    H242855   3.027   3.440   7.691
14324TIP3   OH242856   3.133   3.660   7.939
14324TIP3    H142857   3.111   3.589   7.874
14324TIP3    H242858   3.055   3.719   7.931
14325TIP3   OH242859   2.351   4.879   6.033
14325TIP3    H142860   2.448   4.881   6.017
14325TIP3    H242861   2.320   4.936   5.960
14326TIP3   OH242862   1.834   4.273   6.249
14326TIP3    H142863   1.929   4.293   6.238
14326TIP3    H242864   1.829   4.182   6.211
14327TIP3   OH242865   1.750   4.882   6.667
14327TIP3    H142866   1.682   4.821   6.632
14327TIP3    H242867   1.793   4.824   6.734
14328TIP3   OH242868   1.885   4.732   6.854
14328TIP3    H142869   1.872   4.661   6.919
14328TIP3    H242870   1.937   4.795   6.908
14329TIP3   OH242871   3.609   5.138   6.655
14329TIP3    H142872   3.639   5.172   6.741
14329TIP3    H242873   3.675   5.176   6.594
14330TIP3   OH242874   3.640   5.154   6.938
14330TIP3    H142875   3.601   5.064   6.935
14330TIP3    H242876   3.719   5.135   6.992
14331TIP3   OH242877   3.693   4.826   7.517
14331TIP3    H142878   3.616   4.839   7.575
14331TIP3    H242879   3.732   4.916   7.515
14332TIP3   OH242880   3.503   4.343   6.129
14332TIP3    H142881   3.567   4.410   6.098
14332TIP3    H242882   3.549   4.308   6.208
14333TIP3   OH242883   3.631   4.211   6.332
14333TIP3    H142884   3.566   4.171   6.394
14333TIP3    H242885   3.698   4.249   6.393
14334TIP3   OH242886   3.684   4.603   6.764
14334TIP3    H142887   3.738   4.539   6.714
14334TIP3    H242888   3.682   4.679   6.702
14335TIP3   OH242889   3.516   4.902   6.961
14335TIP3    H142890   3.445   4.945   7.013
14335TIP3    H242891   3.466   4.856   6.891
14336TIP3   OH242892   3.571   4.119   5.983
14336TIP3    H142893   3.493   4.116   5.925
14336TIP3    H242894   3.550   4.198   6.037
14337TIP3   OH242895   3.435   3.797   5.934
14337TIP3    H142896   3.409   3.825   5.846
14337TIP3    H242897   3.412   3.701   5.930
14338TIP3   OH242898   3.444   4.069   6.480
14338TIP3    H142899   3.454   3.973   6.474
14338TIP3    H242900   3.431   4.083   6.577
14339TIP3   OH242901   2.070   4.143   7.227
14339TIP3    H142902   2.068   4.111   7.134
14339TIP3    H242903   2.167   4.144   7.243
14340TIP3   OH242904   3.735   4.496   7.342
14340TIP3    H142905   3.806   4.429   7.328
14340TIP3    H242906   3.760   4.566   7.279
14341TIP3   OH242907   3.917   4.297   7.352
14341TIP3    H142908   3.843   4.247   7.393
14341TIP3    H242909   3.991   4.234   7.368
14342TIP3   OH242910   3.382   3.531   5.923
14342TIP3    H142911   3.459   3.497   5.974
14342TIP3    H242912   3.311   3.467   5.943
14343TIP3   OH242913   3.441   3.785   6.373
14343TIP3    H142914   3.482   3.696   6.388
14343TIP3    H242915   3.499   3.818   6.303
14344TIP3   OH242916   3.603   3.958   6.870
14344TIP3    H142917   3.688   3.983   6.828
14344TIP3    H242918   3.617   3.996   6.958
14345TIP3   OH242919   3.672   4.103   7.102
14345TIP3    H142920   3.594   4.138   7.149
14345TIP3    H242921   3.705   4.183   7.055
14346TIP3   OH242922   2.288   3.828   7.901
14346TIP3    H142923   2.386   3.822   7.903
14346TIP3    H242924   2.264   3.742   7.942
14347TIP3   OH242925   4.121   3.694   7.657
14347TIP3    H142926   4.182   3.628   7.617
14347TIP3    H242927   4.094   3.747   7.580
14348TIP3   OH242928   3.549   3.535   6.413
14348TIP3    H142929   3.598   3.519   6.496
14348TIP3    H242930   3.489   3.458   6.411
14349TIP3   OH242931   2.250   3.521   7.232
14349TIP3    H142932   2.312   3.446   7.241
14349TIP3    H242933   2.312   3.595   7.225
14350TIP3   OH242934   2.052   3.794   7.305
14350TIP3    H142935   2.101   3.788   7.220
14350TIP3    H242936   2.081   3.880   7.338
14351TIP3   OH242937   3.992   3.833   7.463
14351TIP3    H142938   3.904   3.874   7.477
14351TIP3    H242939   3.966   3.760   7.403
14352TIP3   OH242940   3.630   3.469   6.045
14352TIP3    H142941   3.670   3.397   5.991
14352TIP3    H242942   3.698   3.539   6.040
14353TIP3   OH242943   2.036   3.298   6.806
14353TIP3    H142944   1.943   3.294   6.833
14353TIP3    H242945   2.032   3.356   6.727
14354TIP3   OH242946   3.201   5.004   6.313
14354TIP3    H142947   3.240   4.982   6.226
14354TIP3    H242948   3.266   5.066   6.348
14355TIP3   OH242949   2.256   3.377   7.620
14355TIP3    H142950   2.205   3.373   7.702
14355TIP3    H242951   2.190   3.416   7.559
14356TIP3   OH242952   2.297   4.803   7.695
14356TIP3    H142953   2.204   4.779   7.680
14356TIP3    H242954   2.305   4.791   7.791
14357TIP3   OH242955   2.474   4.838   7.243
14357TIP3    H142956   2.426   4.914   7.205
14357TIP3    H242957   2.560   4.852   7.199
14358TIP3   OH242958   2.919   5.083   7.379
14358TIP3    H142959   2.960   5.084   7.469
14358TIP3    H242960   2.985   5.135   7.329
14359TIP3   OH242961   3.100   5.236   7.238
14359TIP3    H142962   3.173   5.181   7.206
14359TIP3    H242963   3.148   5.294   7.301
14360TIP3   OH242964   3.893   3.596   7.341
14360TIP3    H142965   3.802   3.590   7.306
14360TIP3    H242966   3.924   3.503   7.330
14361TIP3   OH242967   2.150   5.093   7.270
14361TIP3    H142968   2.060   5.125   7.246
14361TIP3    H242969   2.164   5.139   7.353
14362TIP3   OH242970   2.386   5.073   7.126
14362TIP3    H142971   2.300   5.086   7.171
14362TIP3    H242972   2.367   5.107   7.037
14363TIP3   OH242973   2.813   5.102   6.924
14363TIP3    H142974   2.742   5.120   6.860
14363TIP3    H242975   2.823   5.189   6.967
14364TIP3   OH242976   3.081   5.040   6.974
14364TIP3    H142977   2.986   5.055   6.957
14364TIP3    H242978   3.121   5.118   6.934
14365TIP3   OH242979   3.292   5.238   6.882
14365TIP3    H142980   3.275   5.304   6.814
14365TIP3    H242981   3.323   5.163   6.826
14366TIP3   OH242982   2.061   4.887   7.011
14366TIP3    H142983   2.087   4.863   7.103
14366TIP3    H242984   2.134   4.844   6.962
14367TIP3   OH242985   2.257   4.760   6.870
14367TIP3    H142986   2.272   4.676   6.920
14367TIP3    H242987   2.347   4.797   6.867
14368TIP3   OH242988   2.523   4.854   6.874
14368TIP3    H142989   2.554   4.762   6.864
14368TIP3    H242990   2.567   4.877   6.958
14369TIP3   OH242991   3.098   3.511   6.960
14369TIP3    H142992   3.055   3.440   7.012
14369TIP3    H242993   3.171   3.464   6.916
14370TIP3   OH242994   3.620   3.391   6.866
14370TIP3    H142995   3.657   3.443   6.791
14370TIP3    H242996   3.525   3.411   6.859
14371TIP3   OH242997   3.715   3.490   6.630
14371TIP3    H142998   3.788   3.439   6.589
14371TIP3    H242999   3.749   3.581   6.615
14372TIP3   OH243000   2.346   3.219   6.976
14372TIP3    H143001   2.254   3.187   6.978
14372TIP3    H243002   2.395   3.134   6.972
14373TIP3   OH243003   2.134   3.090   6.625
14373TIP3    H143004   2.163   3.147   6.552
14373TIP3    H243005   2.105   3.155   6.692
14374TIP3   OH243006   2.790   3.251   6.857
14374TIP3    H143007   2.848   3.300   6.796
14374TIP3    H243008   2.814   3.291   6.942
14375TIP3   OH243009   3.336   3.399   6.841
14375TIP3    H143010   3.335   3.362   6.752
14375TIP3    H243011   3.323   3.318   6.896
14376TIP3   OH243012   3.367   3.322   6.404
14376TIP3    H143013   3.280   3.364   6.416
14376TIP3    H243014   3.352   3.236   6.449
14377TIP3   OH243015   1.852   4.660   6.401
14377TIP3    H143016   1.766   4.629   6.369
14377TIP3    H243017   1.840   4.756   6.388
14378TIP3   OH243018   2.251   3.249   6.387
14378TIP3    H143019   2.299   3.186   6.330
14378TIP3    H243020   2.324   3.302   6.423
14379TIP3   OH243021   2.762   3.425   6.486
14379TIP3    H143022   2.822   3.378   6.546
14379TIP3    H243023   2.784   3.517   6.511
14380TIP3   OH243024   2.619   4.855   5.981
14380TIP3    H143025   2.712   4.870   5.951
14380TIP3    H243026   2.602   4.773   5.929
14381TIP3   OH243027   3.337   4.963   6.077
14381TIP3    H143028   3.337   4.866   6.058
14381TIP3    H243029   3.297   4.998   5.994
14382TIP3   OH243030   2.554   3.500   7.868
14382TIP3    H143031   2.520   3.430   7.925
14382TIP3    H243032   2.648   3.501   7.895
14383TIP3   OH243033   2.803   3.498   7.987
14383TIP3    H143034   2.888   3.473   7.946
14383TIP3    H243035   2.792   3.427   8.053
14384TIP3   OH243036   1.924   4.696   6.050
14384TIP3    H143037   1.907   4.721   6.142
14384TIP3    H243038   2.012   4.655   6.054
14385TIP3   OH243039   3.629   3.560   7.774
14385TIP3    H143040   3.648   3.528   7.865
14385TIP3    H243041   3.717   3.555   7.732
14386TIP3   OH243042   3.568   5.112   7.266
14386TIP3    H143043   3.488   5.082   7.217
14386TIP3    H243044   3.551   5.208   7.271
14387TIP3   OH243045   4.833   4.481   6.033
14387TIP3    H143046   4.805   4.573   6.014
14387TIP3    H243047   4.756   4.433   5.998
14388TIP3   OH243048   4.832   4.484   6.414
14388TIP3    H143049   4.865   4.459   6.502
14388TIP3    H243050   4.791   4.402   6.383
14389TIP3   OH243051   4.131   4.381   6.783
14389TIP3    H143052   4.164   4.312   6.844
14389TIP3    H243053   4.211   4.432   6.767
14390TIP3   OH243054   5.076   4.787   6.096
14390TIP3    H143055   5.063   4.719   6.164
14390TIP3    H243056   5.107   4.863   6.149
14391TIP3   OH243057   4.103   4.787   6.503
14391TIP3    H143058   4.095   4.690   6.505
14391TIP3    H243059   4.199   4.798   6.496
14392TIP3   OH243060   3.809   3.989   6.288
14392TIP3    H143061   3.764   4.074   6.304
14392TIP3    H243062   3.737   3.938   6.247
14393TIP3   OH243063   3.868   4.278   6.461
14393TIP3    H143064   3.919   4.202   6.496
14393TIP3    H243065   3.930   4.316   6.397
14394TIP3   OH243066   4.725   5.248   6.113
14394TIP3    H143067   4.770   5.177   6.064
14394TIP3    H243068   4.722   5.212   6.203
14395TIP3   OH243069   4.631   4.709   6.463
14395TIP3    H143070   4.672   4.634   6.417
14395TIP3    H243071   4.713   4.756   6.489
14396TIP3   OH243072   5.647   4.029   6.461
14396TIP3    H143073   5.674   4.113   6.503
14396TIP3    H243074   5.667   4.048   6.367
14397TIP3   OH243075   5.041   4.209   6.495
14397TIP3    H143076   5.087   4.125   6.514
14397TIP3    H243077   5.012   4.194   6.403
14398TIP3   OH243078   4.381   3.870   6.460
14398TIP3    H143079   4.363   3.943   6.398
14398TIP3    H243080   4.333   3.797   6.415
14399TIP3   OH243081   5.076   3.962   6.081
14399TIP3    H143082   5.149   3.947   6.146
14399TIP3    H243083   5.128   3.997   6.006
14400TIP3   OH243084   4.014   4.072   6.567
14400TIP3    H143085   4.098   4.054   6.614
14400TIP3    H243086   4.029   4.017   6.487
14401TIP3   OH243087   4.455   4.269   6.362
14401TIP3    H143088   4.550   4.245   6.373
14401TIP3    H243089   4.417   4.186   6.328
14402TIP3   OH243090   5.720   4.240   6.631
14402TIP3    H143091   5.636   4.287   6.611
14402TIP3    H243092   5.739   4.273   6.720
14403TIP3   OH243093   4.377   3.854   6.894
14403TIP3    H143094   4.319   3.892   6.826
14403TIP3    H243095   4.325   3.875   6.975
14404TIP3   OH243096   4.718   4.700   5.905
14404TIP3    H143097   4.688   4.687   5.814
14404TIP3    H243098   4.677   4.786   5.927
14405TIP3   OH243099   4.484   4.628   6.688
14405TIP3    H143100   4.424   4.697   6.725
14405TIP3    H243101   4.529   4.678   6.617
14406TIP3   OH243102   5.285   3.964   6.256
14406TIP3    H143103   5.273   3.921   6.341
14406TIP3    H243104   5.339   4.042   6.280
14407TIP3   OH243105   4.249   3.968   6.678
14407TIP3    H143106   4.310   4.042   6.701
14407TIP3    H243107   4.298   3.928   6.603
14408TIP3   OH243108   4.313   4.824   6.785
14408TIP3    H143109   4.289   4.911   6.747
14408TIP3    H243110   4.233   4.809   6.841
14409TIP3   OH243111   3.705   4.510   6.030
14409TIP3    H143112   3.671   4.527   5.939
14409TIP3    H243113   3.736   4.599   6.057
14410TIP3   OH243114   5.144   5.028   6.260
14410TIP3    H143115   5.054   5.020   6.300
14410TIP3    H243116   5.138   5.115   6.217
14411TIP3   OH243117   5.438   3.926   6.624
14411TIP3    H143118   5.351   3.958   6.595
14411TIP3    H243119   5.498   3.961   6.554
14412TIP3   OH243120   4.734   3.573   6.607
14412TIP3    H143121   4.720   3.478   6.625
14412TIP3    H243122   4.657   3.611   6.654
14413TIP3   OH243123   4.846   5.077   5.934
14413TIP3    H143124   4.895   4.994   5.915
14413TIP3    H243125   4.908   5.142   5.893
14414TIP3   OH243126   4.986   4.861   5.844
14414TIP3    H143127   4.969   4.780   5.793
14414TIP3    H243128   5.023   4.825   5.928
14415TIP3   OH243129   5.369   4.942   6.606
14415TIP3    H143130   5.361   4.866   6.545
14415TIP3    H243131   5.356   5.018   6.546
14416TIP3   OH243132   4.663   4.334   5.863
14416TIP3    H143133   4.584   4.388   5.843
14416TIP3    H243134   4.711   4.336   5.778
14417TIP3   OH243135   4.623   4.121   5.578
14417TIP3    H143136   4.689   4.172   5.628
14417TIP3    H243137   4.682   4.059   5.531
14418TIP3   OH243138   5.567   4.575   6.450
14418TIP3    H143139   5.485   4.629   6.456
14418TIP3    H243140   5.599   4.603   6.361
14419TIP3   OH243141   5.010   4.415   5.835
14419TIP3    H143142   4.957   4.441   5.914
14419TIP3    H243143   5.096   4.392   5.878
14420TIP3   OH243144   5.247   4.455   6.749
14420TIP3    H143145   5.248   4.538   6.801
14420TIP3    H243146   5.162   4.466   6.702
14421TIP3   OH243147   4.243   4.415   6.254
14421TIP3    H143148   4.203   4.358   6.185
14421TIP3    H243149   4.321   4.363   6.282
14422TIP3   OH243150   4.372   4.825   6.401
14422TIP3    H143151   4.354   4.788   6.314
14422TIP3    H243152   4.462   4.792   6.420
14423TIP3   OH243153   4.376   4.388   6.606
14423TIP3    H143154   4.411   4.365   6.518
14423TIP3    H243155   4.422   4.473   6.626
14424TIP3   OH243156   4.903   5.024   6.382
14424TIP3    H143157   4.891   5.105   6.433
14424TIP3    H243158   4.889   4.953   6.448
14425TIP3   OH243159   4.519   4.943   6.930
14425TIP3    H143160   4.460   5.005   6.978
14425TIP3    H243161   4.454   4.890   6.881
14426TIP3   OH243162   4.853   4.276   5.658
14426TIP3    H143163   4.911   4.335   5.711
14426TIP3    H243164   4.881   4.299   5.566
14427TIP3   OH243165   4.274   4.496   7.039
14427TIP3    H143166   4.278   4.587   7.076
14427TIP3    H243167   4.178   4.481   7.041
14428TIP3   OH243168   4.596   4.956   5.933
14428TIP3    H143169   4.678   5.006   5.950
14428TIP3    H243170   4.535   5.025   5.903
14429TIP3   OH243171   4.312   5.109   7.016
14429TIP3    H143172   4.276   5.111   6.926
14429TIP3    H243173   4.233   5.087   7.070
14430TIP3   OH243174   5.368   3.516   5.710
14430TIP3    H143175   5.287   3.539   5.760
14430TIP3    H243176   5.383   3.599   5.659
14431TIP3   OH243177   4.110   4.258   6.057
14431TIP3    H143178   4.046   4.306   6.001
14431TIP3    H243179   4.068   4.173   6.066
14432TIP3   OH243180   3.889   4.643   6.965
14432TIP3    H143181   3.826   4.621   6.894
14432TIP3    H243182   3.928   4.556   6.988
14433TIP3   OH243183   3.747   4.834   6.600
14433TIP3    H143184   3.842   4.826   6.585
14433TIP3    H243185   3.743   4.914   6.654
14434TIP3   OH243186   5.619   5.283   6.651
14434TIP3    H143187   5.615   5.191   6.683
14434TIP3    H243188   5.534   5.316   6.688
14435TIP3   OH243189   4.714   5.074   6.786
14435TIP3    H143190   4.713   5.166   6.819
14435TIP3    H243191   4.646   5.033   6.842
14436TIP3   OH243192   4.477   5.202   5.737
14436TIP3    H143193   4.427   5.187   5.655
14436TIP3    H243194   4.442   5.289   5.767
14437TIP3   OH243195   3.914   5.051   6.124
14437TIP3    H143196   3.962   5.041   6.209
14437TIP3    H243197   3.860   4.970   6.124
14438TIP3   OH243198   4.674   5.105   5.385
14438TIP3    H143199   4.735   5.044   5.336
14438TIP3    H243200   4.716   5.103   5.473
14439TIP3   OH243201   4.732   5.167   5.648
14439TIP3    H143202   4.645   5.170   5.693
14439TIP3    H243203   4.786   5.122   5.715
14440TIP3   OH243204   5.501   4.415   6.932
14440TIP3    H143205   5.421   4.433   6.880
14440TIP3    H243206   5.514   4.319   6.916
14441TIP3   OH243207   4.096   4.824   6.950
14441TIP3    H143208   4.144   4.812   7.034
14441TIP3    H243209   4.021   4.762   6.960
14442TIP3   OH243210   4.495   3.647   6.738
14442TIP3    H143211   4.406   3.619   6.711
14442TIP3    H243212   4.472   3.731   6.782
14443TIP3   OH243213   5.030   3.762   6.931
14443TIP3    H143214   5.099   3.737   6.996
14443TIP3    H243215   4.947   3.744   6.979
14444TIP3   OH243216   5.266   4.192   6.847
14444TIP3    H143217   5.218   4.190   6.933
14444TIP3    H243218   5.246   4.281   6.813
14445TIP3   OH243219   4.928   4.328   5.401
14445TIP3    H143220   4.909   4.294   5.311
14445TIP3    H243221   4.979   4.408   5.379
14446TIP3   OH243222   4.639   3.698   5.707
14446TIP3    H143223   4.607   3.695   5.800
14446TIP3    H243224   4.601   3.614   5.674
14447TIP3   OH243225   4.425   4.165   6.754
14447TIP3    H143226   4.378   4.188   6.836
14447TIP3    H243227   4.411   4.246   6.700
14448TIP3   OH243228   4.312   4.049   6.269
14448TIP3    H143229   4.219   4.025   6.286
14448TIP3    H243230   4.325   4.010   6.180
14449TIP3   OH243231   4.800   4.134   5.996
14449TIP3    H143232   4.749   4.207   5.954
14449TIP3    H243233   4.857   4.105   5.922
14450TIP3   OH243234   4.976   4.412   7.080
14450TIP3    H143235   4.957   4.340   7.144
14450TIP3    H243236   5.068   4.433   7.102
14451TIP3   OH243237   4.957   4.164   6.236
14451TIP3    H143238   4.899   4.196   6.165
14451TIP3    H243239   4.991   4.083   6.192
14452TIP3   OH243240   4.245   4.195   6.964
14452TIP3    H143241   4.278   4.260   7.028
14452TIP3    H243242   4.237   4.114   7.018
14453TIP3   OH243243   4.295   3.670   5.674
14453TIP3    H143244   4.287   3.669   5.771
14453TIP3    H243245   4.218   3.724   5.650
14454TIP3   OH243246   3.839   3.713   6.547
14454TIP3    H143247   3.914   3.748   6.600
14454TIP3    H243248   3.880   3.686   6.464
14455TIP3   OH243249   3.810   3.695   6.065
14455TIP3    H143250   3.854   3.733   5.986
14455TIP3    H243251   3.749   3.769   6.086
14456TIP3   OH243252   4.962   4.409   6.657
14456TIP3    H143253   4.999   4.338   6.600
14456TIP3    H243254   4.937   4.356   6.736
14457TIP3   OH243255   4.639   3.869   6.330
14457TIP3    H143256   4.558   3.870   6.385
14457TIP3    H243257   4.709   3.873   6.397
14458TIP3   OH243258   4.072   3.929   6.340
14458TIP3    H143259   3.978   3.935   6.311
14458TIP3    H243260   4.097   3.838   6.314
14459TIP3   OH243261   4.341   3.923   6.027
14459TIP3    H143262   4.435   3.940   6.007
14459TIP3    H243263   4.295   3.947   5.944
14460TIP3   OH243264   5.132   3.947   6.532
14460TIP3    H143265   5.098   3.961   6.624
14460TIP3    H243266   5.064   3.888   6.496
14461TIP3   OH243267   4.185   3.956   5.805
14461TIP3    H143268   4.114   3.913   5.754
14461TIP3    H243269   4.238   3.996   5.732
14462TIP3   OH243270   5.296   5.647   6.760
14462TIP3    H143271   5.301   5.659   6.663
14462TIP3    H243272   5.380   5.687   6.789
14463TIP3   OH243273   4.257   4.744   7.175
14463TIP3    H143274   4.338   4.777   7.218
14463TIP3    H243275   4.193   4.753   7.248
14464TIP3   OH243276   4.721   4.198   6.425
14464TIP3    H143277   4.797   4.165   6.374
14464TIP3    H243278   4.735   4.158   6.512
14465TIP3   OH243279   4.243   3.690   6.306
14465TIP3    H143280   4.210   3.609   6.352
14465TIP3    H243281   4.292   3.652   6.232
14466TIP3   OH243282   4.698   4.095   6.724
14466TIP3    H143283   4.609   4.136   6.733
14466TIP3    H243284   4.756   4.158   6.770
14467TIP3   OH243285   4.434   4.488   5.812
14467TIP3    H143286   4.360   4.424   5.801
14467TIP3    H243287   4.416   4.523   5.902
14468TIP3   OH243288   5.336   4.723   6.440
14468TIP3    H143289   5.361   4.774   6.360
14468TIP3    H243290   5.250   4.684   6.415
14469TIP3   OH243291   4.893   3.798   5.678
14469TIP3    H143292   4.796   3.784   5.684
14469TIP3    H243293   4.904   3.894   5.699
14470TIP3   OH243294   4.825   4.801   6.814
14470TIP3    H143295   4.869   4.791   6.900
14470TIP3    H243296   4.797   4.894   6.815
14471TIP3   OH243297   4.962   4.048   5.778
14471TIP3    H143298   5.058   4.055   5.793
14471TIP3    H243299   4.944   4.128   5.724
14472TIP3   OH243300   4.124   4.506   6.488
14472TIP3    H143301   4.162   4.483   6.402
14472TIP3    H243302   4.175   4.449   6.548
14473TIP3   OH243303   4.584   4.635   5.631
14473TIP3    H143304   4.534   4.720   5.633
14473TIP3    H243305   4.530   4.581   5.692
14474TIP3   OH243306   4.006   4.431   7.104
14474TIP3    H143307   4.024   4.413   7.198
14474TIP3    H243308   3.938   4.364   7.084
14475TIP3   OH243309   4.735   4.541   7.125
14475TIP3    H143310   4.679   4.488   7.066
14475TIP3    H243311   4.824   4.512   7.096
14476TIP3   OH243312   4.991   5.058   6.712
14476TIP3    H143313   4.895   5.067   6.724
14476TIP3    H243314   5.024   5.115   6.785
14477TIP3   OH243315   5.403   4.142   5.613
14477TIP3    H143316   5.341   4.096   5.552
14477TIP3    H243317   5.399   4.230   5.570
14478TIP3   OH243318   5.620   4.988   6.699
14478TIP3    H143319   5.523   4.992   6.691
14478TIP3    H243320   5.645   4.964   6.607
14479TIP3   OH243321   5.114   4.950   5.513
14479TIP3    H143322   5.082   4.883   5.575
14479TIP3    H243323   5.107   4.902   5.428
14480TIP3   OH243324   5.100   4.587   6.359
14480TIP3    H143325   5.006   4.563   6.372
14480TIP3    H243326   5.133   4.507   6.314
14481TIP3   OH243327   4.229   4.815   6.116
14481TIP3    H143328   4.230   4.895   6.060
14481TIP3    H243329   4.135   4.796   6.120
14482TIP3   OH243330   3.796   4.118   5.819
14482TIP3    H143331   3.841   4.204   5.835
14482TIP3    H243332   3.719   4.126   5.879
14483TIP3   OH243333   4.365   4.578   6.058
14483TIP3    H143334   4.331   4.669   6.075
14483TIP3    H243335   4.328   4.530   6.134
14484TIP3   OH243336   4.498   5.157   6.582
14484TIP3    H143337   4.539   5.230   6.533
14484TIP3    H243338   4.574   5.123   6.632
14485TIP3   OH243339   4.146   5.054   5.964
14485TIP3    H143340   4.061   5.061   6.012
14485TIP3    H243341   4.178   5.147   5.969
14486TIP3   OH243342   4.883   4.792   6.543
14486TIP3    H143343   4.874   4.789   6.641
14486TIP3    H243344   4.967   4.745   6.531
14487TIP3   OH243345   4.839   4.702   5.443
14487TIP3    H143346   4.907   4.671   5.505
14487TIP3    H243347   4.758   4.665   5.482
14488TIP3   OH243348   5.121   5.325   6.593
14488TIP3    H143349   5.041   5.272   6.575
14488TIP3    H243350   5.115   5.392   6.521
14489TIP3   OH243351   5.202   5.182   5.254
14489TIP3    H143352   5.244   5.266   5.227
14489TIP3    H243353   5.110   5.209   5.270
14490TIP3   OH243354   4.218   3.937   7.111
14490TIP3    H143355   4.122   3.939   7.121
14490TIP3    H243356   4.245   3.875   7.181
14491TIP3   OH243357   5.020   4.624   5.649
14491TIP3    H143358   5.013   4.552   5.715
14491TIP3    H243359   5.115   4.619   5.627
14492TIP3   OH243360   3.933   5.021   6.743
14492TIP3    H143361   3.990   4.950   6.776
14492TIP3    H243362   3.963   5.095   6.796
14493TIP3   OH243363   4.155   4.675   5.723
14493TIP3    H143364   4.244   4.643   5.741
14493TIP3    H243365   4.170   4.771   5.709
14494TIP3   OH243366   3.906   4.364   5.900
14494TIP3    H143367   3.840   4.409   5.956
14494TIP3    H243368   3.920   4.433   5.831
14495TIP3   OH243369   5.057   4.000   6.790
14495TIP3    H143370   5.136   4.041   6.829
14495TIP3    H243371   5.045   3.920   6.846
14496TIP3   OH243372   4.937   3.751   5.958
14496TIP3    H143373   4.923   3.773   5.864
14496TIP3    H243374   4.976   3.833   5.993
14497TIP3   OH243375   4.436   4.864   5.635
14497TIP3    H143376   4.350   4.890   5.675
14497TIP3    H243377   4.469   4.950   5.607
14498TIP3   OH243378   4.623   3.931   6.058
14498TIP3    H143379   4.688   4.003   6.039
14498TIP3    H243380   4.630   3.924   6.156
14499TIP3   OH243381   4.893   4.248   6.867
14499TIP3    H143382   4.917   4.304   6.944
14499TIP3    H243383   4.951   4.171   6.880
14500TIP3   OH243384   4.769   3.656   6.160
14500TIP3    H143385   4.761   3.733   6.219
14500TIP3    H243386   4.830   3.692   6.092
14501TIP3   OH243387   4.188   4.950   5.710
14501TIP3    H143388   4.148   5.017   5.651
14501TIP3    H243389   4.167   4.987   5.799
14502TIP3   OH243390   4.281   3.657   5.951
14502TIP3    H143391   4.279   3.748   5.986
14502TIP3    H243392   4.377   3.639   5.959
14503TIP3   OH243393   5.533   4.148   6.847
14503TIP3    H143394   5.435   4.146   6.853
14503TIP3    H243395   5.546   4.116   6.757
14504TIP3   OH243396   5.186   4.344   6.236
14504TIP3    H143397   5.110   4.284   6.248
14504TIP3    H243398   5.258   4.297   6.284
14505TIP3   OH243399   3.901   4.575   5.707
14505TIP3    H143400   3.979   4.633   5.723
14505TIP3    H243401   3.940   4.519   5.635
14506TIP3   OH243402   3.841   3.847   5.841
14506TIP3    H143403   3.845   3.945   5.837
14506TIP3    H243404   3.764   3.828   5.786
14507TIP3   OH243405   5.154   5.299   6.182
14507TIP3    H143406   5.113   5.346   6.107
14507TIP3    H243407   5.249   5.319   6.165
14508TIP3   OH243408   4.230   3.569   6.711
14508TIP3    H143409   4.200   3.537   6.624
14508TIP3    H243410   4.219   3.490   6.768
14509TIP3   OH243411   3.771   4.789   6.092
14509TIP3    H143412   3.696   4.818   6.146
14509TIP3    H243413   3.748   4.830   6.006
14510TIP3   OH243414   3.929   5.332   7.164
14510TIP3    H143415   4.014   5.337   7.214
14510TIP3    H243416   3.911   5.237   7.165
14511TIP3   OH243417   4.405   5.292   7.209
14511TIP3    H143418   4.501   5.277   7.217
14511TIP3    H243419   4.384   5.233   7.134
14512TIP3   OH243420   5.058   5.194   6.947
14512TIP3    H143421   5.035   5.125   7.014
14512TIP3    H243422   5.153   5.206   6.963
14513TIP3   OH243423   4.848   4.931   5.264
14513TIP3    H143424   4.859   4.847   5.313
14513TIP3    H243425   4.855   4.899   5.173
14514TIP3   OH243426   4.056   4.726   7.368
14514TIP3    H143427   4.072   4.631   7.357
14514TIP3    H243428   3.969   4.737   7.323
14515TIP3   OH243429   4.038   4.389   5.561
14515TIP3    H143430   4.098   4.362   5.633
14515TIP3    H243431   4.101   4.395   5.485
14516TIP3   OH243432   4.662   4.818   7.138
14516TIP3    H143433   4.627   4.840   7.050
14516TIP3    H243434   4.697   4.727   7.126
14517TIP3   OH243435   4.488   4.571   5.366
14517TIP3    H143436   4.526   4.599   5.451
14517TIP3    H243437   4.518   4.478   5.362
14518TIP3   OH243438   5.154   4.830   6.741
14518TIP3    H143439   5.233   4.871   6.701
14518TIP3    H243440   5.089   4.902   6.729
14519TIP3   OH243441   4.177   4.464   7.353
14519TIP3    H143442   4.258   4.430   7.312
14519TIP3    H243443   4.212   4.504   7.435
14520TIP3   OH243444   4.240   4.290   5.778
14520TIP3    H143445   4.215   4.249   5.862
14520TIP3    H243446   4.278   4.214   5.729
14521TIP3   OH243447   4.508   4.349   7.005
14521TIP3    H143448   4.434   4.414   7.009
14521TIP3    H243449   4.561   4.385   6.929
14522TIP3   OH243450   4.344   4.083   5.621
14522TIP3    H143451   4.319   4.086   5.527
14522TIP3    H243452   4.442   4.089   5.614
14523TIP3   OH243453   5.023   4.751   7.138
14523TIP3    H143454   5.110   4.743   7.098
14523TIP3    H243455   5.028   4.691   7.213
14524TIP3   OH243456   4.631   4.143   7.137
14524TIP3    H143457   4.635   4.064   7.079
14524TIP3    H243458   4.590   4.210   7.077
14525TIP3   OH243459   4.637   3.928   6.943
14525TIP3    H143460   4.666   3.972   6.861
14525TIP3    H243461   4.543   3.907   6.922
14526TIP3   OH243462   4.662   4.463   6.816
14526TIP3    H143463   4.748   4.475   6.772
14526TIP3    H243464   4.607   4.531   6.771
14527TIP3   OH243465   5.245   4.433   7.195
14527TIP3    H143466   5.300   4.354   7.200
14527TIP3    H243467   5.308   4.499   7.163
14528TIP3   OH243468   5.286   4.679   6.924
14528TIP3    H143469   5.228   4.736   6.868
14528TIP3    H243470   5.374   4.705   6.888
14529TIP3   OH243471   4.509   4.254   7.368
14529TIP3    H143472   4.444   4.181   7.377
14529TIP3    H243473   4.545   4.236   7.280
14530TIP3   OH243474   4.769   3.692   7.009
14530TIP3    H143475   4.721   3.775   6.986
14530TIP3    H243476   4.699   3.625   6.996
14531TIP3   OH243477   4.897   4.194   7.224
14531TIP3    H143478   4.887   4.185   7.321
14531TIP3    H243479   4.806   4.172   7.195
14532TIP3   OH243480   5.133   4.142   7.077
14532TIP3    H143481   5.059   4.148   7.140
14532TIP3    H243482   5.208   4.116   7.135
14533TIP3   OH243483   5.360   4.087   7.231
14533TIP3    H143484   5.375   3.992   7.249
14533TIP3    H243485   5.358   4.126   7.321
14534TIP3   OH243486   4.350   4.032   7.420
14534TIP3    H143487   4.358   3.943   7.381
14534TIP3    H243488   4.390   4.017   7.508
14535TIP3   OH243489   4.861   3.700   7.267
14535TIP3    H143490   4.930   3.631   7.261
14535TIP3    H243491   4.823   3.696   7.177
14536TIP3   OH243492   4.927   3.915   7.427
14536TIP3    H143493   4.907   3.845   7.361
14536TIP3    H243494   4.851   3.975   7.418
14537TIP3   OH243495   4.144   5.145   5.513
14537TIP3    H143496   4.241   5.142   5.505
14537TIP3    H243497   4.122   5.203   5.438
14538TIP3   OH243498   3.640   4.511   5.763
14538TIP3    H143499   3.725   4.547   5.730
14538TIP3    H243500   3.628   4.434   5.704
14539TIP3   OH243501   3.535   5.141   6.162
14539TIP3    H143502   3.477   5.076   6.117
14539TIP3    H243503   3.586   5.083   6.222
14540TIP3   OH243504   3.678   4.991   6.342
14540TIP3    H143505   3.672   4.917   6.403
14540TIP3    H243506   3.733   5.053   6.395
14541TIP3   OH243507   5.406   5.394   6.140
14541TIP3    H143508   5.432   5.420   6.231
14541TIP3    H243509   5.473   5.437   6.086
14542TIP3   OH243510   5.438   5.410   6.417
14542TIP3    H143511   5.396   5.321   6.419
14542TIP3    H243512   5.503   5.398   6.488
14543TIP3   OH243513   5.298   4.598   5.619
14543TIP3    H143514   5.363   4.663   5.586
14543TIP3    H243515   5.346   4.560   5.695
14544TIP3   OH243516   5.430   4.466   5.820
14544TIP3    H143517   5.362   4.427   5.880
14544TIP3    H243518   5.493   4.506   5.883
14545TIP3   OH243519   5.481   4.860   6.251
14545TIP3    H143520   5.535   4.797   6.200
14545TIP3    H243521   5.476   4.936   6.190
14546TIP3   OH243522   5.310   5.162   6.447
14546TIP3    H143523   5.241   5.203   6.503
14546TIP3    H243524   5.258   5.115   6.379
14547TIP3   OH243525   5.355   4.381   5.453
14547TIP3    H143526   5.305   4.404   5.372
14547TIP3    H243527   5.329   4.455   5.511
14548TIP3   OH243528   5.234   4.047   5.424
14548TIP3    H143529   5.200   4.091   5.345
14548TIP3    H243530   5.208   3.954   5.407
14549TIP3   OH243531   5.240   4.326   5.967
14549TIP3    H143532   5.250   4.230   5.961
14549TIP3    H243533   5.227   4.340   6.063
14550TIP3   OH243534   3.867   4.397   6.714
14550TIP3    H143535   3.865   4.367   6.621
14550TIP3    H243536   3.964   4.401   6.730
14551TIP3   OH243537   5.527   4.752   6.823
14551TIP3    H143538   5.602   4.689   6.818
14551TIP3    H243539   5.558   4.826   6.767
14552TIP3   OH243540   5.712   4.554   6.833
14552TIP3    H143541   5.639   4.506   6.879
14552TIP3    H243542   5.786   4.492   6.849
14553TIP3   OH243543   5.181   3.780   5.404
14553TIP3    H143544   5.255   3.752   5.462
14553TIP3    H243545   5.108   3.723   5.431
14554TIP3   OH243546   5.237   4.042   5.861
14554TIP3    H143547   5.279   3.954   5.875
14554TIP3    H243548   5.294   4.076   5.790
14555TIP3   OH243549   5.399   4.213   6.357
14555TIP3    H143550   5.485   4.239   6.316
14555TIP3    H243551   5.412   4.253   6.445
14556TIP3   OH243552   5.468   4.358   6.588
14556TIP3    H143553   5.391   4.394   6.637
14556TIP3    H243554   5.501   4.439   6.543
14557TIP3   OH243555   4.084   4.085   7.390
14557TIP3    H143556   4.181   4.077   7.389
14557TIP3    H243557   4.059   3.999   7.429
14558TIP3   OH243558   5.922   3.949   7.144
14558TIP3    H143559   5.980   3.883   7.099
14558TIP3    H243560   5.892   4.002   7.067
14559TIP3   OH243561   5.347   3.792   5.899
14559TIP3    H143562   5.395   3.775   5.982
14559TIP3    H243563   5.286   3.715   5.897
14560TIP3   OH243564   4.046   3.778   6.722
14560TIP3    H143565   4.109   3.703   6.729
14560TIP3    H243566   4.107   3.853   6.712
14561TIP3   OH243567   3.848   4.051   6.792
14561TIP3    H143568   3.898   4.045   6.708
14561TIP3    H243569   3.876   4.138   6.823
14562TIP3   OH243570   5.790   4.088   6.951
14562TIP3    H143571   5.707   4.131   6.979
14562TIP3    H243572   5.753   4.018   6.893
14563TIP3   OH243573   5.427   3.725   5.534
14563TIP3    H143574   5.468   3.655   5.478
14563TIP3    H243575   5.492   3.797   5.527
14564TIP3   OH243576   3.832   3.553   6.293
14564TIP3    H143577   3.739   3.551   6.319
14564TIP3    H243578   3.830   3.612   6.214
14565TIP3   OH243579   4.985   5.264   5.793
14565TIP3    H143580   5.043   5.246   5.716
14565TIP3    H243581   5.042   5.321   5.848
14566TIP3   OH243582   4.052   3.634   7.107
14566TIP3    H143583   4.001   3.630   7.189
14566TIP3    H243584   3.987   3.673   7.046
14567TIP3   OH243585   4.094   5.054   7.184
14567TIP3    H143586   3.999   5.035   7.170
14567TIP3    H243587   4.101   5.053   7.280
14568TIP3   OH243588   4.270   5.094   6.729
14568TIP3    H143589   4.224   5.172   6.691
14568TIP3    H243590   4.357   5.107   6.686
14569TIP3   OH243591   4.715   5.340   6.868
14569TIP3    H143592   4.757   5.339   6.957
14569TIP3    H243593   4.782   5.390   6.817
14570TIP3   OH243594   4.897   5.490   6.727
14570TIP3    H143595   4.970   5.439   6.689
14570TIP3    H243596   4.946   5.548   6.789
14571TIP3   OH243597   5.688   3.852   6.827
14571TIP3    H143598   5.597   3.848   6.793
14571TIP3    H243599   5.718   3.759   6.816
14572TIP3   OH243600   3.946   5.348   6.758
14572TIP3    H143601   3.856   5.382   6.735
14572TIP3    H243602   3.963   5.398   6.839
14573TIP3   OH243603   4.182   5.328   6.613
14573TIP3    H143604   4.095   5.342   6.657
14573TIP3    H243605   4.163   5.363   6.523
14574TIP3   OH243606   4.608   5.359   6.410
14574TIP3    H143607   4.538   5.381   6.346
14574TIP3    H243608   4.622   5.445   6.455
14575TIP3   OH243609   4.876   5.294   6.458
14575TIP3    H143610   4.782   5.316   6.441
14575TIP3    H243611   4.921   5.372   6.421
14576TIP3   OH243612   5.081   5.488   6.376
14576TIP3    H143613   5.070   5.573   6.329
14576TIP3    H243614   5.111   5.429   6.304
14577TIP3   OH243615   3.856   5.143   6.500
14577TIP3    H143616   3.884   5.120   6.591
14577TIP3    H243617   3.929   5.102   6.449
14578TIP3   OH243618   4.052   5.017   6.358
14578TIP3    H143619   4.068   4.933   6.406
14578TIP3    H243620   4.143   5.054   6.354
14579TIP3   OH243621   4.318   5.111   6.361
14579TIP3    H143622   4.350   5.020   6.349
14579TIP3    H243623   4.364   5.134   6.444
14580TIP3   OH243624   4.894   3.768   6.446
14580TIP3    H143625   4.852   3.697   6.497
14580TIP3    H243626   4.969   3.722   6.403
14581TIP3   OH243627   5.416   3.647   6.353
14581TIP3    H143628   5.453   3.699   6.278
14581TIP3    H243629   5.321   3.669   6.347
14582TIP3   OH243630   5.511   3.746   6.117
14582TIP3    H143631   5.585   3.695   6.076
14582TIP3    H243632   5.545   3.837   6.102
14583TIP3   OH243633   4.142   3.476   6.464
14583TIP3    H143634   4.050   3.444   6.464
14583TIP3    H243635   4.191   3.391   6.459
14584TIP3   OH243636   3.932   3.346   6.112
14584TIP3    H143637   3.961   3.402   6.039
14584TIP3    H243638   3.903   3.412   6.178
14585TIP3   OH243639   4.587   3.507   6.345
14585TIP3    H143640   4.643   3.556   6.282
14585TIP3    H243641   4.612   3.549   6.429
14586TIP3   OH243642   5.130   3.655   6.329
14586TIP3    H143643   5.132   3.619   6.239
14586TIP3    H243644   5.118   3.574   6.383
14587TIP3   OH243645   5.163   3.579   5.890
14587TIP3    H143646   5.077   3.623   5.903
14587TIP3    H243647   5.147   3.493   5.936
14588TIP3   OH243648   3.640   4.927   5.897
14588TIP3    H143649   3.569   4.874   5.861
14588TIP3    H243650   3.624   5.013   5.854
14589TIP3   OH243651   4.047   3.504   5.876
14589TIP3    H143652   4.095   3.443   5.817
14589TIP3    H243653   4.120   3.559   5.911
14590TIP3   OH243654   4.558   3.680   5.974
14590TIP3    H143655   4.621   3.636   6.033
14590TIP3    H243656   4.578   3.774   5.998
14591TIP3   OH243657   4.417   5.109   5.470
14591TIP3    H143658   4.510   5.122   5.441
14591TIP3    H243659   4.394   5.031   5.418
14592TIP3   OH243660   5.132   5.218   5.562
14592TIP3    H143661   5.134   5.119   5.555
14592TIP3    H243662   5.109   5.238   5.470
14593TIP3   OH243663   4.349   3.755   7.354
14593TIP3    H143664   4.316   3.684   7.412
14593TIP3    H243665   4.443   3.757   7.380
14594TIP3   OH243666   4.597   3.757   7.475
14594TIP3    H143667   4.683   3.735   7.433
14594TIP3    H243668   4.589   3.684   7.540
14595TIP3   OH243669   5.425   3.816   7.261
14595TIP3    H143670   5.445   3.785   7.352
14595TIP3    H243671   5.513   3.812   7.219
14596TIP3   OH243672   5.374   5.380   6.712
14596TIP3    H143673   5.286   5.343   6.694
14596TIP3    H243674   5.352   5.459   6.763
14597TIP3   OH243675   6.625   4.744   5.516
14597TIP3    H143676   6.597   4.836   5.497
14597TIP3    H243677   6.546   4.695   5.489
14598TIP3   OH243678   6.630   4.738   5.901
14598TIP3    H143679   6.663   4.716   5.990
14598TIP3    H243680   6.587   4.656   5.874
14599TIP3   OH243681   5.929   4.636   6.263
14599TIP3    H143682   5.960   4.569   6.327
14599TIP3    H243683   6.003   4.697   6.261
14600TIP3   OH243684   6.876   5.039   5.583
14600TIP3    H143685   6.857   4.976   5.654
14600TIP3    H243686   6.902   5.118   5.634
14601TIP3   OH243687   5.899   5.045   5.988
14601TIP3    H143688   5.891   4.947   5.991
14601TIP3    H243689   5.996   5.055   5.985
14602TIP3   OH243690   5.605   4.245   5.776
14602TIP3    H143691   5.559   4.330   5.791
14602TIP3    H243692   5.535   4.196   5.730
14603TIP3   OH243693   5.665   4.536   5.949
14603TIP3    H143694   5.716   4.459   5.984
14603TIP3    H243695   5.724   4.569   5.880
14604TIP3   OH243696   6.519   5.503   5.597
14604TIP3    H143697   6.568   5.431   5.552
14604TIP3    H243698   6.513   5.471   5.687
14605TIP3   OH243699   6.427   4.965   5.949
14605TIP3    H143700   6.467   4.890   5.902
14605TIP3    H243701   6.510   5.012   5.975
14606TIP3   OH243702   7.441   4.288   5.946
14606TIP3    H143703   7.468   4.368   5.997
14606TIP3    H243704   7.468   4.313   5.856
14607TIP3   OH243705   6.840   4.469   5.982
14607TIP3    H143706   6.880   4.383   6.002
14607TIP3    H243707   6.809   4.455   5.890
14608TIP3   OH243708   6.178   4.126   5.947
14608TIP3    H143709   6.159   4.199   5.884
14608TIP3    H243710   6.131   4.053   5.902
14609TIP3   OH243711   6.862   4.210   5.579
14609TIP3    H143712   6.940   4.197   5.638
14609TIP3    H243713   6.904   4.248   5.502
14610TIP3   OH243714   5.811   4.328   6.054
14610TIP3    H143715   5.894   4.310   6.101
14610TIP3    H243716   5.824   4.273   5.974
14611TIP3   OH243717   6.252   4.526   5.845
14611TIP3    H143718   6.346   4.501   5.859
14611TIP3    H243719   6.213   4.442   5.813
14612TIP3   OH243720   7.515   4.494   6.115
14612TIP3    H143721   7.429   4.540   6.106
14612TIP3    H243722   7.520   4.489   6.212
14613TIP3   OH243723   6.171   4.113   6.384
14613TIP3    H143724   6.114   4.148   6.312
14613TIP3    H243725   6.116   4.136   6.461
14614TIP3   OH243726   6.525   4.966   5.383
14614TIP3    H143727   6.476   4.945   5.302
14614TIP3    H243728   6.479   5.048   5.411
14615TIP3   OH243729   6.281   4.885   6.175
14615TIP3    H143730   6.219   4.952   6.212
14615TIP3    H243731   6.323   4.936   6.103
14616TIP3   OH243732   7.090   4.229   5.734
14616TIP3    H143733   7.072   4.173   5.810
14616TIP3    H243734   7.130   4.308   5.777
14617TIP3   OH243735   6.046   4.224   6.165
14617TIP3    H143736   6.107   4.299   6.188
14617TIP3    H243737   6.094   4.185   6.089
14618TIP3   OH243738   6.109   5.080   6.272
14618TIP3    H143739   6.085   5.167   6.235
14618TIP3    H243740   6.031   5.064   6.328
14619TIP3   OH243741   5.503   4.769   5.514
14619TIP3    H143742   5.461   4.799   5.432
14619TIP3    H243743   5.539   4.852   5.550
14620TIP3   OH243744   6.943   5.285   5.745
14620TIP3    H143745   6.854   5.277   5.787
14620TIP3    H243746   6.935   5.372   5.703
14621TIP3   OH243747   7.234   4.187   6.112
14621TIP3    H143748   7.147   4.218   6.082
14621TIP3    H243749   7.293   4.219   6.041
14622TIP3   OH243750   6.532   3.832   6.095
14622TIP3    H143751   6.543   3.739   6.124
14622TIP3    H243752   6.450   3.858   6.142
14623TIP3   OH243753   6.646   5.330   5.423
14623TIP3    H143754   6.698   5.249   5.402
14623TIP3    H243755   6.706   5.397   5.383
14624TIP3   OH243756   6.789   5.113   5.330
14624TIP3    H143757   6.733   5.040   5.304
14624TIP3    H243758   6.827   5.080   5.415
14625TIP3   OH243759   7.169   5.198   6.093
14625TIP3    H143760   7.157   5.121   6.034
14625TIP3    H243761   7.150   5.273   6.033
14626TIP3   OH243762   6.459   4.590   5.349
14626TIP3    H143763   6.378   4.641   5.333
14626TIP3    H243764   6.501   4.590   5.262
14627TIP3   OH243765   6.420   4.375   5.066
14627TIP3    H143766   6.486   4.429   5.113
14627TIP3    H243767   6.478   4.313   5.018
14628TIP3   OH243768   7.364   4.834   5.934
14628TIP3    H143769   7.281   4.886   5.942
14628TIP3    H243770   7.393   4.861   5.845
14629TIP3   OH243771   6.806   4.675   5.329
14629TIP3    H143772   6.738   4.705   5.394
14629TIP3    H243773   6.875   4.650   5.391
14630TIP3   OH243774   7.043   4.714   6.237
14630TIP3    H143775   7.042   4.796   6.289
14630TIP3    H243776   6.958   4.720   6.190
14631TIP3   OH243777   6.040   4.672   5.739
14631TIP3    H143778   5.998   4.615   5.671
14631TIP3    H243779   6.117   4.618   5.767
14632TIP3   OH243780   6.170   5.084   5.887
14632TIP3    H143781   6.150   5.043   5.801
14632TIP3    H243782   6.260   5.049   5.905
14633TIP3   OH243783   6.180   4.642   6.093
14633TIP3    H143784   6.211   4.623   6.002
14633TIP3    H243785   6.220   4.729   6.112
14634TIP3   OH243786   6.704   5.281   5.870
14634TIP3    H143787   6.688   5.362   5.920
14634TIP3    H243788   6.686   5.210   5.935
14635TIP3   OH243789   6.314   5.199   6.418
14635TIP3    H143790   6.254   5.262   6.464
14635TIP3    H243791   6.249   5.147   6.368
14636TIP3   OH243792   6.653   4.528   5.148
14636TIP3    H143793   6.708   4.591   5.198
14636TIP3    H243794   6.676   4.553   5.055
14637TIP3   OH243795   6.070   4.752   6.520
14637TIP3    H143796   6.076   4.841   6.561
14637TIP3    H243797   5.974   4.736   6.532
14638TIP3   OH243798   6.394   5.210   5.423
14638TIP3    H143799   6.472   5.265   5.440
14638TIP3    H243800   6.330   5.273   5.387
14639TIP3   OH243801   6.109   5.366   6.505
14639TIP3    H143802   6.072   5.368   6.415
14639TIP3    H243803   6.030   5.344   6.560
14640TIP3   OH243804   7.164   3.775   5.197
14640TIP3    H143805   7.083   3.795   5.248
14640TIP3    H243806   7.174   3.855   5.142
14641TIP3   OH243807   5.906   4.516   5.542
14641TIP3    H143808   5.841   4.564   5.486
14641TIP3    H243809   5.863   4.430   5.551
14642TIP3   OH243810   5.687   4.898   6.451
14642TIP3    H143811   5.621   4.877   6.382
14642TIP3    H243812   5.725   4.811   6.474
14643TIP3   OH243813   5.542   5.091   6.085
14643TIP3    H143814   5.639   5.087   6.075
14643TIP3    H243815   5.533   5.170   6.140
14644TIP3   OH243816   7.407   5.544   6.141
14644TIP3    H143817   7.405   5.447   6.155
14644TIP3    H243818   7.323   5.570   6.185
14645TIP3   OH243819   6.512   5.328   6.275
14645TIP3    H143820   6.511   5.421   6.306
14645TIP3    H243821   6.440   5.289   6.329
14646TIP3   OH243822   6.274   5.459   5.225
14646TIP3    H143823   6.224   5.443   5.143
14646TIP3    H243824   6.242   5.547   5.253
14647TIP3   OH243825   5.710   5.307   5.610
14647TIP3    H143826   5.758   5.298   5.696
14647TIP3    H243827   5.659   5.224   5.609
14648TIP3   OH243828   6.463   5.355   4.872
14648TIP3    H143829   6.532   5.304   4.823
14648TIP3    H243830   6.506   5.367   4.959
14649TIP3   OH243831   6.526   5.409   5.138
14649TIP3    H143832   6.438   5.419   5.180
14649TIP3    H243833   6.578   5.373   5.212
14650TIP3   OH243834   7.298   4.675   6.417
14650TIP3    H143835   7.217   4.688   6.367
14650TIP3    H243836   7.316   4.580   6.398
14651TIP3   OH243837   5.894   5.080   6.436
14651TIP3    H143838   5.940   5.069   6.521
14651TIP3    H243839   5.817   5.020   6.448
14652TIP3   OH243840   6.293   3.899   6.230
14652TIP3    H143841   6.204   3.870   6.199
14652TIP3    H243842   6.269   3.986   6.265
14653TIP3   OH243843   6.823   4.022   6.426
14653TIP3    H143844   6.901   3.991   6.478
14653TIP3    H243845   6.748   3.984   6.474
14654TIP3   OH243846   7.048   4.446   6.328
14654TIP3    H143847   7.006   4.445   6.417
14654TIP3    H243848   7.036   4.538   6.300
14655TIP3   OH243849   6.727   4.578   4.893
14655TIP3    H143850   6.693   4.553   4.805
14655TIP3    H243851   6.807   4.627   4.868
14656TIP3   OH243852   6.439   3.952   5.195
14656TIP3    H143853   6.404   3.950   5.286
14656TIP3    H243854   6.398   3.870   5.160
14657TIP3   OH243855   6.223   4.421   6.242
14657TIP3    H143856   6.172   4.444   6.323
14657TIP3    H243857   6.208   4.502   6.188
14658TIP3   OH243858   6.108   4.306   5.757
14658TIP3    H143859   6.014   4.282   5.774
14658TIP3    H243860   6.120   4.266   5.668
14659TIP3   OH243861   6.600   4.394   5.485
14659TIP3    H143862   6.546   4.464   5.442
14659TIP3    H243863   6.658   4.366   5.411
14660TIP3   OH243864   6.773   4.670   6.568
14660TIP3    H143865   6.752   4.597   6.630
14660TIP3    H243866   6.867   4.686   6.590
14661TIP3   OH243867   6.752   4.421   5.724
14661TIP3    H143868   6.691   4.450   5.653
14661TIP3    H243869   6.781   4.336   5.686
14662TIP3   OH243870   6.044   4.453   6.451
14662TIP3    H143871   6.063   4.523   6.515
14662TIP3    H243872   6.031   4.375   6.507
14663TIP3   OH243873   6.093   3.928   5.161
14663TIP3    H143874   6.083   3.927   5.258
14663TIP3    H243875   6.016   3.981   5.135
14664TIP3   OH243876   5.635   3.969   6.034
14664TIP3    H143877   5.710   4.004   6.086
14664TIP3    H243878   5.676   3.944   5.950
14665TIP3   OH243879   5.605   3.954   5.551
14665TIP3    H143880   5.649   3.992   5.471
14665TIP3    H243881   5.544   4.027   5.571
14666TIP3   OH243882   6.762   4.667   6.146
14666TIP3    H143883   6.797   4.596   6.087
14666TIP3    H243884   6.734   4.614   6.223
14667TIP3   OH243885   6.435   4.133   5.816
14667TIP3    H143886   6.354   4.129   5.872
14667TIP3    H243887   6.505   4.122   5.883
14668TIP3   OH243888   5.868   4.185   5.826
14668TIP3    H143889   5.774   4.193   5.798
14668TIP3    H243890   5.891   4.094   5.800
14669TIP3   OH243891   6.137   4.180   5.515
14669TIP3    H143892   6.231   4.197   5.492
14669TIP3    H243893   6.089   4.203   5.432
14670TIP3   OH243894   6.924   4.206   6.015
14670TIP3    H143895   6.895   4.217   6.108
14670TIP3    H243896   6.860   4.141   5.983
14671TIP3   OH243897   5.982   4.212   5.294
14671TIP3    H143898   5.909   4.170   5.246
14671TIP3    H243899   6.033   4.250   5.219
14672TIP3   OH243900   7.098   5.893   6.238
14672TIP3    H143901   7.093   5.919   6.145
14672TIP3    H243902   7.173   5.945   6.270
14673TIP3   OH243903   6.057   5.000   6.658
14673TIP3    H143904   6.134   5.034   6.708
14673TIP3    H243905   5.989   5.004   6.729
14674TIP3   OH243906   6.518   4.458   5.915
14674TIP3    H143907   6.590   4.419   5.864
14674TIP3    H243908   6.528   4.416   6.002
14675TIP3   OH243909   6.040   3.945   5.794
14675TIP3    H143910   6.007   3.865   5.840
14675TIP3    H243911   6.089   3.907   5.719
14676TIP3   OH243912   6.494   4.354   6.211
14676TIP3    H143913   6.406   4.395   6.220
14676TIP3    H243914   6.553   4.417   6.257
14677TIP3   OH243915   6.234   4.744   5.301
14677TIP3    H143916   6.161   4.680   5.288
14677TIP3    H243917   6.213   4.779   5.391
14678TIP3   OH243918   7.131   4.980   5.928
14678TIP3    H143919   7.155   5.031   5.847
14678TIP3    H243920   7.046   4.940   5.903
14679TIP3   OH243921   6.687   4.058   5.168
14679TIP3    H143922   6.592   4.033   5.172
14679TIP3    H243923   6.685   4.154   5.183
14680TIP3   OH243924   6.627   5.062   6.298
14680TIP3    H143925   6.656   5.046   6.389
14680TIP3    H243926   6.591   5.152   6.302
14681TIP3   OH243927   6.775   4.314   5.265
14681TIP3    H143928   6.856   4.299   5.214
14681TIP3    H243929   6.735   4.390   5.217
14682TIP3   OH243930   5.923   4.766   5.975
14682TIP3    H143931   5.961   4.738   5.890
14682TIP3    H243932   5.965   4.704   6.037
14683TIP3   OH243933   6.376   4.893   5.115
14683TIP3    H143934   6.329   4.979   5.121
14683TIP3    H243935   6.322   4.839   5.177
14684TIP3   OH243936   5.807   4.684   6.586
14684TIP3    H143937   5.824   4.676   6.682
14684TIP3    H243938   5.732   4.622   6.576
14685TIP3   OH243939   6.531   4.801   6.609
14685TIP3    H143940   6.472   4.745   6.557
14685TIP3    H243941   6.619   4.768   6.581
14686TIP3   OH243942   6.790   5.318   6.195
14686TIP3    H143943   6.693   5.321   6.206
14686TIP3    H243944   6.819   5.372   6.271
14687TIP3   OH243945   7.211   4.401   5.082
14687TIP3    H143946   7.141   4.350   5.035
14687TIP3    H243947   7.194   4.487   5.038
14688TIP3   OH243948   7.419   5.252   6.182
14688TIP3    H143949   7.321   5.247   6.175
14688TIP3    H243950   7.445   5.223   6.092
14689TIP3   OH243951   6.923   5.208   5.012
14689TIP3    H143952   6.872   5.152   5.072
14689TIP3    H243953   6.895   5.178   4.924
14690TIP3   OH243954   6.896   4.845   5.844
14690TIP3    H143955   6.803   4.819   5.859
14690TIP3    H243956   6.930   4.764   5.800
14691TIP3   OH243957   6.024   5.070   5.598
14691TIP3    H143958   6.023   5.153   5.546
14691TIP3    H243959   5.930   5.054   5.611
14692TIP3   OH243960   5.591   4.375   5.300
14692TIP3    H143961   5.633   4.461   5.317
14692TIP3    H243962   5.508   4.384   5.351
14693TIP3   OH243963   6.163   4.836   5.545
14693TIP3    H143964   6.127   4.926   5.562
14693TIP3    H243965   6.125   4.786   5.619
14694TIP3   OH243966   6.294   5.415   6.068
14694TIP3    H143967   6.334   5.488   6.018
14694TIP3    H243968   6.370   5.381   6.117
14695TIP3   OH243969   5.943   5.311   5.453
14695TIP3    H143970   5.858   5.319   5.500
14695TIP3    H243971   5.975   5.404   5.457
14696TIP3   OH243972   6.680   5.048   6.029
14696TIP3    H143973   6.669   5.047   6.127
14696TIP3    H243974   6.763   4.999   6.019
14697TIP3   OH243975   6.657   4.946   4.904
14697TIP3    H143976   6.708   4.917   4.984
14697TIP3    H243977   6.567   4.923   4.933
14698TIP3   OH243978   6.931   5.580   6.077
14698TIP3    H143979   6.849   5.527   6.069
14698TIP3    H243980   6.916   5.646   6.006
14699TIP3   OH243981   6.993   5.435   4.744
14699TIP3    H143982   7.036   5.503   4.690
14699TIP3    H243983   6.909   5.479   4.767
14700TIP3   OH243984   6.002   4.193   6.594
14700TIP3    H143985   5.907   4.216   6.602
14700TIP3    H243986   6.006   4.115   6.650
14701TIP3   OH243987   6.816   4.868   5.122
14701TIP3    H143988   6.808   4.808   5.198
14701TIP3    H243989   6.913   4.873   5.112
14702TIP3   OH243990   5.732   5.276   6.227
14702TIP3    H143991   5.787   5.206   6.265
14702TIP3    H243992   5.750   5.349   6.287
14703TIP3   OH243993   6.026   4.923   4.904
14703TIP3    H143994   6.098   4.859   4.903
14703TIP3    H243995   6.001   4.927   4.999
14704TIP3   OH243996   5.975   4.930   5.178
14704TIP3    H143997   6.037   4.903   5.248
14704TIP3    H243998   5.976   5.028   5.187
14705TIP3   OH243999   5.704   4.623   5.387
14705TIP3    H144000   5.636   4.665   5.444
14705TIP3    H244001   5.711   4.693   5.318
14706TIP3   OH244002   6.852   4.252   6.274
14706TIP3    H144003   6.929   4.299   6.310
14706TIP3    H244004   6.842   4.176   6.336
14707TIP3   OH244005   6.730   4.002   5.443
14707TIP3    H144006   6.717   4.027   5.350
14707TIP3    H244007   6.765   4.084   5.483
14708TIP3   OH244008   6.237   5.126   5.128
14708TIP3    H144009   6.148   5.145   5.164
14708TIP3    H244010   6.255   5.209   5.083
14709TIP3   OH244011   6.422   4.189   5.545
14709TIP3    H144012   6.486   4.261   5.530
14709TIP3    H244013   6.426   4.179   5.643
14710TIP3   OH244014   6.691   4.505   6.354
14710TIP3    H144015   6.713   4.561   6.431
14710TIP3    H244016   6.750   4.428   6.368
14711TIP3   OH244017   6.563   3.911   5.648
14711TIP3    H144018   6.564   3.985   5.711
14711TIP3    H244019   6.624   3.945   5.578
14712TIP3   OH244020   5.982   5.202   5.201
14712TIP3    H144021   5.945   5.268   5.139
14712TIP3    H244022   5.963   5.243   5.288
14713TIP3   OH244023   6.077   3.913   5.438
14713TIP3    H144024   6.074   4.004   5.473
14713TIP3    H244025   6.173   3.896   5.445
14714TIP3   OH244026   7.317   4.420   6.317
14714TIP3    H144027   7.220   4.411   6.326
14714TIP3    H244028   7.336   4.350   6.254
14715TIP3   OH244029   6.981   4.606   5.720
14715TIP3    H144030   6.906   4.545   5.726
14715TIP3    H244031   7.053   4.557   5.763
14716TIP3   OH244032   5.702   4.831   5.206
14716TIP3    H144033   5.767   4.903   5.201
14716TIP3    H244034   5.731   4.778   5.129
14717TIP3   OH244035   5.636   4.106   5.326
14717TIP3    H144036   5.640   4.204   5.320
14717TIP3    H244037   5.558   4.089   5.272
14718TIP3   OH244038   6.951   5.555   5.669
14718TIP3    H144039   6.908   5.602   5.594
14718TIP3    H244040   7.045   5.575   5.649
14719TIP3   OH244041   6.027   3.824   6.199
14719TIP3    H144042   5.996   3.793   6.111
14719TIP3    H244043   6.016   3.744   6.253
14720TIP3   OH244044   5.572   5.046   5.583
14720TIP3    H144045   5.498   5.073   5.639
14720TIP3    H244046   5.542   5.082   5.496
14721TIP3   OH244047   5.722   5.588   6.649
14721TIP3    H144048   5.807   5.588   6.699
14721TIP3    H244049   5.698   5.494   6.655
14722TIP3   OH244050   6.205   5.548   6.696
14722TIP3    H144051   6.300   5.529   6.700
14722TIP3    H244052   6.177   5.489   6.623
14723TIP3   OH244053   6.844   5.455   6.427
14723TIP3    H144054   6.836   5.386   6.497
14723TIP3    H244055   6.920   5.508   6.459
14724TIP3   OH244056   6.637   5.189   4.737
14724TIP3    H144057   6.638   5.100   4.776
14724TIP3    H244058   6.657   5.172   4.643
14725TIP3   OH244059   5.856   4.993   6.846
14725TIP3    H144060   5.863   4.897   6.856
14725TIP3    H244061   5.764   5.002   6.813
14726TIP3   OH244062   5.826   4.640   5.046
14726TIP3    H144063   5.883   4.615   5.120
14726TIP3    H244064   5.888   4.640   4.972
14727TIP3   OH244065   6.463   5.078   6.623
14727TIP3    H144066   6.419   5.097   6.537
14727TIP3    H244067   6.492   4.985   6.613
14728TIP3   OH244068   6.297   4.827   4.849
14728TIP3    H144069   6.327   4.856   4.938
14728TIP3    H244070   6.331   4.735   4.847
14729TIP3   OH244071   6.952   5.086   6.229
14729TIP3    H144072   7.028   5.131   6.187
14729TIP3    H244073   6.883   5.154   6.217
14730TIP3   OH244074   5.971   4.719   6.836
14730TIP3    H144075   6.054   4.675   6.813
14730TIP3    H244076   5.994   4.760   6.922
14731TIP3   OH244077   6.042   4.547   5.267
14731TIP3    H144078   6.008   4.507   5.348
14731TIP3    H244079   6.075   4.469   5.218
14732TIP3   OH244080   6.309   4.610   6.496
14732TIP3    H144081   6.231   4.669   6.498
14732TIP3    H244082   6.358   4.644   6.417
14733TIP3   OH244083   6.139   4.339   5.110
14733TIP3    H144084   6.110   4.342   5.016
14733TIP3    H244085   6.236   4.344   5.099
14734TIP3   OH244086   6.823   5.011   6.628
14734TIP3    H144087   6.905   4.989   6.582
14734TIP3    H244088   6.821   4.946   6.700
14735TIP3   OH244089   6.963   4.672   4.771
14735TIP3    H144090   6.949   4.626   4.686
14735TIP3    H244091   6.933   4.762   4.747
14736TIP3   OH244092   6.424   4.395   6.619
14736TIP3    H144093   6.430   4.323   6.554
14736TIP3    H244094   6.385   4.467   6.565
14737TIP3   OH244095   6.432   4.184   6.423
14737TIP3    H144096   6.460   4.232   6.342
14737TIP3    H244097   6.337   4.169   6.404
14738TIP3   OH244098   6.459   4.719   6.301
14738TIP3    H144099   6.543   4.733   6.256
14738TIP3    H244100   6.402   4.786   6.257
14739TIP3   OH244101   7.042   4.686   6.683
14739TIP3    H144102   7.089   4.601   6.695
14739TIP3    H244103   7.113   4.743   6.650
14740TIP3   OH244104   7.082   4.940   6.416
14740TIP3    H144105   7.024   4.995   6.357
14740TIP3    H244106   7.170   4.962   6.377
14741TIP3   OH244107   6.310   4.512   6.853
14741TIP3    H144108   6.236   4.451   6.869
14741TIP3    H244109   6.340   4.485   6.764
14742TIP3   OH244110   6.549   3.950   6.498
14742TIP3    H144111   6.514   4.037   6.465
14742TIP3    H244112   6.511   3.889   6.432
14743TIP3   OH244113   6.690   4.453   6.711
14743TIP3    H144114   6.690   4.445   6.808
14743TIP3    H244115   6.598   4.429   6.690
14744TIP3   OH244116   6.920   4.402   6.560
14744TIP3    H144117   6.848   4.407   6.625
14744TIP3    H244118   6.995   4.372   6.618
14745TIP3   OH244119   7.126   4.336   6.721
14745TIP3    H144120   7.168   4.248   6.729
14745TIP3    H244121   7.162   4.382   6.799
14746TIP3   OH244122   6.145   4.294   6.907
14746TIP3    H144123   6.191   4.224   6.859
14746TIP3    H244124   6.180   4.281   6.998
14747TIP3   OH244125   6.629   3.932   6.753
14747TIP3    H144126   6.709   3.883   6.785
14747TIP3    H244127   6.669   3.975   6.676
14748TIP3   OH244128   6.721   4.169   6.911
14748TIP3    H144129   6.688   4.100   6.852
14748TIP3    H244130   6.648   4.234   6.910
14749TIP3   OH244131   5.940   5.404   5.010
14749TIP3    H144132   6.036   5.397   4.999
14749TIP3    H244133   5.918   5.454   4.929
14750TIP3   OH244134   5.335   5.395   5.644
14750TIP3    H144135   5.274   5.329   5.606
14750TIP3    H244136   5.384   5.340   5.709
14751TIP3   OH244137   5.474   5.249   5.830
14751TIP3    H144138   5.466   5.175   5.892
14751TIP3    H244139   5.527   5.311   5.884
14752TIP3   OH244140   7.206   5.643   5.628
14752TIP3    H144141   7.228   5.678   5.717
14752TIP3    H244142   7.263   5.696   5.571
14753TIP3   OH244143   7.233   5.667   5.909
14753TIP3    H144144   7.189   5.579   5.906
14753TIP3    H244145   7.307   5.647   5.968
14754TIP3   OH244146   7.279   5.345   6.482
14754TIP3    H144147   7.207   5.353   6.547
14754TIP3    H244148   7.320   5.434   6.487
14755TIP3   OH244149   7.101   4.858   5.103
14755TIP3    H144150   7.166   4.926   5.080
14755TIP3    H244151   7.139   4.820   5.185
14756TIP3   OH244152   7.216   4.735   5.325
14756TIP3    H144153   7.158   4.748   5.401
14756TIP3    H244154   7.301   4.772   5.358
14757TIP3   OH244155   7.279   5.117   5.739
14757TIP3    H144156   7.332   5.054   5.687
14757TIP3    H244157   7.272   5.193   5.678
14758TIP3   OH244158   7.108   5.416   5.934
14758TIP3    H144159   7.037   5.461   5.985
14758TIP3    H244160   7.057   5.371   5.864
14759TIP3   OH244161   7.161   4.634   4.954
14759TIP3    H144162   7.090   4.634   4.886
14759TIP3    H244163   7.132   4.712   5.007
14760TIP3   OH244164   7.021   4.309   4.917
14760TIP3    H144165   6.994   4.343   4.831
14760TIP3    H244166   7.001   4.213   4.905
14761TIP3   OH244167   5.663   4.652   6.202
14761TIP3    H144168   5.661   4.623   6.108
14761TIP3    H244169   5.761   4.656   6.217
14762TIP3   OH244170   7.326   5.007   6.310
14762TIP3    H144171   7.398   4.941   6.302
14762TIP3    H244172   7.354   5.077   6.249
14763TIP3   OH244173   7.511   4.813   6.321
14763TIP3    H144174   7.438   4.762   6.363
14763TIP3    H244175   7.586   4.751   6.339
14764TIP3   OH244176   6.974   4.043   4.900
14764TIP3    H144177   7.051   4.007   4.947
14764TIP3    H244178   6.903   3.979   4.916
14765TIP3   OH244179   7.195   4.469   5.839
14765TIP3    H144180   7.281   4.498   5.804
14765TIP3    H244181   7.203   4.505   5.930
14766TIP3   OH244182   7.259   4.615   6.069
14766TIP3    H144183   7.185   4.648   6.123
14766TIP3    H244184   7.294   4.697   6.029
14767TIP3   OH244185   5.876   4.337   6.868
14767TIP3    H144186   5.974   4.335   6.876
14767TIP3    H244187   5.853   4.254   6.913
14768TIP3   OH244188   7.143   4.061   5.390
14768TIP3    H144189   7.186   4.033   5.473
14768TIP3    H244190   7.078   3.988   5.379
14769TIP3   OH244191   5.842   4.034   6.208
14769TIP3    H144192   5.906   3.959   6.215
14769TIP3    H244193   5.903   4.109   6.199
14770TIP3   OH244194   5.645   4.306   6.280
14770TIP3    H144195   5.695   4.303   6.195
14770TIP3    H244196   5.667   4.395   6.311
14771TIP3   OH244197   7.598   4.362   6.407
14771TIP3    H144198   7.571   4.375   6.501
14771TIP3    H244199   7.561   4.274   6.387
14772TIP3   OH244200   7.224   3.982   5.018
14772TIP3    H144201   7.263   3.906   4.970
14772TIP3    H244202   7.293   4.049   5.008
14773TIP3   OH244203   5.629   3.810   5.778
14773TIP3    H144204   5.535   3.808   5.805
14773TIP3    H244205   5.626   3.870   5.700
14774TIP3   OH244206   6.786   5.514   5.285
14774TIP3    H144207   6.839   5.504   5.203
14774TIP3    H244208   6.835   5.582   5.333
14775TIP3   OH244209   5.851   3.897   6.597
14775TIP3    H144210   5.797   3.888   6.677
14775TIP3    H244211   5.785   3.932   6.534
14776TIP3   OH244212   5.892   5.313   6.671
14776TIP3    H144213   5.798   5.293   6.652
14776TIP3    H244214   5.893   5.306   6.768
14777TIP3   OH244215   6.068   5.350   6.217
14777TIP3    H144216   6.018   5.426   6.179
14777TIP3    H244217   6.153   5.366   6.172
14778TIP3   OH244218   6.511   5.593   6.355
14778TIP3    H144219   6.552   5.596   6.444
14778TIP3    H244220   6.576   5.645   6.303
14779TIP3   OH244221   6.691   5.745   6.217
14779TIP3    H144222   6.764   5.698   6.174
14779TIP3    H244223   6.741   5.805   6.277
14780TIP3   OH244224   7.484   4.105   6.316
14780TIP3    H144225   7.393   4.095   6.284
14780TIP3    H244226   7.519   4.014   6.304
14781TIP3   OH244227   5.742   5.606   6.243
14781TIP3    H144228   5.653   5.641   6.220
14781TIP3    H244229   5.756   5.647   6.329
14782TIP3   OH244230   5.978   5.584   6.099
14782TIP3    H144231   5.892   5.598   6.144
14782TIP3    H244232   5.959   5.620   6.010
14783TIP3   OH244233   6.405   5.613   5.896
14783TIP3    H144234   6.335   5.636   5.832
14783TIP3    H244235   6.418   5.700   5.941
14784TIP3   OH244236   6.674   5.553   5.947
14784TIP3    H144237   6.579   5.571   5.930
14784TIP3    H244238   6.716   5.632   5.909
14785TIP3   OH244239   6.882   5.745   5.865
14785TIP3    H144240   6.867   5.831   5.820
14785TIP3    H244241   6.906   5.687   5.789
14786TIP3   OH244242   5.654   5.401   5.986
14786TIP3    H144243   5.681   5.376   6.077
14786TIP3    H244244   5.727   5.358   5.936
14787TIP3   OH244245   5.848   5.273   5.843
14787TIP3    H144246   5.864   5.190   5.893
14787TIP3    H244247   5.939   5.310   5.840
14788TIP3   OH244248   6.114   5.367   5.847
14788TIP3    H144249   6.146   5.275   5.838
14788TIP3    H244250   6.158   5.391   5.931
14789TIP3   OH244251   6.685   4.021   5.925
14789TIP3    H144252   6.649   3.954   5.987
14789TIP3    H244253   6.763   3.975   5.889
14790TIP3   OH244254   7.213   3.903   5.837
14790TIP3    H144255   7.247   3.956   5.762
14790TIP3    H244256   7.117   3.919   5.833
14791TIP3   OH244257   7.309   4.010   5.603
14791TIP3    H144258   7.378   3.951   5.565
14791TIP3    H244259   7.354   4.096   5.601
14792TIP3   OH244260   5.939   3.732   5.951
14792TIP3    H144261   5.846   3.700   5.951
14792TIP3    H244262   5.987   3.647   5.948
14793TIP3   OH244263   5.727   3.602   5.598
14793TIP3    H144264   5.756   3.659   5.525
14793TIP3    H244265   5.698   3.669   5.664
14794TIP3   OH244266   6.384   3.767   5.834
14794TIP3    H144267   6.439   3.813   5.769
14794TIP3    H244268   6.417   3.804   5.917
14795TIP3   OH244269   6.932   3.913   5.812
14795TIP3    H144270   6.930   3.869   5.727
14795TIP3    H244271   6.916   3.836   5.872
14796TIP3   OH244272   6.960   3.839   5.376
14796TIP3    H144273   6.871   3.877   5.390
14796TIP3    H244274   6.949   3.753   5.423
14797TIP3   OH244275   5.441   5.170   5.386
14797TIP3    H144276   5.358   5.136   5.347
14797TIP3    H244277   5.436   5.262   5.356
14798TIP3   OH244278   5.843   3.759   5.363
14798TIP3    H144279   5.892   3.699   5.304
14798TIP3    H244280   5.915   3.815   5.398
14799TIP3   OH244281   6.354   3.938   5.459
14799TIP3    H144282   6.414   3.892   5.520
14799TIP3    H244283   6.375   4.031   5.484
14800TIP3   OH244284   6.208   5.358   4.961
14800TIP3    H144285   6.300   5.373   4.929
14800TIP3    H244286   6.177   5.296   4.894
14801TIP3   OH244287   6.932   5.482   5.053
14801TIP3    H144288   6.936   5.385   5.038
14801TIP3    H244289   6.892   5.512   4.969
14802TIP3   OH244290   7.223   4.069   6.744
14802TIP3    H144291   7.242   4.044   6.836
14802TIP3    H244292   7.313   4.069   6.705
14803TIP3   OH244293   7.160   5.624   6.239
14803TIP3    H144294   7.081   5.593   6.191
14803TIP3    H244295   7.140   5.720   6.244
14804TIP3   OH244296   8.425   4.997   5.006
14804TIP3    H144297   8.397   5.088   4.985
14804TIP3    H244298   8.350   4.947   4.971
14805TIP3   OH244299   8.424   4.998   5.388
14805TIP3    H144300   8.456   4.969   5.475
14805TIP3    H244301   8.384   4.917   5.353
14806TIP3   OH244302   7.723   4.890   5.754
14806TIP3    H144303   7.755   4.823   5.818
14806TIP3    H244304   7.799   4.949   5.751
14807TIP3   OH244305   8.668   5.300   5.070
14807TIP3    H144306   8.655   5.231   5.136
14807TIP3    H244307   8.700   5.374   5.123
14808TIP3   OH244308   7.696   5.299   5.475
14808TIP3    H144309   7.686   5.202   5.479
14808TIP3    H244310   7.793   5.308   5.469
14809TIP3   OH244311   7.342   4.480   5.298
14809TIP3    H144312   7.330   4.578   5.303
14809TIP3    H244313   7.307   4.464   5.207
14810TIP3   OH244314   7.466   4.787   5.418
14810TIP3    H144315   7.517   4.715   5.463
14810TIP3    H244316   7.536   4.837   5.375
14811TIP3   OH244317   8.321   5.763   5.087
14811TIP3    H144318   8.363   5.691   5.035
14811TIP3    H244319   8.312   5.720   5.173
14812TIP3   OH244320   8.223   5.222   5.437
14812TIP3    H144321   8.263   5.146   5.390
14812TIP3    H244322   8.306   5.269   5.461
14813TIP3   OH244323   9.234   4.543   5.431
14813TIP3    H144324   9.265   4.625   5.476
14813TIP3    H244325   9.260   4.562   5.339
14814TIP3   OH244326   8.634   4.724   5.469
14814TIP3    H144327   8.680   4.639   5.486
14814TIP3    H244328   8.604   4.710   5.378
14815TIP3   OH244329   7.974   4.384   5.435
14815TIP3    H144330   7.956   4.455   5.370
14815TIP3    H244331   7.929   4.308   5.390
14816TIP3   OH244332   8.668   4.477   5.055
14816TIP3    H144333   8.740   4.461   5.120
14816TIP3    H244334   8.721   4.510   4.980
14817TIP3   OH244335   7.610   4.585   5.535
14817TIP3    H144336   7.691   4.569   5.588
14817TIP3    H244337   7.631   4.531   5.456
14818TIP3   OH244338   8.048   4.783   5.335
14818TIP3    H144339   8.143   4.759   5.347
14818TIP3    H244340   8.011   4.699   5.302
14819TIP3   OH244341   9.309   4.747   5.606
14819TIP3    H144342   9.226   4.796   5.588
14819TIP3    H244343   9.334   4.785   5.692
14820TIP3   OH244344   7.973   4.369   5.869
14820TIP3    H144345   7.911   4.404   5.802
14820TIP3    H244346   7.920   4.382   5.950
14821TIP3   OH244347   8.315   5.217   4.875
14821TIP3    H144348   8.274   5.200   4.789
14821TIP3    H244349   8.271   5.301   4.901
14822TIP3   OH244350   8.077   5.142   5.662
14822TIP3    H144351   8.016   5.209   5.699
14822TIP3    H244352   8.120   5.191   5.589
14823TIP3   OH244353   8.876   4.480   5.228
14823TIP3    H144354   8.877   4.424   5.307
14823TIP3    H244355   8.932   4.556   5.255
14824TIP3   OH244356   7.840   4.482   5.653
14824TIP3    H144357   7.903   4.554   5.677
14824TIP3    H244358   7.890   4.440   5.579
14825TIP3   OH244359   7.906   5.337   5.760
14825TIP3    H144360   7.881   5.423   5.722
14825TIP3    H244361   7.827   5.321   5.816
14826TIP3   OH244362   7.309   5.037   5.002
14826TIP3    H144363   7.259   5.093   4.940
14826TIP3    H244364   7.348   5.109   5.056
14827TIP3   OH244365   8.738   5.543   5.237
14827TIP3    H144366   8.648   5.534   5.275
14827TIP3    H244367   8.731   5.628   5.190
14828TIP3   OH244368   9.028   4.444   5.597
14828TIP3    H144369   8.941   4.472   5.562
14828TIP3    H244370   9.090   4.476   5.529
14829TIP3   OH244371   8.326   4.084   5.582
14829TIP3    H144372   8.313   3.989   5.601
14829TIP3    H244373   8.248   4.122   5.627
14830TIP3   OH244374   8.438   5.589   4.908
14830TIP3    H144375   8.488   5.507   4.889
14830TIP3    H244376   8.500   5.655   4.868
14831TIP3   OH244377   8.581   5.374   4.818
14831TIP3    H144378   8.546   5.294   4.778
14831TIP3    H244379   8.618   5.339   4.902
14832TIP3   OH244380   8.964   5.455   5.581
14832TIP3    H144381   8.955   5.378   5.521
14832TIP3    H244382   8.949   5.530   5.519
14833TIP3   OH244383   8.258   4.848   4.838
14833TIP3    H144384   8.177   4.900   4.817
14833TIP3    H244385   8.303   4.846   4.752
14834TIP3   OH244386   8.214   4.635   4.552
14834TIP3    H144387   8.282   4.685   4.601
14834TIP3    H244388   8.271   4.569   4.506
14835TIP3   OH244389   9.156   5.082   5.416
14835TIP3    H144390   9.078   5.141   5.423
14835TIP3    H244391   9.196   5.114   5.333
14836TIP3   OH244392   8.604   4.931   4.809
14836TIP3    H144393   8.549   4.956   4.887
14836TIP3    H244394   8.688   4.906   4.852
14837TIP3   OH244395   8.839   4.967   5.724
14837TIP3    H144396   8.839   5.053   5.771
14837TIP3    H244397   8.753   4.974   5.676
14838TIP3   OH244398   7.836   4.929   5.228
14838TIP3    H144399   7.794   4.872   5.161
14838TIP3    H244400   7.914   4.876   5.255
14839TIP3   OH244401   7.965   5.338   5.375
14839TIP3    H144402   7.946   5.303   5.286
14839TIP3    H244403   8.055   5.304   5.392
14840TIP3   OH244404   7.969   4.902   5.578
14840TIP3    H144405   8.005   4.878   5.490
14840TIP3    H244406   8.015   4.986   5.598
14841TIP3   OH244407   8.496   5.539   5.357
14841TIP3    H144408   8.484   5.618   5.412
14841TIP3    H244409   8.482   5.465   5.420
14842TIP3   OH244410   8.110   5.456   5.906
14842TIP3    H144411   8.050   5.518   5.951
14842TIP3    H244412   8.046   5.403   5.855
14843TIP3   OH244413   8.445   4.789   4.635
14843TIP3    H144414   8.503   4.849   4.686
14843TIP3    H244415   8.471   4.812   4.542
14844TIP3   OH244416   7.867   5.010   6.006
14844TIP3    H144417   7.872   5.097   6.048
14844TIP3    H244418   7.771   4.991   6.018
14845TIP3   OH244419   8.188   5.468   4.915
14845TIP3    H144420   8.269   5.522   4.924
14845TIP3    H244421   8.128   5.527   4.868
14846TIP3   OH244422   7.905   5.624   5.991
14846TIP3    H144423   7.869   5.625   5.900
14846TIP3    H244424   7.825   5.602   6.045
14847TIP3   OH244425   8.957   4.034   4.688
14847TIP3    H144426   8.875   4.054   4.736
14847TIP3    H244427   8.968   4.114   4.633
14848TIP3   OH244428   7.698   4.770   5.038
14848TIP3    H144429   7.634   4.814   4.978
14848TIP3    H244430   7.671   4.678   5.031
14849TIP3   OH244431   8.758   5.397   4.230
14849TIP3    H144432   8.769   5.493   4.215
14849TIP3    H244433   8.851   5.365   4.223
14850TIP3   OH244434   7.484   5.155   5.938
14850TIP3    H144435   7.416   5.133   5.871
14850TIP3    H244436   7.520   5.067   5.963
14851TIP3   OH244437   7.338   5.347   5.572
14851TIP3    H144438   7.434   5.349   5.564
14851TIP3    H244439   7.322   5.428   5.623
14852TIP3   OH244440   9.198   5.800   5.622
14852TIP3    H144441   9.201   5.704   5.636
14852TIP3    H244442   9.117   5.823   5.671
14853TIP3   OH244443   8.308   5.585   5.762
14853TIP3    H144444   8.306   5.678   5.794
14853TIP3    H244445   8.236   5.545   5.816
14854TIP3   OH244446   8.071   5.715   4.713
14854TIP3    H144447   8.022   5.692   4.632
14854TIP3    H244448   8.035   5.803   4.736
14855TIP3   OH244449   7.506   5.566   5.098
14855TIP3    H144450   7.554   5.554   5.183
14855TIP3    H244451   7.445   5.491   5.101
14856TIP3   OH244452   8.271   5.617   4.352
14856TIP3    H144453   8.329   5.546   4.316
14856TIP3    H244454   8.304   5.626   4.443
14857TIP3   OH244455   8.322   5.665   4.621
14857TIP3    H144456   8.233   5.674   4.662
14857TIP3    H244457   8.372   5.623   4.693
14858TIP3   OH244458   9.087   4.927   5.904
14858TIP3    H144459   9.013   4.942   5.844
14858TIP3    H244460   9.105   4.832   5.890
14859TIP3   OH244461   7.689   5.338   5.924
14859TIP3    H144462   7.738   5.323   6.008
14859TIP3    H244463   7.614   5.275   5.933
14860TIP3   OH244464   8.086   4.163   5.711
14860TIP3    H144465   7.998   4.131   5.683
14860TIP3    H244466   8.060   4.243   5.759
14861TIP3   OH244467   8.624   4.283   5.908
14861TIP3    H144468   8.697   4.248   5.964
14861TIP3    H244469   8.544   4.254   5.955
14862TIP3   OH244470   8.854   4.706   5.830
14862TIP3    H144471   8.813   4.717   5.917
14862TIP3    H244472   8.840   4.793   5.787
14863TIP3   OH244473   8.520   4.833   4.377
14863TIP3    H144474   8.487   4.809   4.289
14863TIP3    H244475   8.600   4.884   4.355
14864TIP3   OH244476   8.236   4.217   4.683
14864TIP3    H144477   8.200   4.206   4.773
14864TIP3    H244478   8.200   4.137   4.640
14865TIP3   OH244479   8.019   4.679   5.729
14865TIP3    H144480   7.967   4.698   5.810
14865TIP3    H244481   8.001   4.760   5.676
14866TIP3   OH244482   7.903   4.563   5.244
14866TIP3    H144483   7.809   4.540   5.256
14866TIP3    H244484   7.919   4.525   5.154
14867TIP3   OH244485   8.394   4.649   4.972
14867TIP3    H144486   8.342   4.721   4.929
14867TIP3    H244487   8.449   4.617   4.898
14868TIP3   OH244488   8.573   4.921   6.054
14868TIP3    H144489   8.572   4.887   6.144
14868TIP3    H244490   8.666   4.949   6.049
14869TIP3   OH244491   8.550   4.678   5.210
14869TIP3    H144492   8.490   4.707   5.138
14869TIP3    H244493   8.585   4.597   5.167
14870TIP3   OH244494   7.841   4.705   5.939
14870TIP3    H144495   7.856   4.770   6.010
14870TIP3    H244496   7.826   4.623   5.989
14871TIP3   OH244497   7.886   4.181   4.650
14871TIP3    H144498   7.878   4.178   4.747
14871TIP3    H244499   7.807   4.233   4.626
14872TIP3   OH244500   7.435   4.248   5.510
14872TIP3    H144501   7.512   4.265   5.571
14872TIP3    H244502   7.473   4.181   5.448
14873TIP3   OH244503   7.407   4.208   5.039
14873TIP3    H144504   7.452   4.241   4.958
14873TIP3    H244505   7.339   4.279   5.047
14874TIP3   OH244506   8.558   4.923   5.633
14874TIP3    H144507   8.592   4.852   5.574
14874TIP3    H244508   8.526   4.869   5.708
14875TIP3   OH244509   8.234   4.391   5.306
14875TIP3    H144510   8.153   4.383   5.360
14875TIP3    H244511   8.304   4.381   5.373
14876TIP3   OH244512   7.661   4.431   5.312
14876TIP3    H144513   7.573   4.412   5.277
14876TIP3    H244514   7.709   4.348   5.293
14877TIP3   OH244515   7.933   4.442   5.001
14877TIP3    H144516   8.028   4.451   4.980
14877TIP3    H244517   7.889   4.461   4.915
14878TIP3   OH244518   8.719   4.463   5.515
14878TIP3    H144519   8.674   4.472   5.601
14878TIP3    H244520   8.661   4.400   5.470
14879TIP3   OH244521   7.774   4.476   4.779
14879TIP3    H144522   7.706   4.428   4.728
14879TIP3    H244523   7.828   4.512   4.705
14880TIP3   OH244524   8.894   6.151   5.725
14880TIP3    H144525   8.893   6.174   5.630
14880TIP3    H244526   8.974   6.198   5.755
14881TIP3   OH244527   7.851   5.260   6.145
14881TIP3    H144528   7.929   5.291   6.194
14881TIP3    H244529   7.785   5.258   6.218
14882TIP3   OH244530   8.313   4.715   5.402
14882TIP3    H144531   8.384   4.675   5.349
14882TIP3    H244532   8.322   4.670   5.487
14883TIP3   OH244533   7.831   4.205   5.280
14883TIP3    H144534   7.800   4.125   5.328
14883TIP3    H244535   7.886   4.166   5.211
14884TIP3   OH244536   8.288   4.609   5.693
14884TIP3    H144537   8.198   4.645   5.704
14884TIP3    H244538   8.344   4.672   5.743
14885TIP3   OH244539   8.029   4.999   4.787
14885TIP3    H144540   7.953   4.938   4.773
14885TIP3    H244541   8.009   5.034   4.878
14886TIP3   OH244542   8.928   5.239   5.415
14886TIP3    H144543   8.954   5.287   5.333
14886TIP3    H244544   8.843   5.197   5.388
14887TIP3   OH244545   8.486   4.316   4.646
14887TIP3    H144546   8.390   4.295   4.658
14887TIP3    H244547   8.492   4.409   4.675
14888TIP3   OH244548   8.424   5.319   5.785
14888TIP3    H144549   8.452   5.305   5.876
14888TIP3    H244550   8.387   5.409   5.787
14889TIP3   OH244551   8.553   4.562   4.755
14889TIP3    H144552   8.650   4.567   4.769
14889TIP3    H244553   8.535   4.642   4.702
14890TIP3   OH244554   7.711   5.011   5.462
14890TIP3    H144555   7.755   4.992   5.376
14890TIP3    H244556   7.767   4.962   5.524
14891TIP3   OH244557   8.173   5.151   4.609
14891TIP3    H144558   8.125   5.238   4.614
14891TIP3    H244559   8.117   5.096   4.668
14892TIP3   OH244560   7.602   4.941   6.074
14892TIP3    H144561   7.621   4.931   6.170
14892TIP3    H244562   7.532   4.875   6.062
14893TIP3   OH244563   8.325   5.057   6.093
14893TIP3    H144564   8.259   5.002   6.047
14893TIP3    H244565   8.408   5.027   6.051
14894TIP3   OH244566   8.586   5.578   5.681
14894TIP3    H144567   8.489   5.578   5.693
14894TIP3    H244568   8.614   5.631   5.759
14895TIP3   OH244569   8.998   4.651   4.586
14895TIP3    H144570   8.935   4.607   4.524
14895TIP3    H244571   8.993   4.741   4.548
14896TIP3   OH244572   9.215   5.513   5.668
14896TIP3    H144573   9.117   5.504   5.659
14896TIP3    H244574   9.243   5.482   5.579
14897TIP3   OH244575   8.693   5.472   4.494
14897TIP3    H144576   8.673   5.401   4.557
14897TIP3    H244577   8.710   5.424   4.411
14898TIP3   OH244578   8.692   5.100   5.335
14898TIP3    H144579   8.598   5.075   5.345
14898TIP3    H244580   8.727   5.020   5.289
14899TIP3   OH244581   7.821   5.328   5.089
14899TIP3    H144582   7.823   5.409   5.034
14899TIP3    H244583   7.726   5.313   5.095
14900TIP3   OH244584   7.379   4.635   4.780
14900TIP3    H144585   7.428   4.716   4.805
14900TIP3    H244586   7.304   4.638   4.844
14901TIP3   OH244587   7.956   5.092   5.031
14901TIP3    H144588   7.923   5.183   5.048
14901TIP3    H244589   7.920   5.044   5.107
14902TIP3   OH244590   8.090   5.671   5.556
14902TIP3    H144591   8.131   5.744   5.505
14902TIP3    H244592   8.167   5.636   5.603
14903TIP3   OH244593   7.741   5.566   4.942
14903TIP3    H144594   7.654   5.574   4.985
14903TIP3    H244595   7.771   5.659   4.942
14904TIP3   OH244596   8.477   5.306   5.515
14904TIP3    H144597   8.469   5.303   5.613
14904TIP3    H244598   8.557   5.254   5.500
14905TIP3   OH244599   8.453   5.198   4.397
14905TIP3    H144600   8.505   5.174   4.477
14905TIP3    H244601   8.364   5.171   4.424
14906TIP3   OH244602   8.725   5.840   5.567
14906TIP3    H144603   8.646   5.784   5.557
14906TIP3    H244604   8.711   5.904   5.493
14907TIP3   OH244605   8.790   5.673   4.212
14907TIP3    H144606   8.833   5.750   4.171
14907TIP3    H244607   8.708   5.715   4.245
14908TIP3   OH244608   7.811   4.449   6.084
14908TIP3    H144609   7.716   4.455   6.102
14908TIP3    H244610   7.840   4.392   6.158
14909TIP3   OH244611   8.613   5.131   4.614
14909TIP3    H144612   8.603   5.065   4.686
14909TIP3    H244613   8.710   5.129   4.601
14910TIP3   OH244614   7.530   5.533   5.713
14910TIP3    H144615   7.583   5.461   5.751
14910TIP3    H244616   7.552   5.606   5.773
14911TIP3   OH244617   7.823   5.180   4.399
14911TIP3    H144618   7.826   5.089   4.367
14911TIP3    H244619   7.800   5.166   4.494
14912TIP3   OH244620   7.774   5.175   4.671
14912TIP3    H144621   7.845   5.164   4.735
14912TIP3    H244622   7.760   5.272   4.673
14913TIP3   OH244623   7.500   4.875   4.871
14913TIP3    H144624   7.439   4.932   4.922
14913TIP3    H244625   7.541   4.937   4.810
14914TIP3   OH244626   8.641   4.527   5.782
14914TIP3    H144627   8.734   4.554   5.793
14914TIP3    H244628   8.638   4.439   5.825
14915TIP3   OH244629   8.526   4.266   4.931
14915TIP3    H144630   8.514   4.288   4.837
14915TIP3    H244631   8.567   4.349   4.966
14916TIP3   OH244632   8.034   5.383   4.622
14916TIP3    H144633   7.944   5.404   4.654
14916TIP3    H244634   8.043   5.449   4.552
14917TIP3   OH244635   8.216   4.446   5.034
14917TIP3    H144636   8.281   4.517   5.015
14917TIP3    H244637   8.223   4.439   5.132
14918TIP3   OH244638   8.485   4.759   5.838
14918TIP3    H144639   8.519   4.807   5.916
14918TIP3    H244640   8.543   4.680   5.832
14919TIP3   OH244641   8.362   4.172   5.135
14919TIP3    H144642   8.355   4.251   5.192
14919TIP3    H244643   8.423   4.206   5.065
14920TIP3   OH244644   7.776   5.453   4.686
14920TIP3    H144645   7.740   5.519   4.622
14920TIP3    H244646   7.757   5.497   4.771
14921TIP3   OH244647   7.871   4.173   4.926
14921TIP3    H144648   7.874   4.263   4.962
14921TIP3    H244649   7.967   4.150   4.933
14922TIP3   OH244650   9.125   4.664   5.823
14922TIP3    H144651   9.027   4.656   5.827
14922TIP3    H244652   9.143   4.626   5.736
14923TIP3   OH244653   8.777   4.858   5.210
14923TIP3    H144654   8.703   4.797   5.220
14923TIP3    H244655   8.850   4.811   5.257
14924TIP3   OH244656   7.428   4.365   4.816
14924TIP3    H144657   7.429   4.461   4.803
14924TIP3    H244658   7.364   4.337   4.750
14925TIP3   OH244659   8.746   5.815   5.158
14925TIP3    H144660   8.704   5.863   5.083
14925TIP3    H244661   8.840   5.834   5.138
14926TIP3   OH244662   7.818   4.084   5.686
14926TIP3    H144663   7.792   4.046   5.599
14926TIP3    H244664   7.812   4.005   5.744
14927TIP3   OH244665   7.362   5.298   5.071
14927TIP3    H144666   7.291   5.332   5.127
14927TIP3    H244667   7.336   5.337   4.984
14928TIP3   OH244668   7.519   5.843   6.137
14928TIP3    H144669   7.605   5.843   6.184
14928TIP3    H244670   7.498   5.748   6.136
14929TIP3   OH244671   8.001   5.805   6.183
14929TIP3    H144672   8.095   5.787   6.187
14929TIP3    H244673   7.973   5.746   6.109
14930TIP3   OH244674   7.986   5.382   4.314
14930TIP3    H144675   7.924   5.314   4.349
14930TIP3    H244676   8.056   5.325   4.280
14931TIP3   OH244677   8.637   5.714   5.917
14931TIP3    H144678   8.631   5.643   5.984
14931TIP3    H244679   8.716   5.764   5.946
14932TIP3   OH244680   8.419   5.424   4.223
14932TIP3    H144681   8.461   5.360   4.284
14932TIP3    H244682   8.479   5.421   4.145
14933TIP3   OH244683   7.650   5.250   6.337
14933TIP3    H144684   7.666   5.154   6.344
14933TIP3    H244685   7.562   5.252   6.294
14934TIP3   OH244686   7.622   4.878   4.533
14934TIP3    H144687   7.685   4.870   4.606
14934TIP3    H244688   7.685   4.898   4.460
14935TIP3   OH244689   8.257   5.334   6.111
14935TIP3    H144690   8.214   5.354   6.025
14935TIP3    H244691   8.286   5.241   6.100
14936TIP3   OH244692   8.144   5.099   4.337
14936TIP3    H144693   8.139   5.112   4.434
14936TIP3    H244694   8.137   5.002   4.332
14937TIP3   OH244695   8.749   5.344   5.718
14937TIP3    H144696   8.825   5.386   5.673
14937TIP3    H244697   8.680   5.412   5.703
14938TIP3   OH244698   7.769   4.985   6.318
14938TIP3    H144699   7.837   4.919   6.303
14938TIP3    H244700   7.794   5.016   6.408
14939TIP3   OH244701   7.833   4.803   4.754
14939TIP3    H144702   7.814   4.754   4.836
14939TIP3    H244703   7.869   4.732   4.697
14940TIP3   OH244704   8.118   4.867   5.994
14940TIP3    H144705   8.034   4.918   5.993
14940TIP3    H244706   8.158   4.897   5.909
14941TIP3   OH244707   7.935   4.599   4.594
14941TIP3    H144708   7.908   4.603   4.500
14941TIP3    H244709   8.033   4.603   4.586
14942TIP3   OH244710   8.618   5.266   6.114
14942TIP3    H144711   8.701   5.251   6.066
14942TIP3    H244712   8.625   5.203   6.187
14943TIP3   OH244713   8.757   4.927   4.256
14943TIP3    H144714   8.733   4.883   4.173
14943TIP3    H244715   8.726   5.018   4.235
14944TIP3   OH244716   8.262   4.651   6.113
14944TIP3    H144717   8.244   4.575   6.052
14944TIP3    H244718   8.220   4.725   6.064
14945TIP3   OH244719   8.230   4.450   5.923
14945TIP3    H144720   8.258   4.484   5.836
14945TIP3    H244721   8.138   4.421   5.903
14946TIP3   OH244722   8.257   4.979   5.789
14946TIP3    H144723   8.339   4.989   5.739
14946TIP3    H244724   8.199   5.046   5.746
14947TIP3   OH244725   8.843   4.950   6.164
14947TIP3    H144726   8.889   4.866   6.178
14947TIP3    H244727   8.914   5.005   6.127
14948TIP3   OH244728   8.879   5.197   5.903
14948TIP3    H144729   8.823   5.252   5.844
14948TIP3    H244730   8.968   5.218   5.865
14949TIP3   OH244731   8.100   4.777   6.334
14949TIP3    H144732   8.036   4.709   6.363
14949TIP3    H244733   8.118   4.748   6.244
14950TIP3   OH244734   8.364   4.206   5.985
14950TIP3    H144735   8.312   4.286   5.962
14950TIP3    H244736   8.296   4.136   5.975
14951TIP3   OH244737   8.731   4.653   6.077
14951TIP3    H144738   8.698   4.565   6.057
14951TIP3    H244739   8.811   4.630   6.130
14952TIP3   OH244740   8.957   4.580   6.219
14952TIP3    H144741   8.931   4.490   6.250
14952TIP3    H244742   8.950   4.630   6.302
14953TIP3   OH244743   7.954   4.548   6.388
14953TIP3    H144744   7.946   4.454   6.361
14953TIP3    H244745   7.980   4.536   6.482
14954TIP3   OH244746   8.459   4.215   6.245
14954TIP3    H144747   8.535   4.154   6.245
14954TIP3    H244748   8.424   4.202   6.154
14955TIP3   OH244749   8.442   4.472   6.342
14955TIP3    H144750   8.496   4.396   6.308
14955TIP3    H244751   8.400   4.427   6.418
14956TIP3   OH244752   7.745   5.669   4.504
14956TIP3    H144753   7.839   5.657   4.481
14956TIP3    H244754   7.711   5.699   4.418
14957TIP3   OH244755   7.137   5.655   5.129
14957TIP3    H144756   7.071   5.593   5.090
14957TIP3    H244757   7.181   5.595   5.194
14958TIP3   OH244758   7.275   5.502   5.313
14958TIP3    H144759   7.259   5.432   5.378
14958TIP3    H244760   7.325   5.566   5.368
14959TIP3   OH244761   8.998   5.909   5.116
14959TIP3    H144762   9.030   5.939   5.203
14959TIP3    H244763   9.065   5.944   5.056
14960TIP3   OH244764   9.030   5.925   5.400
14960TIP3    H144765   8.986   5.838   5.393
14960TIP3    H244766   9.106   5.900   5.455
14961TIP3   OH244767   9.075   5.602   5.971
14961TIP3    H144768   9.003   5.611   6.037
14961TIP3    H244769   9.117   5.690   5.975
14962TIP3   OH244770   8.892   5.114   4.589
14962TIP3    H144771   8.959   5.179   4.559
14962TIP3    H244772   8.936   5.076   4.668
14963TIP3   OH244773   9.020   4.980   4.791
14963TIP3    H144774   8.955   4.940   4.853
14963TIP3    H244775   9.087   5.017   4.852
14964TIP3   OH244776   9.072   5.368   5.220
14964TIP3    H144777   9.130   5.309   5.169
14964TIP3    H244778   9.068   5.447   5.163
14965TIP3   OH244779   8.905   5.675   5.420
14965TIP3    H144780   8.832   5.715   5.472
14965TIP3    H244781   8.856   5.626   5.350
14966TIP3   OH244782   8.958   4.889   4.440
14966TIP3    H144783   8.885   4.893   4.373
14966TIP3    H244784   8.932   4.965   4.496
14967TIP3   OH244785   8.832   4.562   4.391
14967TIP3    H144786   8.780   4.599   4.318
14967TIP3    H244787   8.806   4.467   4.386
14968TIP3   OH244788   8.832   4.838   4.940
14968TIP3    H144789   8.841   4.742   4.935
14968TIP3    H244790   8.819   4.853   5.037
14969TIP3   OH244791   7.461   4.910   5.682
14969TIP3    H144792   7.464   4.887   5.588
14969TIP3    H244793   7.557   4.912   5.704
14970TIP3   OH244794   9.123   5.263   5.796
14970TIP3    H144795   9.197   5.197   5.790
14970TIP3    H244796   9.151   5.329   5.731
14971TIP3   OH244797   9.305   5.067   5.832
14971TIP3    H144798   9.230   5.014   5.865
14971TIP3    H244799   9.378   5.002   5.837
14972TIP3   OH244800   8.772   4.296   4.379
14972TIP3    H144801   8.845   4.263   4.434
14972TIP3    H244802   8.701   4.232   4.397
14973TIP3   OH244803   8.829   4.554   4.835
14973TIP3    H144804   8.869   4.465   4.850
14973TIP3    H244805   8.888   4.587   4.765
14974TIP3   OH244806   8.990   4.729   5.330
14974TIP3    H144807   9.076   4.754   5.288
14974TIP3    H244808   9.006   4.765   5.419
14975TIP3   OH244809   9.060   4.872   5.564
14975TIP3    H144810   8.982   4.909   5.608
14975TIP3    H244811   9.093   4.949   5.513
14976TIP3   OH244812   7.690   4.615   6.365
14976TIP3    H144813   7.786   4.597   6.369
14976TIP3    H244814   7.655   4.526   6.390
14977TIP3   OH244815   9.528   4.474   6.120
14977TIP3    H144816   9.574   4.399   6.076
14977TIP3    H244817   9.487   4.520   6.043
14978TIP3   OH244818   8.938   4.305   4.873
14978TIP3    H144819   8.986   4.288   4.956
14978TIP3    H244820   8.878   4.228   4.870
14979TIP3   OH244821   7.631   4.288   5.682
14979TIP3    H144822   7.692   4.213   5.697
14979TIP3    H244823   7.694   4.363   5.682
14980TIP3   OH244824   7.439   4.564   5.756
14980TIP3    H144825   7.498   4.570   5.679
14980TIP3    H244826   7.463   4.644   5.805
14981TIP3   OH244827   9.379   4.598   5.927
14981TIP3    H144828   9.291   4.640   5.940
14981TIP3    H244829   9.354   4.528   5.863
14982TIP3   OH244830   9.019   4.242   4.505
14982TIP3    H144831   9.060   4.170   4.451
14982TIP3    H244832   9.086   4.312   4.499
14983TIP3   OH244833   7.411   4.104   5.285
14983TIP3    H144834   7.328   4.054   5.284
14983TIP3    H244835   7.420   4.132   5.191
14984TIP3   OH244836   8.582   5.775   4.774
14984TIP3    H144837   8.630   5.758   4.690
14984TIP3    H244838   8.642   5.836   4.818
14985TIP3   OH244839   7.644   4.146   6.080
14985TIP3    H144840   7.599   4.145   6.166
14985TIP3    H244841   7.574   4.184   6.023
14986TIP3   OH244842   7.685   5.573   6.157
14986TIP3    H144843   7.592   5.549   6.140
14986TIP3    H244844   7.693   5.557   6.252
14987TIP3   OH244845   7.864   5.608   5.705
14987TIP3    H144846   7.814   5.683   5.667
14987TIP3    H244847   7.949   5.623   5.659
14988TIP3   OH244848   8.308   5.852   5.842
14988TIP3    H144849   8.349   5.852   5.931
14988TIP3    H244850   8.374   5.903   5.791
14989TIP3   OH244851   8.486   6.006   5.701
14989TIP3    H144852   8.556   5.953   5.658
14989TIP3    H244853   8.539   6.061   5.763
14990TIP3   OH244854   9.282   4.368   5.793
14990TIP3    H144855   9.189   4.356   5.767
14990TIP3    H244856   9.314   4.275   5.789
14991TIP3   OH244857   7.539   5.864   5.729
14991TIP3    H144858   7.449   5.896   5.706
14991TIP3    H244859   7.550   5.906   5.816
14992TIP3   OH244860   7.776   5.844   5.587
14992TIP3    H144861   7.689   5.856   5.632
14992TIP3    H244862   7.756   5.876   5.497
14993TIP3   OH244863   8.201   5.873   5.385
14993TIP3    H144864   8.132   5.890   5.319
14993TIP3    H244865   8.212   5.961   5.426
14994TIP3   OH244866   8.470   5.812   5.438
14994TIP3    H144867   8.376   5.828   5.416
14994TIP3    H244868   8.515   5.884   5.391
14995TIP3   OH244869   8.677   6.003   5.350
14995TIP3    H144870   8.663   6.087   5.301
14995TIP3    H244871   8.704   5.942   5.278
14996TIP3   OH244872   7.451   5.659   5.472
14996TIP3    H144873   7.476   5.632   5.563
14996TIP3    H244874   7.523   5.614   5.422
14997TIP3   OH244875   7.645   5.529   5.331
14997TIP3    H144876   7.661   5.445   5.380
14997TIP3    H244877   7.735   5.566   5.326
14998TIP3   OH244878   7.911   5.626   5.334
14998TIP3    H144879   7.942   5.534   5.320
14998TIP3    H244880   7.956   5.646   5.418
14999TIP3   OH244881   8.485   4.281   5.423
14999TIP3    H144882   8.442   4.209   5.473
14999TIP3    H244883   8.556   4.233   5.376
15000TIP3   OH244884   9.009   4.164   5.328
15000TIP3    H144885   9.045   4.213   5.251
15000TIP3    H244886   8.913   4.178   5.318
15001TIP3   OH244887   9.103   4.261   5.091
15001TIP3    H144888   9.176   4.209   5.051
15001TIP3    H244889   9.137   4.352   5.075
15002TIP3   OH244890   7.731   3.991   5.436
15002TIP3    H144891   7.641   3.951   5.441
15002TIP3    H244892   7.784   3.908   5.433
15003TIP3   OH244893   7.496   3.857   5.076
15003TIP3    H144894   7.556   3.896   5.010
15003TIP3    H244895   7.503   3.919   5.149
15004TIP3   OH244896   8.172   4.035   5.312
15004TIP3    H144897   8.238   4.077   5.254
15004TIP3    H244898   8.206   4.054   5.400
15005TIP3   OH244899   8.726   4.169   5.301
15005TIP3    H144900   8.723   4.130   5.212
15005TIP3    H244901   8.713   4.090   5.357
15006TIP3   OH244902   8.753   4.094   4.866
15006TIP3    H144903   8.665   4.133   4.877
15006TIP3    H244904   8.740   4.007   4.910
15007TIP3   OH244905   7.235   5.424   4.871
15007TIP3    H144906   7.150   5.393   4.833
15007TIP3    H244907   7.233   5.515   4.837
15008TIP3   OH244908   7.642   4.021   4.843
15008TIP3    H144909   7.688   3.946   4.800
15008TIP3    H244910   7.717   4.071   4.880
15009TIP3   OH244911   8.148   4.194   4.947
15009TIP3    H144912   8.208   4.143   5.004
15009TIP3    H244913   8.175   4.285   4.973
15010TIP3   OH244914   8.010   5.620   4.445
15010TIP3    H144915   8.099   5.640   4.410
15010TIP3    H244916   7.988   5.544   4.387
15011TIP3   OH244917   8.723   5.738   4.542
15011TIP3    H144918   8.719   5.640   4.529
15011TIP3    H244919   8.683   5.769   4.458
15012TIP3   OH244920   7.948   4.277   6.327
15012TIP3    H144921   7.904   4.208   6.380
15012TIP3    H244922   8.040   4.268   6.358
15013TIP3   OH244923   8.210   4.268   6.448
15013TIP3    H144924   8.276   4.216   6.400
15013TIP3    H244925   8.180   4.203   6.516
15014TIP3   OH244926   8.953   5.881   5.730
15014TIP3    H144927   8.875   5.850   5.679
15014TIP3    H244928   8.935   5.977   5.731
15015TIP3   OH244929   9.480   5.555   4.969
15015TIP3    H144930   9.470   5.457   4.967
15015TIP3    H244931   9.576   5.563   4.976
15016TIP3   OH244932   9.199   4.759   4.746
15016TIP3    H144933   9.155   4.844   4.765
15016TIP3    H244934   9.125   4.709   4.708
15017TIP3   OH244935   9.255   5.050   4.922
15017TIP3    H144936   9.305   4.973   4.956
15017TIP3    H244937   9.324   5.102   4.880
15018TIP3   OH244938   9.997   5.962   4.592
15018TIP3    H144939  10.083   5.977   4.548
15018TIP3    H244940  10.025   5.958   4.684
15019TIP3   OH244941   9.967   5.494   4.917
15019TIP3    H144942   9.969   5.404   4.881
15019TIP3    H244943  10.053   5.499   4.963
15020TIP3   OH244944   9.755   4.641   4.932
15020TIP3    H144945   9.755   4.708   4.861
15020TIP3    H244946   9.720   4.564   4.884
15021TIP3   OH244947   9.401   4.843   5.027
15021TIP3    H144948   9.483   4.828   5.077
15021TIP3    H244949   9.419   4.787   4.948
15022TIP3   OH244950   9.813   5.056   4.779
15022TIP3    H144951   9.897   5.038   4.825
15022TIP3    H244952   9.778   4.965   4.768
15023TIP3   OH244953   9.760   4.624   5.361
15023TIP3    H144954   9.704   4.666   5.293
15023TIP3    H244955   9.710   4.647   5.442
15024TIP3   OH244956   9.629   4.743   5.147
15024TIP3    H144957   9.688   4.820   5.165
15024TIP3    H244958   9.679   4.702   5.072
15025TIP3   OH244959   9.711   5.602   5.252
15025TIP3    H144960   9.669   5.684   5.219
15025TIP3    H244961   9.636   5.561   5.298
15026TIP3   OH244962   9.096   5.283   4.484
15026TIP3    H144963   9.059   5.312   4.398
15026TIP3    H244964   9.128   5.368   4.521
15027TIP3   OH244965   9.616   5.209   4.685
15027TIP3    H144966   9.576   5.144   4.624
15027TIP3    H244967   9.688   5.156   4.725
15028TIP3   OH244968   9.737   5.624   4.846
15028TIP3    H144969   9.715   5.568   4.770
15028TIP3    H244970   9.818   5.580   4.881
15029TIP3   OH244971   9.909   5.717   5.394
15029TIP3    H144972   9.844   5.774   5.440
15029TIP3    H244973   9.848   5.663   5.339
15030TIP3   OH244974   9.960   5.760   4.409
15030TIP3    H144975   9.966   5.818   4.488
15030TIP3    H244976   9.893   5.809   4.358
15031TIP3   OH244977   9.700   5.884   5.477
15031TIP3    H144978   9.665   5.878   5.386
15031TIP3    H244979   9.621   5.861   5.531
15032TIP3   OH244980   9.501   5.022   4.496
15032TIP3    H144981   9.427   5.069   4.451
15032TIP3    H244982   9.454   4.949   4.538
15033TIP3   OH244983   9.279   5.416   5.423
15033TIP3    H144984   9.219   5.385   5.353
15033TIP3    H244985   9.317   5.333   5.459
15034TIP3   OH244986   9.136   5.601   5.062
15034TIP3    H144987   9.231   5.593   5.046
15034TIP3    H244988   9.131   5.682   5.115
15035TIP3   OH244989  10.082   5.855   5.238
15035TIP3    H144990  10.090   5.942   5.281
15035TIP3    H244991  10.018   5.809   5.298
15036TIP3   OH244992   9.865   5.971   4.205
15036TIP3    H144993   9.818   5.956   4.122
15036TIP3    H244994   9.834   6.060   4.231
15037TIP3   OH244995   9.301   5.820   4.584
15037TIP3    H144996   9.346   5.808   4.670
15037TIP3    H244997   9.249   5.738   4.581
15038TIP3   OH244998   9.482   5.602   5.414
15038TIP3    H144999   9.539   5.580   5.491
15038TIP3    H245000   9.414   5.532   5.419
15039TIP3   OH245001   9.871   4.415   5.214
15039TIP3    H145002   9.784   4.389   5.179
15039TIP3    H245003   9.848   4.499   5.258
15040TIP3   OH245004   9.819   4.934   5.203
15040TIP3    H145005   9.780   4.930   5.293
15040TIP3    H245006   9.780   5.020   5.176
15041TIP3   OH245007   9.699   4.811   4.726
15041TIP3    H145008   9.608   4.785   4.754
15041TIP3    H245009   9.699   4.781   4.633
15042TIP3   OH245010   9.675   4.921   5.433
15042TIP3    H145011   9.625   5.003   5.448
15042TIP3    H245012   9.640   4.859   5.499
15043TIP3   OH245013   9.643   4.443   4.134
15043TIP3    H145014   9.642   4.431   4.230
15043TIP3    H245015   9.575   4.511   4.122
15044TIP3   OH245016   9.226   4.485   5.006
15044TIP3    H145017   9.302   4.518   5.060
15044TIP3    H245018   9.268   4.454   4.925
15045TIP3   OH245019   9.201   4.467   4.521
15045TIP3    H145020   9.245   4.507   4.444
15045TIP3    H245021   9.140   4.539   4.546
15046TIP3   OH245022   9.460   4.700   4.797
15046TIP3    H145023   9.364   4.708   4.773
15046TIP3    H245024   9.480   4.606   4.781
15047TIP3   OH245025   9.718   4.721   4.465
15047TIP3    H145026   9.782   4.759   4.405
15047TIP3    H245027   9.638   4.724   4.408
15048TIP3   OH245028   9.548   4.724   4.259
15048TIP3    H145029   9.473   4.692   4.206
15048TIP3    H245030   9.608   4.757   4.189
15049TIP3   OH245031   9.642   5.545   5.638
15049TIP3    H145032   9.724   5.556   5.688
15049TIP3    H245033   9.579   5.524   5.709
15050TIP3   OH245034   9.627   4.458   4.761
15050TIP3    H145035   9.589   4.386   4.816
15050TIP3    H245036   9.685   4.409   4.702
15051TIP3   OH245037   9.790   5.294   4.242
15051TIP3    H145038   9.736   5.211   4.247
15051TIP3    H245039   9.802   5.310   4.338
15052TIP3   OH245040  10.185   5.588   5.274
15052TIP3    H145041  10.207   5.552   5.362
15052TIP3    H245042  10.144   5.673   5.295
15053TIP3   OH245043   9.487   5.273   4.941
15053TIP3    H145044   9.542   5.251   4.864
15053TIP3    H245045   9.546   5.249   5.017
15054TIP3   OH245046   9.370   5.214   5.580
15054TIP3    H145047   9.421   5.196   5.661
15054TIP3    H245048   9.326   5.129   5.562
15055TIP3   OH245049  10.086   5.279   5.606
15055TIP3    H145050  10.009   5.230   5.569
15055TIP3    H245051  10.155   5.212   5.598
15056TIP3   OH245052   9.617   5.579   4.564
15056TIP3    H145053   9.609   5.664   4.517
15056TIP3    H245054   9.525   5.554   4.574
15057TIP3   OH245055   9.181   4.889   4.278
15057TIP3    H145056   9.223   4.976   4.295
15057TIP3    H245057   9.103   4.895   4.339
15058TIP3   OH245058   9.787   5.365   4.522
15058TIP3    H145059   9.734   5.446   4.531
15058TIP3    H245060   9.736   5.306   4.581
15059TIP3   OH245061   9.884   5.926   5.043
15059TIP3    H145062   9.926   5.998   4.994
15059TIP3    H245063   9.958   5.891   5.096
15060TIP3   OH245064   9.536   5.821   4.437
15060TIP3    H145065   9.449   5.830   4.481
15060TIP3    H245066   9.566   5.915   4.434
15061TIP3   OH245067   9.604   4.696   5.586
15061TIP3    H145068   9.506   4.695   5.591
15061TIP3    H245069   9.629   4.630   5.652
15062TIP3   OH245070   9.324   5.790   5.204
15062TIP3    H145071   9.374   5.712   5.234
15062TIP3    H245072   9.359   5.856   5.265
15063TIP3   OH245073   9.297   5.143   4.355
15063TIP3    H145074   9.227   5.183   4.411
15063TIP3    H245075   9.318   5.218   4.298
15064TIP3   OH245076   9.784   5.615   4.077
15064TIP3    H145077   9.699   5.650   4.116
15064TIP3    H245078   9.831   5.700   4.070
15065TIP3   OH245079   9.567   5.731   4.171
15065TIP3    H145080   9.525   5.801   4.117
15065TIP3    H245081   9.534   5.751   4.261
15066TIP3   OH245082   9.674   4.437   4.414
15066TIP3    H145083   9.642   4.512   4.467
15066TIP3    H245084   9.755   4.476   4.376
15067TIP3   OH245085   9.234   4.619   4.292
15067TIP3    H145086   9.231   4.717   4.294
15067TIP3    H245087   9.144   4.598   4.266
15068TIP3   OH245088   9.607   4.338   5.171
15068TIP3    H145089   9.581   4.304   5.083
15068TIP3    H245090   9.603   4.259   5.227
15069TIP3   OH245091   9.173   5.556   4.551
15069TIP3    H145092   9.087   5.600   4.563
15069TIP3    H245093   9.183   5.570   4.455
15070TIP3   OH245094   9.315   6.100   5.625
15070TIP3    H145095   9.402   6.098   5.670
15070TIP3    H245096   9.296   6.004   5.621
15071TIP3   OH245097   9.795   6.068   5.662
15071TIP3    H145098   9.886   6.040   5.680
15071TIP3    H245099   9.770   6.004   5.592
15072TIP3   OH245100   9.773   5.654   3.792
15072TIP3    H145101   9.725   5.621   3.870
15072TIP3    H245102   9.862   5.615   3.805
15073TIP3   OH245103   9.442   5.502   5.827
15073TIP3    H145104   9.460   5.406   5.825
15073TIP3    H245105   9.357   5.507   5.779
15074TIP3   OH245106   9.424   5.125   4.006
15074TIP3    H145107   9.462   5.130   4.094
15074TIP3    H245108   9.497   5.158   3.950
15075TIP3   OH245109  10.040   5.586   5.602
15075TIP3    H145110  10.001   5.608   5.514
15075TIP3    H245111  10.055   5.490   5.596
15076TIP3   OH245112   9.568   5.232   5.806
15076TIP3    H145113   9.649   5.185   5.784
15076TIP3    H245114   9.590   5.270   5.893
15077TIP3   OH245115   9.645   5.059   4.249
15077TIP3    H145116   9.600   5.033   4.332
15077TIP3    H245117   9.660   4.973   4.205
15078TIP3   OH245118   9.893   5.136   5.474
15078TIP3    H145119   9.802   5.168   5.474
15078TIP3    H245120   9.924   5.173   5.389
15079TIP3   OH245121   9.725   4.843   4.087
15079TIP3    H145122   9.689   4.850   3.996
15079TIP3    H245123   9.820   4.852   4.072
15080TIP3   OH245124   9.985   4.912   5.611
15080TIP3    H145125  10.007   4.830   5.562
15080TIP3    H245126   9.933   4.962   5.545
15081TIP3   OH245127  10.011   4.713   5.420
15081TIP3    H145128  10.051   4.707   5.333
15081TIP3    H245129   9.923   4.674   5.404
15082TIP3   OH245130  10.000   5.269   5.263
15082TIP3    H145131   9.993   5.213   5.186
15082TIP3    H245132   9.943   5.344   5.239
15083TIP3   OH245133   9.875   5.038   5.824
15083TIP3    H145134   9.815   4.963   5.842
15083TIP3    H245135   9.917   5.007   5.740
15084TIP3   OH245136   9.734   4.808   5.881
15084TIP3    H145137   9.751   4.725   5.833
15084TIP3    H245138   9.771   4.787   5.969
15085TIP3   OH245139   9.533   5.932   3.982
15085TIP3    H145140   9.628   5.921   3.967
15085TIP3    H245141   9.507   5.973   3.897
15086TIP3   OH245142   9.011   5.296   4.211
15086TIP3    H145143   9.089   5.353   4.192
15086TIP3    H245144   9.031   5.216   4.158
15087TIP3   OH245145   8.929   5.913   4.617
15087TIP3    H145146   8.869   5.847   4.577
15087TIP3    H245147   8.977   5.856   4.682
15088TIP3   OH245148   9.065   5.769   4.805
15088TIP3    H145149   9.059   5.687   4.855
15088TIP3    H245150   9.120   5.823   4.864
15089TIP3   OH245151   9.277   5.170   5.178
15089TIP3    H145152   9.266   5.138   5.086
15089TIP3    H245153   9.373   5.188   5.179
15090TIP3   OH245154   9.467   4.850   5.844
15090TIP3    H145155   9.565   4.847   5.846
15090TIP3    H245156   9.447   4.765   5.888
15091TIP3   OH245157   9.431   4.550   5.181
15091TIP3    H145158   9.493   4.475   5.189
15091TIP3    H245159   9.494   4.624   5.176
15092TIP3   OH245160   9.236   4.820   5.252
15092TIP3    H145161   9.286   4.815   5.168
15092TIP3    H245162   9.264   4.906   5.286
15093TIP3   OH245163   9.221   4.327   4.754
15093TIP3    H145164   9.127   4.320   4.780
15093TIP3    H245165   9.216   4.384   4.674
15094TIP3   OH245166   9.438   4.404   5.562
15094TIP3    H145167   9.388   4.399   5.646
15094TIP3    H245168   9.371   4.444   5.503
15095TIP3   OH245169   9.479   5.845   5.645
15095TIP3    H145170   9.394   5.804   5.622
15095TIP3    H245171   9.495   5.809   5.733
15096TIP3   OH245172   9.654   5.871   5.194
15096TIP3    H145173   9.612   5.949   5.152
15096TIP3    H245174   9.740   5.875   5.148
15097TIP3   OH245175  10.119   6.120   5.325
15097TIP3    H145176  10.138   6.109   5.421
15097TIP3    H245177  10.203   6.156   5.295
15098TIP3   OH245178   9.337   6.125   5.212
15098TIP3    H145179   9.246   6.158   5.191
15098TIP3    H245180   9.345   6.154   5.303
15099TIP3   OH245181   9.573   6.106   5.073
15099TIP3    H145182   9.486   6.116   5.118
15099TIP3    H245183   9.552   6.134   4.982
15100TIP3   OH245184   9.982   6.130   4.866
15100TIP3    H145185   9.911   6.146   4.801
15100TIP3    H245186   9.991   6.217   4.908
15101TIP3   OH245187  10.251   6.091   4.899
15101TIP3    H145188  10.154   6.081   4.889
15101TIP3    H245189  10.263   6.185   4.883
15102TIP3   OH245190   9.247   5.914   4.963
15102TIP3    H145191   9.275   5.887   5.053
15102TIP3    H245192   9.318   5.870   4.911
15103TIP3   OH245193   9.440   5.785   4.818
15103TIP3    H145194   9.455   5.701   4.866
15103TIP3    H245195   9.531   5.821   4.813
15104TIP3   OH245196   9.707   5.892   4.818
15104TIP3    H145197   9.726   5.796   4.808
15104TIP3    H245198   9.751   5.907   4.904
15105TIP3   OH245199   9.524   4.253   4.916
15105TIP3    H145200   9.430   4.224   4.918
15105TIP3    H245201   9.568   4.165   4.920
15106TIP3   OH245202   9.342   4.126   4.571
15106TIP3    H145203   9.341   4.189   4.497
15106TIP3    H245204   9.297   4.177   4.641
15107TIP3   OH245205   9.006   5.698   4.387
15107TIP3    H145206   8.934   5.657   4.337
15107TIP3    H245207   9.011   5.784   4.343
15108TIP3   OH245208   9.430   4.289   4.331
15108TIP3    H145209   9.474   4.215   4.286
15108TIP3    H245210   9.504   4.331   4.378
15109TIP3   OH245211   9.807   5.887   3.936
15109TIP3    H145212   9.903   5.899   3.930
15109TIP3    H245213   9.790   5.819   3.868
15110TIP3   OH245214   9.705   4.514   5.792
15110TIP3    H145215   9.670   4.452   5.858
15110TIP3    H245216   9.797   4.523   5.824
15111TIP3   OH245217   9.940   4.532   5.928
15111TIP3    H145218  10.036   4.540   5.914
15111TIP3    H245219   9.939   4.461   5.996
15112TIP3   OH245220   9.114   5.714   4.000
15112TIP3    H145221   9.088   5.751   4.085
15112TIP3    H245222   9.170   5.639   4.032
15113TIP3   OH245223   0.878   5.783   6.694
15113TIP3    H145224   0.853   5.876   6.677
15113TIP3    H245225   0.796   5.739   6.670
15114TIP3   OH245226   0.893   5.776   7.068
15114TIP3    H145227   0.913   5.760   7.162
15114TIP3    H245228   0.835   5.701   7.046
15115TIP3   OH245229   1.122   6.087   6.760
15115TIP3    H145230   1.106   6.022   6.829
15115TIP3    H245231   1.150   6.165   6.812
15116TIP3   OH245232   0.770   6.557   6.771
15116TIP3    H145233   0.813   6.478   6.734
15116TIP3    H245234   0.745   6.527   6.860
15117TIP3   OH245235   0.664   5.950   7.103
15117TIP3    H145236   0.749   5.915   7.070
15117TIP3    H245237   0.695   6.032   7.145
15118TIP3   OH245238   1.690   5.330   7.124
15118TIP3    H145239   1.717   5.413   7.170
15118TIP3    H245240   1.710   5.353   7.032
15119TIP3   OH245241   1.088   5.511   7.160
15119TIP3    H145242   1.130   5.425   7.179
15119TIP3    H245243   1.057   5.497   7.068
15120TIP3   OH245244   0.467   5.166   7.124
15120TIP3    H145245   0.423   5.245   7.087
15120TIP3    H245246   0.422   5.096   7.072
15121TIP3   OH245247   1.122   5.261   6.746
15121TIP3    H145248   1.194   5.248   6.812
15121TIP3    H245249   1.174   5.299   6.672
15122TIP3   OH245250   0.501   5.581   7.037
15122TIP3    H145251   0.594   5.549   7.041
15122TIP3    H245252   0.456   5.507   6.995
15123TIP3   OH245253   1.761   5.537   7.296
15123TIP3    H145254   1.679   5.587   7.277
15123TIP3    H245255   1.785   5.575   7.382
15124TIP3   OH245256   0.770   6.006   6.565
15124TIP3    H145257   0.728   5.988   6.480
15124TIP3    H245258   0.727   6.089   6.591
15125TIP3   OH245259   1.331   5.264   6.921
15125TIP3    H145260   1.313   5.228   7.009
15125TIP3    H245261   1.383   5.344   6.943
15126TIP3   OH245262   1.192   6.330   6.922
15126TIP3    H145263   1.104   6.321   6.965
15126TIP3    H245264   1.183   6.417   6.880
15127TIP3   OH245265   1.483   5.225   7.288
15127TIP3    H145266   1.396   5.260   7.261
15127TIP3    H245267   1.542   5.261   7.219
15128TIP3   OH245268   0.784   4.872   7.269
15128TIP3    H145269   0.761   4.779   7.280
15128TIP3    H245270   0.715   4.915   7.324
15129TIP3   OH245271   0.892   6.376   6.599
15129TIP3    H145272   0.944   6.295   6.579
15129TIP3    H245273   0.951   6.444   6.560
15130TIP3   OH245274   1.036   6.162   6.508
15130TIP3    H145275   1.002   6.082   6.467
15130TIP3    H245276   1.072   6.127   6.593
15131TIP3   OH245277   1.418   6.242   7.270
15131TIP3    H145278   1.405   6.166   7.210
15131TIP3    H245279   1.398   6.318   7.211
15132TIP3   OH245280   0.706   5.629   6.526
15132TIP3    H145281   0.627   5.684   6.506
15132TIP3    H245282   0.757   5.638   6.443
15133TIP3   OH245283   0.675   5.416   6.231
15133TIP3    H145284   0.743   5.473   6.274
15133TIP3    H245285   0.698   5.329   6.266
15134TIP3   OH245286   1.612   5.877   7.113
15134TIP3    H145287   1.530   5.930   7.119
15134TIP3    H245288   1.643   5.904   7.024
15135TIP3   OH245289   1.056   5.716   6.498
15135TIP3    H145290   1.001   5.742   6.576
15135TIP3    H245291   1.141   5.695   6.543
15136TIP3   OH245292   1.291   5.758   7.412
15136TIP3    H145293   1.291   5.841   7.463
15136TIP3    H245294   1.206   5.767   7.365
15137TIP3   OH245295   0.435   5.668   7.286
15137TIP3    H145296   0.465   5.643   7.196
15137TIP3    H245297   0.468   5.759   7.293
15138TIP3   OH245298   0.955   6.323   7.047
15138TIP3    H145299   0.935   6.404   7.098
15138TIP3    H245300   0.933   6.252   7.110
15139TIP3   OH245301   0.898   5.572   6.326
15139TIP3    H145302   0.957   5.633   6.377
15139TIP3    H245303   0.916   5.602   6.234
15140TIP3   OH245304   0.640   6.258   6.601
15140TIP3    H145305   0.724   6.302   6.622
15140TIP3    H245306   0.593   6.329   6.556
15141TIP3   OH245307   1.411   4.820   6.371
15141TIP3    H145308   1.331   4.837   6.425
15141TIP3    H245309   1.422   4.905   6.325
15142TIP3   OH245310   1.218   6.184   5.931
15142TIP3    H145311   1.226   6.279   5.910
15142TIP3    H245312   1.310   6.153   5.914
15143TIP3   OH245313   1.656   6.588   7.318
15143TIP3    H145314   1.652   6.492   7.333
15143TIP3    H245315   1.572   6.616   7.362
15144TIP3   OH245316   0.780   6.352   7.462
15144TIP3    H145317   0.787   6.446   7.494
15144TIP3    H245318   0.687   6.349   7.435
15145TIP3   OH245319   0.549   6.487   6.423
15145TIP3    H145320   0.510   6.465   6.336
15145TIP3    H245321   0.493   6.559   6.453
15146TIP3   OH245322   0.725   6.402   6.043
15146TIP3    H145323   0.782   6.332   6.004
15146TIP3    H245324   0.767   6.413   6.131
15147TIP3   OH245325   0.793   6.448   6.307
15147TIP3    H145326   0.710   6.456   6.359
15147TIP3    H245327   0.849   6.403   6.372
15148TIP3   OH245328   1.545   5.717   7.594
15148TIP3    H145329   1.464   5.733   7.543
15148TIP3    H245330   1.558   5.621   7.582
15149TIP3   OH245331   0.539   4.948   7.398
15149TIP3    H145332   0.458   4.919   7.354
15149TIP3    H245333   0.536   5.044   7.383
15150TIP3   OH245334   1.077   5.065   7.592
15150TIP3    H145335   1.143   5.033   7.657
15150TIP3    H245336   0.992   5.035   7.628
15151TIP3   OH245337   1.312   5.494   7.511
15151TIP3    H145338   1.263   5.491   7.597
15151TIP3    H245339   1.289   5.583   7.477
15152TIP3   OH245340   0.942   5.633   6.068
15152TIP3    H145341   0.926   5.588   5.983
15152TIP3    H245342   1.033   5.664   6.049
15153TIP3   OH245343   0.696   5.000   6.377
15153TIP3    H145344   0.659   4.992   6.467
15153TIP3    H245345   0.652   4.924   6.334
15154TIP3   OH245346   0.459   5.446   7.435
15154TIP3    H145347   0.411   5.484   7.509
15154TIP3    H245348   0.453   5.522   7.372
15155TIP3   OH245349   0.347   5.340   6.938
15155TIP3    H145350   0.255   5.367   6.922
15155TIP3    H245351   0.367   5.297   6.852
15156TIP3   OH245352   0.847   5.437   6.660
15156TIP3    H145353   0.793   5.509   6.619
15156TIP3    H245354   0.904   5.411   6.586
15157TIP3   OH245355   1.024   5.712   7.743
15157TIP3    H145356   1.001   5.642   7.808
15157TIP3    H245357   1.116   5.731   7.767
15158TIP3   OH245358   1.002   5.464   6.902
15158TIP3    H145359   0.944   5.500   6.832
15158TIP3    H245360   1.034   5.384   6.855
15159TIP3   OH245361   0.346   4.973   6.344
15159TIP3    H145362   0.330   4.971   6.441
15159TIP3    H245363   0.256   4.983   6.310
15160TIP3   OH245364   1.006   5.711   7.322
15160TIP3    H145365   1.043   5.641   7.263
15160TIP3    H245366   0.983   5.658   7.400
15161TIP3   OH245367   0.703   5.171   6.985
15161TIP3    H145368   0.620   5.176   7.038
15161TIP3    H245369   0.770   5.177   7.056
15162TIP3   OH245370   0.393   5.232   6.689
15162TIP3    H145371   0.486   5.250   6.668
15162TIP3    H245372   0.344   5.264   6.610
15163TIP3   OH245373   1.174   5.247   7.193
15163TIP3    H145374   1.145   5.261   7.286
15163TIP3    H245375   1.102   5.189   7.162
15164TIP3   OH245376   0.227   5.275   6.469
15164TIP3    H145377   0.179   5.193   6.447
15164TIP3    H245378   0.279   5.294   6.388
15165TIP3   OH245379   1.350   6.936   7.414
15165TIP3    H145380   1.350   6.970   7.323
15165TIP3    H245381   1.409   6.998   7.460
15166TIP3   OH245382   0.767   5.496   7.087
15166TIP3    H145383   0.845   5.467   7.038
15166TIP3    H245384   0.782   5.460   7.176
15167TIP3   OH245385   0.329   4.986   6.973
15167TIP3    H145386   0.258   4.919   6.987
15167TIP3    H245387   0.358   4.961   6.884
15168TIP3   OH245388   0.742   5.395   7.392
15168TIP3    H145389   0.654   5.436   7.399
15168TIP3    H245390   0.801   5.460   7.436
15169TIP3   OH245391   0.488   5.784   6.463
15169TIP3    H145392   0.413   5.721   6.461
15169TIP3    H245393   0.475   5.823   6.553
15170TIP3   OH245394   1.381   6.024   7.105
15170TIP3    H145395   1.405   6.076   7.024
15170TIP3    H245396   1.295   5.985   7.079
15171TIP3   OH245397   0.927   5.121   6.303
15171TIP3    H145398   0.840   5.091   6.337
15171TIP3    H245399   0.945   5.203   6.353
15172TIP3   OH245400   0.875   6.096   7.479
15172TIP3    H145401   0.907   6.094   7.571
15172TIP3    H245402   0.838   6.187   7.474
15173TIP3   OH245403   1.008   5.344   6.443
15173TIP3    H145404   1.104   5.353   6.461
15173TIP3    H245405   0.989   5.426   6.393
15174TIP3   OH245406   0.633   5.930   6.286
15174TIP3    H145407   0.588   6.017   6.297
15174TIP3    H245408   0.580   5.875   6.348
15175TIP3   OH245409   0.790   5.852   7.794
15175TIP3    H145410   0.730   5.784   7.756
15175TIP3    H245411   0.876   5.822   7.759
15176TIP3   OH245412   1.044   6.361   7.370
15176TIP3    H145413   0.948   6.358   7.388
15176TIP3    H245414   1.074   6.416   7.447
15177TIP3   OH245415   1.452   5.445   6.282
15177TIP3    H145416   1.386   5.401   6.223
15177TIP3    H245417   1.449   5.534   6.240
15178TIP3   OH245418   1.667   6.294   7.361
15178TIP3    H145419   1.569   6.292   7.351
15178TIP3    H245420   1.693   6.267   7.270
15179TIP3   OH245421   1.149   6.259   6.189
15179TIP3    H145422   1.123   6.184   6.245
15179TIP3    H245423   1.163   6.216   6.103
15180TIP3   OH245424   1.148   5.888   7.022
15180TIP3    H145425   1.055   5.863   7.036
15180TIP3    H245426   1.181   5.808   6.976
15181TIP3   OH245427   0.459   5.882   6.712
15181TIP3    H145428   0.449   5.976   6.729
15181TIP3    H245429   0.399   5.844   6.778
15182TIP3   OH245430   0.931   6.089   7.207
15182TIP3    H145431   0.916   6.089   7.304
15182TIP3    H245432   1.016   6.045   7.200
15183TIP3   OH245433   0.900   5.987   6.098
15183TIP3    H145434   0.956   5.962   6.174
15183TIP3    H245435   0.813   5.958   6.130
15184TIP3   OH245436   1.181   6.621   7.251
15184TIP3    H145437   1.100   6.568   7.248
15184TIP3    H245438   1.163   6.690   7.184
15185TIP3   OH245439   1.245   6.460   5.908
15185TIP3    H145440   1.285   6.533   5.856
15185TIP3    H245441   1.164   6.506   5.938
15186TIP3   OH245442   1.066   5.921   6.309
15186TIP3    H145443   1.058   5.853   6.379
15186TIP3    H245444   1.163   5.918   6.293
15187TIP3   OH245445   0.326   5.935   6.115
15187TIP3    H145446   0.340   5.846   6.075
15187TIP3    H245447   0.309   5.911   6.207
15188TIP3   OH245448   1.103   5.299   7.451
15188TIP3    H145449   1.179   5.340   7.496
15188TIP3    H245450   1.090   5.217   7.505
15189TIP3   OH245451   0.986   5.055   6.620
15189TIP3    H145452   0.965   5.090   6.533
15189TIP3    H245453   1.026   5.134   6.663
15190TIP3   OH245454   0.490   6.156   6.314
15190TIP3    H145455   0.400   6.182   6.339
15190TIP3    H245456   0.505   6.213   6.236
15191TIP3   OH245457   0.673   5.234   6.720
15191TIP3    H145458   0.735   5.308   6.703
15191TIP3    H245459   0.680   5.226   6.817
15192TIP3   OH245460   0.936   5.551   7.531
15192TIP3    H145461   0.958   5.608   7.608
15192TIP3    H245462   0.992   5.474   7.545
15193TIP3   OH245463   0.816   4.961   6.828
15193TIP3    H145464   0.799   5.041   6.881
15193TIP3    H245465   0.877   4.997   6.759
15194TIP3   OH245466   0.334   4.974   6.627
15194TIP3    H145467   0.355   5.064   6.662
15194TIP3    H245468   0.424   4.936   6.625
15195TIP3   OH245469   1.578   5.450   7.514
15195TIP3    H145470   1.480   5.447   7.518
15195TIP3    H245471   1.594   5.421   7.423
15196TIP3   OH245472   1.232   5.644   6.898
15196TIP3    H145473   1.154   5.587   6.914
15196TIP3    H245474   1.303   5.598   6.947
15197TIP3   OH245475   1.200   6.604   6.843
15197TIP3    H145476   1.160   6.657   6.771
15197TIP3    H245477   1.295   6.624   6.826
15198TIP3   OH245478   0.467   6.159   6.018
15198TIP3    H145479   0.427   6.076   6.052
15198TIP3    H245480   0.529   6.124   5.951
15199TIP3   OH245481   1.104   6.496   7.600
15199TIP3    H145482   1.096   6.429   7.671
15199TIP3    H245483   1.173   6.556   7.635
15200TIP3   OH245484   0.868   6.209   5.908
15200TIP3    H145485   0.907   6.137   5.962
15200TIP3    H245486   0.925   6.205   5.828
15201TIP3   OH245487   0.728   6.126   7.792
15201TIP3    H145488   0.662   6.114   7.723
15201TIP3    H245489   0.759   6.034   7.806
15202TIP3   OH245490   0.600   5.873   6.019
15202TIP3    H145491   0.603   5.890   6.115
15202TIP3    H245492   0.596   5.776   6.017
15203TIP3   OH245493   1.201   6.130   7.406
15203TIP3    H145494   1.277   6.176   7.364
15203TIP3    H245495   1.132   6.198   7.395
15204TIP3   OH245496   0.301   5.587   6.448
15204TIP3    H145497   0.247   5.543   6.514
15204TIP3    H245498   0.325   5.513   6.389
15205TIP3   OH245499   0.632   5.661   7.663
15205TIP3    H145500   0.540   5.693   7.661
15205TIP3    H245501   0.664   5.693   7.575
15206TIP3   OH245502   0.391   5.383   6.279
15206TIP3    H145503   0.361   5.391   6.186
15206TIP3    H245504   0.487   5.399   6.268
15207TIP3   OH245505   1.068   6.047   7.806
15207TIP3    H145506   1.151   6.034   7.759
15207TIP3    H245507   1.074   5.984   7.880
15208TIP3   OH245508   0.697   5.429   7.808
15208TIP3    H145509   0.676   5.355   7.749
15208TIP3    H245510   0.664   5.507   7.758
15209TIP3   OH245511   0.669   5.212   7.590
15209TIP3    H145512   0.711   5.265   7.519
15209TIP3    H245513   0.577   5.241   7.583
15210TIP3   OH245514   0.712   5.784   7.432
15210TIP3    H145515   0.804   5.775   7.402
15210TIP3    H245516   0.697   5.878   7.416
15211TIP3   OH245517   1.291   5.733   7.858
15211TIP3    H145518   1.343   5.652   7.867
15211TIP3    H245519   1.355   5.796   7.824
15212TIP3   OH245520   1.331   5.983   7.591
15212TIP3    H145521   1.273   6.038   7.534
15212TIP3    H245522   1.419   6.007   7.552
15213TIP3   OH245523   0.813   4.986   7.668
15213TIP3    H145524   0.768   5.070   7.643
15213TIP3    H245525   0.738   4.924   7.664
15214TIP3   OH245526   0.947   5.497   7.892
15214TIP3    H145527   0.931   5.490   7.988
15214TIP3    H245528   0.858   5.470   7.860
15215TIP3   OH245529   1.178   5.443   7.741
15215TIP3    H145530   1.103   5.450   7.804
15215TIP3    H245531   1.252   5.416   7.799
15216TIP3   OH245532   1.407   5.388   7.894
15216TIP3    H145533   1.419   5.293   7.913
15216TIP3    H245534   1.402   5.427   7.984
15217TIP3   OH245535   0.908   5.003   7.928
15217TIP3    H145536   0.977   4.935   7.923
15217TIP3    H245537   0.870   4.999   7.838
15218TIP3   OH245538   0.975   5.217   8.089
15218TIP3    H145539   0.951   5.148   8.024
15218TIP3    H245540   0.900   5.280   8.082
15219TIP3   OH245541   1.451   6.701   6.801
15219TIP3    H145542   1.475   6.727   6.892
15219TIP3    H245543   1.526   6.732   6.749
15220TIP3   OH245544   1.482   6.709   7.082
15220TIP3    H145545   1.440   6.620   7.083
15220TIP3    H245546   1.557   6.693   7.142
15221TIP3   OH245547   1.530   6.387   7.660
15221TIP3    H145548   1.456   6.397   7.723
15221TIP3    H245549   1.570   6.476   7.663
15222TIP3   OH245550   1.343   5.901   6.278
15222TIP3    H145551   1.410   5.966   6.248
15222TIP3    H245552   1.389   5.860   6.355
15223TIP3   OH245553   1.473   5.768   6.482
15223TIP3    H145554   1.407   5.729   6.542
15223TIP3    H245555   1.538   5.808   6.543
15224TIP3   OH245556   1.527   6.162   6.915
15224TIP3    H145557   1.580   6.098   6.864
15224TIP3    H245558   1.518   6.237   6.854
15225TIP3   OH245559   1.357   6.460   7.111
15225TIP3    H145560   1.288   6.505   7.163
15225TIP3    H245561   1.304   6.414   7.042
15226TIP3   OH245562   1.411   5.674   6.128
15226TIP3    H145563   1.344   5.655   6.059
15226TIP3    H245564   1.373   5.754   6.171
15227TIP3   OH245565   1.280   5.352   6.102
15227TIP3    H145566   1.256   5.428   6.043
15227TIP3    H245567   1.260   5.278   6.044
15228TIP3   OH245568   1.285   5.628   6.630
15228TIP3    H145569   1.296   5.531   6.627
15228TIP3    H245570   1.271   5.644   6.726
15229TIP3   OH245571   1.575   6.051   7.487
15229TIP3    H145572   1.648   5.987   7.476
15229TIP3    H245573   1.601   6.123   7.427
15230TIP3   OH245574   1.758   5.854   7.498
15230TIP3    H145575   1.685   5.805   7.542
15230TIP3    H245576   1.832   5.792   7.514
15231TIP3   OH245577   1.215   5.076   6.069
15231TIP3    H145578   1.308   5.086   6.102
15231TIP3    H245579   1.188   5.003   6.128
15232TIP3   OH245580   1.281   5.341   6.525
15232TIP3    H145581   1.324   5.254   6.538
15232TIP3    H245582   1.339   5.379   6.457
15233TIP3   OH245583   1.444   5.513   7.020
15233TIP3    H145584   1.529   5.540   6.979
15233TIP3    H245585   1.456   5.553   7.109
15234TIP3   OH245586   1.511   5.660   7.251
15234TIP3    H145587   1.434   5.695   7.300
15234TIP3    H245588   1.544   5.741   7.206
15235TIP3   OH245589   1.964   5.251   7.808
15235TIP3    H145590   2.023   5.186   7.764
15235TIP3    H245591   1.934   5.306   7.733
15236TIP3   OH245592   1.393   5.091   6.561
15236TIP3    H145593   1.440   5.077   6.645
15236TIP3    H245594   1.331   5.016   6.561
15237TIP3   OH245595   1.834   5.390   7.616
15237TIP3    H145596   1.749   5.433   7.638
15237TIP3    H245597   1.802   5.320   7.555
15238TIP3   OH245598   1.462   5.037   6.180
15238TIP3    H145599   1.508   4.961   6.139
15238TIP3    H245600   1.533   5.104   6.187
15239TIP3   OH245601   1.040   6.561   6.463
15239TIP3    H145602   1.083   6.544   6.376
15239TIP3    H245603   1.115   6.589   6.517
15240TIP3   OH245604   0.801   6.611   7.545
15240TIP3    H145605   0.793   6.658   7.629
15240TIP3    H245606   0.836   6.681   7.487
15241TIP3   OH245607   0.934   6.799   7.385
15241TIP3    H145608   1.002   6.738   7.355
15241TIP3    H245609   0.986   6.852   7.450
15242TIP3   OH245610   1.735   5.155   7.491
15242TIP3    H145611   1.644   5.151   7.457
15242TIP3    H245612   1.763   5.062   7.479
15243TIP3   OH245613   0.654   6.687   7.042
15243TIP3    H145614   0.558   6.702   7.040
15243TIP3    H245615   0.681   6.764   7.096
15244TIP3   OH245616   0.921   6.602   7.120
15244TIP3    H145617   0.829   6.619   7.092
15244TIP3    H245618   0.966   6.682   7.089
15245TIP3   OH245619   1.132   6.793   7.039
15245TIP3    H145620   1.122   6.876   6.989
15245TIP3    H245621   1.158   6.730   6.969
15246TIP3   OH245622   0.944   5.072   7.116
15246TIP3    H145623   0.901   5.002   7.170
15246TIP3    H245624   1.012   5.023   7.067
15247TIP3   OH245625   1.460   4.946   7.015
15247TIP3    H145626   1.499   5.000   6.943
15247TIP3    H245627   1.367   4.972   7.010
15248TIP3   OH245628   1.557   5.046   6.779
15248TIP3    H145629   1.631   4.996   6.739
15248TIP3    H245630   1.590   5.138   6.766
15249TIP3   OH245631   0.646   4.812   7.004
15249TIP3    H145632   0.698   4.865   6.942
15249TIP3    H245633   0.655   4.862   7.086
15250TIP3   OH245634   1.172   4.947   6.993
15250TIP3    H145635   1.174   4.920   6.901
15250TIP3    H245636   1.158   4.864   7.040
15251TIP3   OH245637   1.207   4.880   6.553
15251TIP3    H145638   1.122   4.924   6.569
15251TIP3    H245639   1.193   4.794   6.597
15252TIP3   OH245640   0.134   4.723   6.577
15252TIP3    H145641   0.123   4.714   6.482
15252TIP3    H245642   0.140   4.819   6.587
15253TIP3   OH245643   0.610   4.982   6.637
15253TIP3    H145644   0.667   4.933   6.698
15253TIP3    H245645   0.632   5.074   6.663
15254TIP3   OH245646   0.470   6.406   6.160
15254TIP3    H145647   0.560   6.413   6.121
15254TIP3    H245648   0.428   6.355   6.087
15255TIP3   OH245649   1.177   6.525   6.230
15255TIP3    H145650   1.173   6.427   6.218
15255TIP3    H245651   1.139   6.555   6.145
15256TIP3   OH245652   0.639   5.022   8.116
15256TIP3    H145653   0.727   5.018   8.076
15256TIP3    H245654   0.655   4.979   8.201
15257TIP3   OH245655   1.469   5.117   7.925
15257TIP3    H145656   1.488   5.087   8.016
15257TIP3    H245657   1.557   5.114   7.883
15258TIP3   OH245658   1.410   6.668   7.415
15258TIP3    H145659   1.328   6.638   7.369
15258TIP3    H245660   1.391   6.764   7.420
15259TIP3   OH245661   2.674   6.038   6.183
15259TIP3    H145662   2.650   6.131   6.166
15259TIP3    H245663   2.594   5.994   6.149
15260TIP3   OH245664   2.670   6.043   6.559
15260TIP3    H145665   2.697   6.029   6.651
15260TIP3    H245666   2.627   5.960   6.536
15261TIP3   OH245667   1.974   5.936   6.928
15261TIP3    H145668   2.006   5.870   6.992
15261TIP3    H245669   2.048   5.999   6.928
15262TIP3   OH245670   2.917   6.344   6.249
15262TIP3    H145671   2.908   6.282   6.322
15262TIP3    H245672   2.945   6.425   6.296
15263TIP3   OH245673   1.941   6.345   6.652
15263TIP3    H145674   1.935   6.248   6.655
15263TIP3    H245675   2.038   6.357   6.647
15264TIP3   OH245676   1.652   5.547   6.440
15264TIP3    H145677   1.607   5.632   6.456
15264TIP3    H245678   1.579   5.499   6.394
15265TIP3   OH245679   1.709   5.836   6.610
15265TIP3    H145680   1.760   5.761   6.647
15265TIP3    H245681   1.772   5.876   6.548
15266TIP3   OH245682   2.564   6.805   6.261
15266TIP3    H145683   2.610   6.733   6.214
15266TIP3    H245684   2.565   6.772   6.352
15267TIP3   OH245685   2.470   6.265   6.614
15267TIP3    H145686   2.520   6.197   6.566
15267TIP3    H245687   2.540   6.330   6.630
15268TIP3   OH245688   3.491   5.584   6.609
15268TIP3    H145689   3.509   5.665   6.659
15268TIP3    H245690   3.519   5.610   6.519
15269TIP3   OH245691   2.224   5.428   6.610
15269TIP3    H145692   2.204   5.501   6.548
15269TIP3    H245693   2.173   5.356   6.566
15270TIP3   OH245694   2.919   5.518   6.237
15270TIP3    H145695   2.984   5.503   6.307
15270TIP3    H245696   2.974   5.552   6.163
15271TIP3   OH245697   1.855   5.630   6.717
15271TIP3    H145698   1.939   5.613   6.765
15271TIP3    H245699   1.870   5.575   6.637
15272TIP3   OH245700   2.297   5.828   6.508
15272TIP3    H145701   2.392   5.804   6.520
15272TIP3    H245702   2.259   5.743   6.476
15273TIP3   OH245703   3.545   5.790   6.796
15273TIP3    H145704   3.476   5.853   6.770
15273TIP3    H245705   3.593   5.841   6.865
15274TIP3   OH245706   2.219   5.411   7.044
15274TIP3    H145707   2.160   5.450   6.977
15274TIP3    H245708   2.167   5.430   7.125
15275TIP3   OH245709   2.564   6.260   6.051
15275TIP3    H145710   2.524   6.248   5.964
15275TIP3    H245711   2.523   6.345   6.080
15276TIP3   OH245712   2.325   6.184   6.843
15276TIP3    H145713   2.263   6.253   6.879
15276TIP3    H245714   2.367   6.234   6.770
15277TIP3   OH245715   3.113   5.523   6.488
15277TIP3    H145716   3.163   5.446   6.455
15277TIP3    H245717   3.174   5.596   6.462
15278TIP3   OH245718   2.090   5.527   6.829
15278TIP3    H145719   2.150   5.601   6.852
15278TIP3    H245720   2.140   5.487   6.754
15279TIP3   OH245721   2.150   6.380   6.932
15279TIP3    H145722   2.130   6.469   6.896
15279TIP3    H245723   2.072   6.368   6.990
15280TIP3   OH245724   1.547   6.070   6.172
15280TIP3    H145725   1.507   6.096   6.087
15280TIP3    H245726   1.577   6.156   6.208
15281TIP3   OH245727   2.977   6.582   6.406
15281TIP3    H145728   2.892   6.572   6.455
15281TIP3    H245729   2.970   6.673   6.372
15282TIP3   OH245730   2.576   5.129   6.762
15282TIP3    H145731   2.560   5.034   6.778
15282TIP3    H245732   2.498   5.168   6.807
15283TIP3   OH245733   2.686   6.631   6.083
15283TIP3    H145734   2.739   6.550   6.064
15283TIP3    H245735   2.748   6.698   6.046
15284TIP3   OH245736   2.832   6.416   5.995
15284TIP3    H145737   2.792   6.336   5.960
15284TIP3    H245738   2.869   6.383   6.080
15285TIP3   OH245739   3.236   6.497   6.755
15285TIP3    H145740   3.181   6.423   6.724
15285TIP3    H245741   3.187   6.571   6.714
15286TIP3   OH245742   2.503   5.890   6.014
15286TIP3    H145743   2.424   5.945   5.995
15286TIP3    H245744   2.551   5.895   5.929
15287TIP3   OH245745   2.465   5.676   5.730
15287TIP3    H145746   2.528   5.730   5.780
15287TIP3    H245747   2.526   5.617   5.682
15288TIP3   OH245748   3.409   6.127   6.599
15288TIP3    H145749   3.327   6.182   6.604
15288TIP3    H245750   3.442   6.158   6.512
15289TIP3   OH245751   2.851   5.973   5.985
15289TIP3    H145752   2.797   6.000   6.063
15289TIP3    H245753   2.937   5.953   6.029
15290TIP3   OH245754   3.081   6.021   6.904
15290TIP3    H145755   3.090   6.101   6.959
15290TIP3    H245756   3.003   6.047   6.851
15291TIP3   OH245757   2.083   5.972   6.404
15291TIP3    H145758   2.044   5.915   6.334
15291TIP3    H245759   2.162   5.920   6.431
15292TIP3   OH245760   2.209   6.381   6.552
15292TIP3    H145761   2.195   6.345   6.463
15292TIP3    H245762   2.300   6.351   6.573
15293TIP3   OH245763   2.224   5.944   6.756
15293TIP3    H145764   2.256   5.927   6.665
15293TIP3    H245765   2.264   6.031   6.777
15294TIP3   OH245766   2.740   6.577   6.544
15294TIP3    H145767   2.727   6.670   6.573
15294TIP3    H245768   2.776   6.538   6.627
15295TIP3   OH245769   2.352   6.480   7.100
15295TIP3    H145770   2.301   6.557   7.133
15295TIP3    H245771   2.288   6.441   7.038
15296TIP3   OH245772   2.694   5.831   5.811
15296TIP3    H145773   2.751   5.893   5.863
15296TIP3    H245774   2.720   5.855   5.719
15297TIP3   OH245775   2.114   6.053   7.184
15297TIP3    H145776   2.121   6.143   7.224
15297TIP3    H245777   2.018   6.037   7.196
15298TIP3   OH245778   2.436   6.512   6.088
15298TIP3    H145779   2.518   6.563   6.101
15298TIP3    H245780   2.377   6.577   6.049
15299TIP3   OH245781   2.153   6.671   7.167
15299TIP3    H145782   2.120   6.671   7.075
15299TIP3    H245783   2.073   6.647   7.218
15300TIP3   OH245784   3.212   5.082   5.865
15300TIP3    H145785   3.127   5.102   5.909
15300TIP3    H245786   3.224   5.159   5.806
15301TIP3   OH245787   1.953   5.814   6.203
15301TIP3    H145788   1.888   5.864   6.149
15301TIP3    H245789   1.904   5.732   6.219
15302TIP3   OH245790   3.007   6.447   5.406
15302TIP3    H145791   3.012   6.544   5.392
15302TIP3    H245792   3.100   6.420   5.395
15303TIP3   OH245793   1.731   6.200   7.115
15303TIP3    H145794   1.665   6.179   7.046
15303TIP3    H245795   1.769   6.112   7.137
15304TIP3   OH245796   1.590   6.393   6.746
15304TIP3    H145797   1.685   6.384   6.734
15304TIP3    H245798   1.585   6.469   6.807
15305TIP3   OH245799   3.445   6.848   6.800
15305TIP3    H145800   3.446   6.751   6.811
15305TIP3    H245801   3.363   6.871   6.848
15306TIP3   OH245802   2.495   6.655   6.915
15306TIP3    H145803   2.543   6.729   6.956
15306TIP3    H245804   2.499   6.587   6.985
15307TIP3   OH245805   2.315   6.757   5.891
15307TIP3    H145806   2.273   6.741   5.805
15307TIP3    H245807   2.287   6.848   5.913
15308TIP3   OH245808   1.754   6.607   6.274
15308TIP3    H145809   1.803   6.600   6.359
15308TIP3    H245810   1.701   6.526   6.277
15309TIP3   OH245811   2.516   6.658   5.529
15309TIP3    H145812   2.576   6.590   5.492
15309TIP3    H245813   2.553   6.670   5.619
15310TIP3   OH245814   2.567   6.701   5.800
15310TIP3    H145815   2.480   6.714   5.844
15310TIP3    H245816   2.622   6.672   5.874
15311TIP3   OH245817   3.344   5.972   7.087
15311TIP3    H145818   3.267   5.990   7.032
15311TIP3    H245819   3.353   5.875   7.080
15312TIP3   OH245820   1.937   6.382   7.100
15312TIP3    H145821   1.987   6.369   7.184
15312TIP3    H245822   1.862   6.320   7.111
15313TIP3   OH245823   2.337   5.207   6.888
15313TIP3    H145824   2.247   5.177   6.861
15313TIP3    H245825   2.312   5.289   6.934
15314TIP3   OH245826   2.869   5.331   7.068
15314TIP3    H145827   2.938   5.308   7.135
15314TIP3    H245828   2.787   5.314   7.118
15315TIP3   OH245829   3.099   5.756   6.981
15315TIP3    H145830   3.063   5.749   7.073
15315TIP3    H245831   3.088   5.851   6.963
15316TIP3   OH245832   2.767   5.874   5.554
15316TIP3    H145833   2.736   5.854   5.464
15316TIP3    H245834   2.846   5.928   5.534
15317TIP3   OH245835   2.480   5.255   5.859
15317TIP3    H145836   2.450   5.261   5.952
15317TIP3    H245837   2.444   5.169   5.835
15318TIP3   OH245838   2.270   5.721   6.904
15318TIP3    H145839   2.221   5.743   6.986
15318TIP3    H245840   2.255   5.802   6.851
15319TIP3   OH245841   2.154   5.606   6.419
15319TIP3    H145842   2.060   5.584   6.437
15319TIP3    H245843   2.165   5.566   6.330
15320TIP3   OH245844   2.641   5.690   6.145
15320TIP3    H145845   2.589   5.764   6.106
15320TIP3    H245846   2.697   5.664   6.070
15321TIP3   OH245847   2.818   5.971   7.227
15321TIP3    H145848   2.797   5.902   7.293
15321TIP3    H245849   2.909   5.994   7.253
15322TIP3   OH245850   2.798   5.718   6.393
15322TIP3    H145851   2.742   5.762   6.326
15322TIP3    H245852   2.823   5.639   6.340
15323TIP3   OH245853   2.089   5.751   7.113
15323TIP3    H145854   2.112   5.819   7.178
15323TIP3    H245855   2.077   5.672   7.169
15324TIP3   OH245856   2.135   5.241   5.831
15324TIP3    H145857   2.120   5.246   5.928
15324TIP3    H245858   2.058   5.293   5.799
15325TIP3   OH245859   1.681   5.268   6.696
15325TIP3    H145860   1.752   5.306   6.752
15325TIP3    H245861   1.728   5.247   6.614
15326TIP3   OH245862   1.648   5.254   6.213
15326TIP3    H145863   1.692   5.293   6.134
15326TIP3    H245864   1.589   5.329   6.236
15327TIP3   OH245865   2.786   5.962   6.805
15327TIP3    H145866   2.834   5.894   6.757
15327TIP3    H245867   2.774   5.919   6.892
15328TIP3   OH245868   2.477   5.430   6.478
15328TIP3    H145869   2.397   5.430   6.534
15328TIP3    H245870   2.548   5.420   6.544
15329TIP3   OH245871   1.913   5.487   6.489
15329TIP3    H145872   1.819   5.496   6.462
15329TIP3    H245873   1.936   5.396   6.464
15330TIP3   OH245874   2.183   5.478   6.178
15330TIP3    H145875   2.276   5.500   6.157
15330TIP3    H245876   2.135   5.504   6.096
15331TIP3   OH245877   2.029   5.511   5.956
15331TIP3    H145878   1.954   5.473   5.907
15331TIP3    H245879   2.079   5.552   5.883
15332TIP3   OH245880   3.142   7.196   6.902
15332TIP3    H145881   3.141   7.217   6.807
15332TIP3    H245882   3.222   7.242   6.932
15333TIP3   OH245883   2.098   6.301   7.322
15333TIP3    H145884   2.178   6.335   7.366
15333TIP3    H245885   2.034   6.307   7.396
15334TIP3   OH245886   2.566   5.760   6.578
15334TIP3    H145887   2.641   5.722   6.528
15334TIP3    H245888   2.567   5.711   6.662
15335TIP3   OH245889   2.083   5.246   6.458
15335TIP3    H145890   2.049   5.167   6.505
15335TIP3    H245891   2.134   5.208   6.386
15336TIP3   OH245892   2.542   5.659   6.869
15336TIP3    H145893   2.450   5.692   6.879
15336TIP3    H245894   2.594   5.722   6.922
15337TIP3   OH245895   2.277   6.044   5.964
15337TIP3    H145896   2.202   5.982   5.952
15337TIP3    H245897   2.257   6.080   6.054
15338TIP3   OH245898   3.179   6.268   6.594
15338TIP3    H145899   3.201   6.333   6.524
15338TIP3    H245900   3.086   6.245   6.572
15339TIP3   OH245901   2.733   5.360   5.826
15339TIP3    H145902   2.635   5.349   5.833
15339TIP3    H245903   2.747   5.454   5.848
15340TIP3   OH245904   2.805   5.605   5.927
15340TIP3    H145905   2.900   5.615   5.943
15340TIP3    H245906   2.783   5.686   5.876
15341TIP3   OH245907   1.964   6.063   6.639
15341TIP3    H145908   2.005   6.039   6.554
15341TIP3    H245909   2.011   6.006   6.702
15342TIP3   OH245910   2.421   6.195   5.785
15342TIP3    H145911   2.373   6.281   5.788
15342TIP3    H245912   2.367   6.141   5.846
15343TIP3   OH245913   1.850   5.986   7.252
15343TIP3    H145914   1.870   5.976   7.347
15343TIP3    H245915   1.778   5.922   7.240
15344TIP3   OH245916   2.575   6.097   7.277
15344TIP3    H145917   2.518   6.045   7.220
15344TIP3    H245918   2.664   6.074   7.243
15345TIP3   OH245919   3.244   5.698   5.766
15345TIP3    H145920   3.182   5.654   5.702
15345TIP3    H245921   3.241   5.788   5.726
15346TIP3   OH245922   3.476   6.557   6.847
15346TIP3    H145923   3.378   6.550   6.835
15346TIP3    H245924   3.502   6.526   6.757
15347TIP3   OH245925   2.941   6.519   5.671
15347TIP3    H145926   2.921   6.450   5.735
15347TIP3    H245927   2.957   6.471   5.588
15348TIP3   OH245928   2.946   6.136   6.506
15348TIP3    H145929   2.850   6.126   6.522
15348TIP3    H245930   2.967   6.059   6.451
15349TIP3   OH245931   2.070   6.370   6.261
15349TIP3    H145932   2.072   6.453   6.209
15349TIP3    H245933   1.975   6.359   6.274
15350TIP3   OH245934   1.636   5.676   5.968
15350TIP3    H145935   1.678   5.762   5.987
15350TIP3    H245936   1.556   5.682   6.025
15351TIP3   OH245937   2.205   6.135   6.207
15351TIP3    H145938   2.172   6.226   6.223
15351TIP3    H245939   2.168   6.089   6.284
15352TIP3   OH245940   2.326   6.717   6.718
15352TIP3    H145941   2.380   6.786   6.675
15352TIP3    H245942   2.391   6.686   6.786
15353TIP3   OH245943   1.988   6.612   6.116
15353TIP3    H145944   1.902   6.621   6.162
15353TIP3    H245945   2.021   6.705   6.120
15354TIP3   OH245946   2.702   6.238   5.574
15354TIP3    H145947   2.754   6.215   5.654
15354TIP3    H245948   2.612   6.219   5.605
15355TIP3   OH245949   2.970   6.885   6.749
15355TIP3    H145950   2.898   6.820   6.742
15355TIP3    H245951   2.954   6.943   6.672
15356TIP3   OH245952   3.037   6.728   5.384
15356TIP3    H145953   3.096   6.793   5.343
15356TIP3    H245954   2.959   6.788   5.391
15357TIP3   OH245955   2.061   5.492   7.261
15357TIP3    H145956   1.965   5.498   7.275
15357TIP3    H245957   2.089   5.435   7.335
15358TIP3   OH245958   2.861   6.172   5.789
15358TIP3    H145959   2.853   6.108   5.863
15358TIP3    H245960   2.958   6.174   5.778
15359TIP3   OH245961   1.775   6.578   6.892
15359TIP3    H145962   1.832   6.507   6.925
15359TIP3    H245963   1.801   6.651   6.949
15360TIP3   OH245964   2.067   6.224   5.575
15360TIP3    H145965   2.080   6.132   5.545
15360TIP3    H245966   2.048   6.212   5.670
15361TIP3   OH245967   2.012   6.228   5.848
15361TIP3    H145968   2.086   6.205   5.906
15361TIP3    H245969   2.014   6.326   5.852
15362TIP3   OH245970   1.748   5.922   6.051
15362TIP3    H145971   1.681   5.967   6.106
15362TIP3    H245972   1.761   5.991   5.982
15363TIP3   OH245973   2.953   5.537   6.881
15363TIP3    H145974   2.981   5.599   6.953
15363TIP3    H245975   2.906   5.471   6.938
15364TIP3   OH245976   2.776   5.310   6.106
15364TIP3    H145977   2.763   5.333   6.012
15364TIP3    H245978   2.815   5.392   6.142
15365TIP3   OH245979   2.277   6.423   5.794
15365TIP3    H145980   2.191   6.452   5.830
15365TIP3    H245981   2.298   6.498   5.736
15366TIP3   OH245982   2.466   5.487   6.207
15366TIP3    H145983   2.529   5.560   6.189
15366TIP3    H245984   2.470   5.482   6.305
15367TIP3   OH245985   2.751   5.800   7.024
15367TIP3    H145986   2.749   5.875   7.087
15367TIP3    H245987   2.801   5.736   7.078
15368TIP3   OH245988   2.610   5.213   6.309
15368TIP3    H145989   2.604   5.289   6.371
15368TIP3    H245990   2.670   5.251   6.241
15369TIP3   OH245991   2.020   6.500   5.863
15369TIP3    H145992   1.992   6.571   5.800
15369TIP3    H245993   2.006   6.545   5.949
15370TIP3   OH245994   2.122   5.215   6.104
15370TIP3    H145995   2.118   5.307   6.139
15370TIP3    H245996   2.219   5.200   6.112
15371TIP3   OH245997   3.368   5.700   7.003
15371TIP3    H145998   3.272   5.704   6.985
15371TIP3    H245999   3.409   5.710   6.915
15372TIP3   OH246000   3.022   5.891   6.382
15372TIP3    H146001   2.947   5.832   6.401
15372TIP3    H246002   3.096   5.854   6.433
15373TIP3   OH246003   1.740   6.129   5.856
15373TIP3    H146004   1.806   6.201   5.864
15373TIP3    H246005   1.785   6.075   5.788
15374TIP3   OH246006   1.682   5.405   5.988
15374TIP3    H146007   1.687   5.503   5.987
15374TIP3    H246008   1.600   5.391   5.939
15375TIP3   OH246009   2.993   6.858   6.334
15375TIP3    H146010   2.952   6.906   6.259
15375TIP3    H246011   3.088   6.876   6.315
15376TIP3   OH246012   2.073   5.126   6.861
15376TIP3    H146013   2.040   5.093   6.775
15376TIP3    H246014   2.060   5.048   6.919
15377TIP3   OH246015   1.610   6.344   6.242
15377TIP3    H146016   1.540   6.377   6.300
15377TIP3    H246017   1.583   6.386   6.156
15378TIP3   OH246018   1.769   6.886   7.310
15378TIP3    H146019   1.854   6.889   7.358
15378TIP3    H246020   1.748   6.791   7.312
15379TIP3   OH246021   2.248   6.850   7.360
15379TIP3    H146022   2.344   6.834   7.364
15379TIP3    H246023   2.224   6.792   7.285
15380TIP3   OH246024   2.230   6.428   5.486
15380TIP3    H146025   2.175   6.356   5.524
15380TIP3    H246026   2.305   6.377   5.451
15381TIP3   OH246027   2.866   6.793   7.110
15381TIP3    H146028   2.867   6.697   7.124
15381TIP3    H246029   2.960   6.817   7.119
15382TIP3   OH246030   2.665   6.466   5.396
15382TIP3    H146031   2.715   6.408   5.456
15382TIP3    H246032   2.722   6.470   5.317
15383TIP3   OH246033   1.897   6.293   7.516
15383TIP3    H146034   1.913   6.197   7.518
15383TIP3    H246035   1.810   6.298   7.471
15384TIP3   OH246036   1.874   5.943   5.708
15384TIP3    H146037   1.932   5.915   5.781
15384TIP3    H246038   1.940   5.949   5.635
15385TIP3   OH246039   2.507   6.379   7.298
15385TIP3    H146040   2.465   6.403   7.212
15385TIP3    H246041   2.546   6.292   7.279
15386TIP3   OH246042   2.387   6.141   5.515
15386TIP3    H146043   2.389   6.155   5.612
15386TIP3    H246044   2.382   6.044   5.511
15387TIP3   OH246045   2.016   6.023   7.499
15387TIP3    H146046   2.097   5.979   7.472
15387TIP3    H246047   2.041   6.060   7.586
15388TIP3   OH246048   2.082   5.848   5.929
15388TIP3    H146049   2.054   5.809   6.013
15388TIP3    H246050   2.118   5.771   5.880
15389TIP3   OH246051   2.352   5.908   7.153
15389TIP3    H146052   2.275   5.970   7.160
15389TIP3    H246053   2.401   5.945   7.076
15390TIP3   OH246054   2.185   5.637   5.771
15390TIP3    H146055   2.157   5.648   5.677
15390TIP3    H246056   2.282   5.648   5.762
15391TIP3   OH246057   2.861   6.306   7.306
15391TIP3    H146058   2.940   6.298   7.251
15391TIP3    H246059   2.875   6.240   7.376
15392TIP3   OH246060   3.005   5.971   5.434
15392TIP3    H146061   2.983   5.927   5.350
15392TIP3    H246062   2.975   6.062   5.413
15393TIP3   OH246063   2.476   5.702   7.283
15393TIP3    H146064   2.474   5.622   7.226
15393TIP3    H246065   2.431   5.769   7.227
15394TIP3   OH246066   2.478   5.485   7.089
15394TIP3    H146067   2.502   5.530   7.006
15394TIP3    H246068   2.384   5.464   7.073
15395TIP3   OH246069   2.509   6.019   6.960
15395TIP3    H146070   2.590   6.043   6.912
15395TIP3    H246071   2.445   6.084   6.922
15396TIP3   OH246072   3.087   5.988   7.343
15396TIP3    H146073   3.143   5.912   7.363
15396TIP3    H246074   3.153   6.054   7.316
15397TIP3   OH246075   3.118   6.251   7.058
15397TIP3    H146076   3.063   6.318   7.013
15397TIP3    H246077   3.207   6.275   7.024
15398TIP3   OH246078   2.354   5.810   7.516
15398TIP3    H146079   2.284   5.743   7.529
15398TIP3    H246080   2.388   5.787   7.428
15399TIP3   OH246081   2.611   5.250   7.155
15399TIP3    H146082   2.561   5.332   7.135
15399TIP3    H246083   2.541   5.182   7.147
15400TIP3   OH246084   2.740   5.752   7.371
15400TIP3    H146085   2.732   5.744   7.468
15400TIP3    H246086   2.647   5.730   7.346
15401TIP3   OH246087   2.970   5.691   7.215
15401TIP3    H146088   2.900   5.703   7.282
15401TIP3    H246089   3.047   5.668   7.272
15402TIP3   OH246090   3.192   5.642   7.376
15402TIP3    H146091   3.212   5.548   7.397
15402TIP3    H246092   3.193   5.684   7.465
15403TIP3   OH246093   2.190   5.591   7.568
15403TIP3    H146094   2.199   5.499   7.535
15403TIP3    H246095   2.227   5.581   7.658
15404TIP3   OH246096   2.703   5.259   7.415
15404TIP3    H146097   2.772   5.189   7.410
15404TIP3    H246098   2.665   5.253   7.326
15405TIP3   OH246099   2.768   5.474   7.577
15405TIP3    H146100   2.746   5.404   7.511
15405TIP3    H246101   2.691   5.534   7.570
15406TIP3   OH246102   1.990   6.703   5.675
15406TIP3    H146103   2.086   6.697   5.658
15406TIP3    H246104   1.963   6.753   5.596
15407TIP3   OH246105   1.473   6.083   5.893
15407TIP3    H146106   1.568   6.105   5.876
15407TIP3    H246107   1.466   5.995   5.850
15408TIP3   OH246108   1.370   6.706   6.320
15408TIP3    H146109   1.308   6.642   6.279
15408TIP3    H246110   1.419   6.649   6.382
15409TIP3   OH246111   1.519   6.549   6.492
15409TIP3    H146112   1.513   6.475   6.555
15409TIP3    H246113   1.572   6.612   6.545
15410TIP3   OH246114   3.246   6.952   6.291
15410TIP3    H146115   3.275   6.978   6.380
15410TIP3    H246116   3.314   6.991   6.235
15411TIP3   OH246117   3.277   6.969   6.574
15411TIP3    H146118   3.230   6.883   6.572
15411TIP3    H246119   3.354   6.943   6.627
15412TIP3   OH246120   3.328   6.644   7.150
15412TIP3    H146121   3.253   6.655   7.212
15412TIP3    H246122   3.368   6.733   7.151
15413TIP3   OH246123   3.141   6.158   5.765
15413TIP3    H146124   3.207   6.225   5.737
15413TIP3    H246125   3.186   6.121   5.844
15414TIP3   OH246126   3.269   6.024   5.967
15414TIP3    H146127   3.203   5.987   6.030
15414TIP3    H246128   3.336   6.064   6.027
15415TIP3   OH246129   3.322   6.417   6.405
15415TIP3    H146130   3.375   6.357   6.351
15415TIP3    H246131   3.312   6.494   6.346
15416TIP3   OH246132   3.147   6.722   6.597
15416TIP3    H146133   3.076   6.752   6.656
15416TIP3    H246134   3.099   6.665   6.533
15417TIP3   OH246135   3.206   5.933   5.617
15417TIP3    H146136   3.134   5.937   5.550
15417TIP3    H246137   3.180   6.010   5.672
15418TIP3   OH246138   3.078   5.609   5.572
15418TIP3    H146139   3.034   5.649   5.496
15418TIP3    H246140   3.052   5.515   5.561
15419TIP3   OH246141   3.081   5.886   6.115
15419TIP3    H146142   3.089   5.789   6.109
15419TIP3    H246143   3.065   5.900   6.211
15420TIP3   OH246144   1.709   5.953   6.865
15420TIP3    H146145   1.706   5.925   6.771
15420TIP3    H246146   1.806   5.957   6.880
15421TIP3   OH246147   3.370   6.308   6.974
15421TIP3    H146148   3.445   6.247   6.959
15421TIP3    H246149   3.385   6.377   6.907
15422TIP3   OH246150   3.553   6.109   6.981
15422TIP3    H146151   3.483   6.062   7.031
15422TIP3    H246152   3.630   6.051   6.998
15423TIP3   OH246153   3.020   5.344   5.560
15423TIP3    H146154   3.100   5.310   5.605
15423TIP3    H246155   2.951   5.279   5.579
15424TIP3   OH246156   3.080   5.600   6.016
15424TIP3    H146157   3.120   5.511   6.024
15424TIP3    H246158   3.135   5.637   5.944
15425TIP3   OH246159   3.236   5.778   6.517
15425TIP3    H146160   3.320   5.798   6.468
15425TIP3    H246161   3.257   5.826   6.600
15426TIP3   OH246162   3.300   5.924   6.743
15426TIP3    H146163   3.227   5.968   6.790
15426TIP3    H246164   3.339   6.001   6.694
15427TIP3   OH246165   1.923   5.639   7.531
15427TIP3    H146166   2.021   5.636   7.537
15427TIP3    H246167   1.900   5.555   7.577
15428TIP3   OH246168   3.751   5.501   7.294
15428TIP3    H146169   3.818   5.442   7.254
15428TIP3    H246170   3.730   5.561   7.220
15429TIP3   OH246171   3.185   5.350   6.052
15429TIP3    H146172   3.239   5.327   6.130
15429TIP3    H246173   3.126   5.271   6.046
15430TIP3   OH246174   1.887   5.335   6.867
15430TIP3    H146175   1.951   5.262   6.878
15430TIP3    H246176   1.947   5.411   6.862
15431TIP3   OH246177   1.690   5.607   6.942
15431TIP3    H146178   1.739   5.607   6.858
15431TIP3    H246179   1.711   5.695   6.977
15432TIP3   OH246180   3.631   5.648   7.100
15432TIP3    H146181   3.547   5.687   7.132
15432TIP3    H246182   3.597   5.578   7.041
15433TIP3   OH246183   3.271   5.284   5.673
15433TIP3    H146184   3.332   5.221   5.631
15433TIP3    H246185   3.327   5.364   5.677
15434TIP3   OH246186   1.671   5.103   6.435
15434TIP3    H146187   1.581   5.109   6.472
15434TIP3    H246188   1.669   5.168   6.362
15435TIP3   OH246189   2.834   6.813   5.951
15435TIP3    H146190   2.881   6.806   5.866
15435TIP3    H246191   2.885   6.883   5.995
15436TIP3   OH246192   1.892   5.187   7.255
15436TIP3    H146193   1.844   5.187   7.339
15436TIP3    H246194   1.827   5.230   7.196
15437TIP3   OH246195   1.933   6.614   7.332
15437TIP3    H146196   1.839   6.592   7.319
15437TIP3    H246197   1.943   6.606   7.428
15438TIP3   OH246198   2.110   6.651   6.881
15438TIP3    H146199   2.066   6.730   6.842
15438TIP3    H246200   2.197   6.662   6.836
15439TIP3   OH246201   2.559   6.914   7.028
15439TIP3    H146202   2.605   6.905   7.114
15439TIP3    H246203   2.629   6.954   6.972
15440TIP3   OH246204   2.739   7.050   6.871
15440TIP3    H146205   2.810   6.992   6.840
15440TIP3    H246206   2.788   7.107   6.934
15441TIP3   OH246207   3.534   5.404   6.981
15441TIP3    H146208   3.441   5.384   6.960
15441TIP3    H246209   3.575   5.316   6.969
15442TIP3   OH246210   1.786   6.906   6.906
15442TIP3    H146211   1.697   6.940   6.886
15442TIP3    H246212   1.803   6.949   6.991
15443TIP3   OH246213   2.023   6.888   6.765
15443TIP3    H146214   1.936   6.900   6.808
15443TIP3    H246215   2.005   6.919   6.674
15444TIP3   OH246216   2.451   6.920   6.559
15444TIP3    H146217   2.381   6.942   6.495
15444TIP3    H246218   2.464   7.005   6.605
15445TIP3   OH246219   2.719   6.851   6.595
15445TIP3    H146220   2.624   6.872   6.587
15445TIP3    H246221   2.761   6.934   6.567
15446TIP3   OH246222   2.926   7.048   6.527
15446TIP3    H146223   2.913   7.132   6.478
15446TIP3    H246224   2.952   6.986   6.456
15447TIP3   OH246225   1.699   6.703   6.651
15447TIP3    H146226   1.728   6.677   6.741
15447TIP3    H246227   1.770   6.660   6.599
15448TIP3   OH246228   1.892   6.575   6.508
15448TIP3    H146229   1.908   6.492   6.557
15448TIP3    H246230   1.983   6.613   6.506
15449TIP3   OH246231   2.156   6.669   6.511
15449TIP3    H146232   2.190   6.579   6.500
15449TIP3    H246233   2.206   6.694   6.592
15450TIP3   OH246234   2.717   5.322   6.592
15450TIP3    H146235   2.684   5.251   6.649
15450TIP3    H246236   2.801   5.285   6.559
15451TIP3   OH246237   3.256   5.223   6.518
15451TIP3    H146238   3.297   5.257   6.435
15451TIP3    H246239   3.161   5.217   6.494
15452TIP3   OH246240   3.347   5.306   6.273
15452TIP3    H146241   3.417   5.249   6.234
15452TIP3    H246242   3.388   5.394   6.254
15453TIP3   OH246243   1.984   5.033   6.612
15453TIP3    H146244   1.891   5.000   6.615
15453TIP3    H246245   2.033   4.948   6.610
15454TIP3   OH246246   1.769   4.905   6.258
15454TIP3    H146247   1.799   4.965   6.187
15454TIP3    H246248   1.741   4.968   6.327
15455TIP3   OH246249   2.428   5.064   6.494
15455TIP3    H146250   2.486   5.115   6.434
15455TIP3    H246251   2.447   5.106   6.579
15456TIP3   OH246252   2.979   5.212   6.474
15456TIP3    H146253   2.966   5.173   6.386
15456TIP3    H246254   2.962   5.133   6.532
15457TIP3   OH246255   3.001   5.139   6.042
15457TIP3    H146256   2.914   5.179   6.055
15457TIP3    H246257   2.988   5.052   6.086
15458TIP3   OH246258   1.487   6.477   6.041
15458TIP3    H146259   1.403   6.442   6.008
15458TIP3    H246260   1.477   6.571   6.018
15459TIP3   OH246261   1.886   5.063   6.029
15459TIP3    H146262   1.935   5.005   5.969
15459TIP3    H246263   1.957   5.120   6.065
15460TIP3   OH246264   2.401   5.237   6.123
15460TIP3    H146265   2.462   5.194   6.186
15460TIP3    H246266   2.417   5.331   6.148
15461TIP3   OH246267   2.258   6.663   5.625
15461TIP3    H146268   2.347   6.685   5.589
15461TIP3    H246269   2.237   6.588   5.565
15462TIP3   OH246270   2.972   6.789   5.711
15462TIP3    H146271   2.963   6.691   5.697
15462TIP3    H246272   2.923   6.824   5.635
15463TIP3   OH246273   2.191   5.312   7.501
15463TIP3    H146274   2.156   5.244   7.561
15463TIP3    H246275   2.285   5.314   7.530
15464TIP3   OH246276   2.439   5.311   7.623
15464TIP3    H146277   2.526   5.290   7.585
15464TIP3    H246278   2.428   5.240   7.689
15465TIP3   OH246279   1.564   6.500   5.679
15465TIP3    H146280   1.568   6.523   5.773
15465TIP3    H246281   1.651   6.457   5.664
15466TIP3   OH246282   3.266   5.373   7.411
15466TIP3    H146283   3.285   5.343   7.502
15466TIP3    H246284   3.355   5.371   7.370
15467TIP3   OH246285   3.201   6.925   6.906
15467TIP3    H146286   3.123   6.893   6.857
15467TIP3    H246287   3.182   7.021   6.909
15468TIP3   OH246288   4.471   6.297   5.667
15468TIP3    H146289   4.447   6.390   5.651
15468TIP3    H246290   4.388   6.253   5.642
15469TIP3   OH246291   4.474   6.294   6.049
15469TIP3    H146292   4.504   6.275   6.140
15469TIP3    H246293   4.426   6.213   6.026
15470TIP3   OH246294   3.771   6.193   6.415
15470TIP3    H146295   3.804   6.128   6.479
15470TIP3    H246296   3.840   6.261   6.420
15471TIP3   OH246297   4.712   6.600   5.734
15471TIP3    H146298   4.700   6.535   5.804
15471TIP3    H246299   4.743   6.678   5.784
15472TIP3   OH246300   3.730   6.599   6.133
15472TIP3    H146301   3.729   6.502   6.139
15472TIP3    H246302   3.821   6.619   6.162
15473TIP3   OH246303   3.447   5.800   5.926
15473TIP3    H146304   3.405   5.887   5.944
15473TIP3    H246305   3.373   5.755   5.881
15474TIP3   OH246306   3.505   6.091   6.093
15474TIP3    H146307   3.557   6.017   6.133
15474TIP3    H246308   3.572   6.139   6.043
15475TIP3   OH246309   4.361   7.064   5.746
15475TIP3    H146310   4.409   6.989   5.704
15475TIP3    H246311   4.348   7.032   5.836
15476TIP3   OH246312   4.270   6.521   6.097
15476TIP3    H146313   4.313   6.447   6.051
15476TIP3    H246314   4.350   6.570   6.125
15477TIP3   OH246315   5.280   5.845   6.096
15477TIP3    H146316   5.309   5.926   6.143
15477TIP3    H246317   5.308   5.865   6.005
15478TIP3   OH246318   4.680   6.026   6.132
15478TIP3    H146319   4.723   5.941   6.153
15478TIP3    H246320   4.650   6.009   6.041
15479TIP3   OH246321   4.019   5.684   6.096
15479TIP3    H146322   3.999   5.758   6.035
15479TIP3    H246323   3.969   5.612   6.053
15480TIP3   OH246324   4.714   5.773   5.718
15480TIP3    H146325   4.783   5.761   5.788
15480TIP3    H246326   4.768   5.815   5.649
15481TIP3   OH246327   3.650   5.885   6.205
15481TIP3    H146328   3.734   5.870   6.253
15481TIP3    H246329   3.667   5.832   6.125
15482TIP3   OH246330   4.095   6.084   5.992
15482TIP3    H146331   4.188   6.058   6.009
15482TIP3    H246332   4.055   5.999   5.963
15483TIP3   OH246333   5.352   6.048   6.269
15483TIP3    H146334   5.270   6.099   6.251
15483TIP3    H246335   5.377   6.084   6.356
15484TIP3   OH246336   4.015   5.667   6.530
15484TIP3    H146337   3.956   5.707   6.463
15484TIP3    H246338   3.964   5.686   6.612
15485TIP3   OH246339   4.366   6.522   5.534
15485TIP3    H146340   4.316   6.503   5.454
15485TIP3    H246341   4.323   6.605   5.564
15486TIP3   OH246342   4.123   6.442   6.327
15486TIP3    H146343   4.056   6.506   6.363
15486TIP3    H246344   4.163   6.497   6.257
15487TIP3   OH246345   4.921   5.780   5.892
15487TIP3    H146346   4.907   5.738   5.978
15487TIP3    H246347   4.974   5.858   5.917
15488TIP3   OH246348   3.886   5.783   6.315
15488TIP3    H146349   3.946   5.857   6.339
15488TIP3    H246350   3.937   5.743   6.241
15489TIP3   OH246351   3.928   6.617   6.399
15489TIP3    H146352   3.928   6.712   6.376
15489TIP3    H246353   3.864   6.620   6.473
15490TIP3   OH246354   3.344   6.327   5.660
15490TIP3    H146355   3.303   6.357   5.577
15490TIP3    H246356   3.374   6.413   5.697
15491TIP3   OH246357   4.785   6.843   5.895
15491TIP3    H146358   4.696   6.834   5.937
15491TIP3    H246359   4.777   6.930   5.853
15492TIP3   OH246360   5.075   5.739   6.259
15492TIP3    H146361   4.990   5.777   6.233
15492TIP3    H246362   5.137   5.775   6.192
15493TIP3   OH246363   4.369   5.387   6.243
15493TIP3    H146364   4.358   5.293   6.264
15493TIP3    H246365   4.293   5.426   6.291
15494TIP3   OH246366   4.488   6.887   5.574
15494TIP3    H146367   4.540   6.807   5.552
15494TIP3    H246368   4.546   6.955   5.533
15495TIP3   OH246369   4.632   6.671   5.479
15495TIP3    H146370   4.576   6.596   5.454
15495TIP3    H246371   4.669   6.640   5.565
15496TIP3   OH246372   5.009   6.757   6.244
15496TIP3    H146373   4.999   6.679   6.184
15496TIP3    H246374   4.992   6.831   6.183
15497TIP3   OH246375   4.297   6.144   5.499
15497TIP3    H146376   4.218   6.200   5.483
15497TIP3    H246377   4.345   6.155   5.416
15498TIP3   OH246378   4.258   5.938   5.216
15498TIP3    H146379   4.321   5.988   5.271
15498TIP3    H246380   4.319   5.877   5.170
15499TIP3   OH246381   5.203   6.389   6.085
15499TIP3    H146382   5.122   6.444   6.092
15499TIP3    H246383   5.236   6.416   5.997
15500TIP3   OH246384   4.649   6.229   5.472
15500TIP3    H146385   4.594   6.257   5.550
15500TIP3    H246386   4.733   6.208   5.517
15501TIP3   OH246387   4.883   6.271   6.387
15501TIP3    H146388   4.884   6.354   6.438
15501TIP3    H246389   4.798   6.279   6.341
15502TIP3   OH246390   3.882   6.229   5.888
15502TIP3    H146391   3.843   6.171   5.820
15502TIP3    H246392   3.960   6.177   5.918
15503TIP3   OH246393   4.016   6.650   6.028
15503TIP3    H146394   3.995   6.594   5.952
15503TIP3    H246395   4.103   6.616   6.055
15504TIP3   OH246396   4.021   6.202   6.240
15504TIP3    H146397   4.055   6.186   6.150
15504TIP3    H246398   4.060   6.289   6.264
15505TIP3   OH246399   4.547   6.836   6.018
15505TIP3    H146400   4.526   6.919   6.065
15505TIP3    H246401   4.525   6.767   6.084
15506TIP3   OH246402   4.495   6.082   5.301
15506TIP3    H146403   4.551   6.145   5.353
15506TIP3    H246404   4.519   6.108   5.209
15507TIP3   OH246405   3.910   6.309   6.671
15507TIP3    H146406   3.917   6.399   6.709
15507TIP3    H246407   3.814   6.294   6.681
15508TIP3   OH246408   4.235   6.767   5.569
15508TIP3    H146409   4.313   6.822   5.590
15508TIP3    H246410   4.170   6.831   5.539
15509TIP3   OH246411   4.993   5.334   5.338
15509TIP3    H146412   4.940   5.358   5.414
15509TIP3    H246413   5.026   5.421   5.304
15510TIP3   OH246414   3.751   6.070   5.685
15510TIP3    H146415   3.683   6.120   5.635
15510TIP3    H246416   3.703   5.990   5.709
15511TIP3   OH246417   4.804   6.696   4.892
15511TIP3    H146418   4.811   6.794   4.880
15511TIP3    H246419   4.898   6.669   4.882
15512TIP3   OH246420   3.531   6.456   6.602
15512TIP3    H146421   3.456   6.439   6.541
15512TIP3    H246422   3.564   6.366   6.623
15513TIP3   OH246423   3.384   6.650   6.234
15513TIP3    H146424   3.480   6.644   6.225
15513TIP3    H246425   3.375   6.726   6.293
15514TIP3   OH246426   5.245   7.101   6.289
15514TIP3    H146427   5.245   7.005   6.304
15514TIP3    H246428   5.163   7.126   6.336
15515TIP3   OH246429   4.116   7.018   5.375
15515TIP3    H146430   4.066   7.002   5.293
15515TIP3    H246431   4.082   7.105   5.404
15516TIP3   OH246432   3.553   6.865   5.760
15516TIP3    H146433   3.602   6.857   5.845
15516TIP3    H246434   3.488   6.794   5.771
15517TIP3   OH246435   4.315   6.918   5.015
15517TIP3    H146436   4.375   6.847   4.981
15517TIP3    H246437   4.348   6.929   5.107
15518TIP3   OH246438   4.366   6.965   5.284
15518TIP3    H146439   4.277   6.976   5.326
15518TIP3    H246440   4.417   6.929   5.358
15519TIP3   OH246441   5.137   6.231   6.567
15519TIP3    H146442   5.055   6.244   6.515
15519TIP3    H246443   5.152   6.135   6.556
15520TIP3   OH246444   3.734   6.640   6.588
15520TIP3    H146445   3.784   6.631   6.671
15520TIP3    H246446   3.661   6.576   6.599
15521TIP3   OH246447   4.132   5.463   6.374
15521TIP3    H146448   4.042   5.433   6.348
15521TIP3    H246449   4.109   5.545   6.421
15522TIP3   OH246450   4.668   5.576   6.568
15522TIP3    H146451   4.737   5.551   6.633
15522TIP3    H246452   4.585   5.558   6.617
15523TIP3   OH246453   4.901   6.006   6.483
15523TIP3    H146454   4.855   6.003   6.570
15523TIP3    H246455   4.881   6.096   6.451
15524TIP3   OH246456   4.564   6.128   5.041
15524TIP3    H146457   4.533   6.110   4.950
15524TIP3    H246458   4.640   6.187   5.023
15525TIP3   OH246459   4.313   5.502   5.343
15525TIP3    H146460   4.270   5.514   5.430
15525TIP3    H246461   4.256   5.430   5.308
15526TIP3   OH246462   4.062   5.979   6.390
15526TIP3    H146463   4.015   6.002   6.473
15526TIP3    H246464   4.048   6.061   6.337
15527TIP3   OH246465   3.949   5.863   5.906
15527TIP3    H146466   3.855   5.840   5.925
15527TIP3    H246467   3.960   5.822   5.817
15528TIP3   OH246468   4.437   5.949   5.631
15528TIP3    H146469   4.382   6.022   5.595
15528TIP3    H246470   4.492   5.927   5.554
15529TIP3   OH246471   4.614   6.226   6.717
15529TIP3    H146472   4.592   6.155   6.781
15529TIP3    H246473   4.706   6.245   6.741
15530TIP3   OH246474   4.594   5.977   5.875
15530TIP3    H146475   4.536   6.013   5.806
15530TIP3    H246476   4.625   5.896   5.830
15531TIP3   OH246477   3.884   6.008   6.602
15531TIP3    H146478   3.910   6.077   6.665
15531TIP3    H246479   3.879   5.929   6.659
15532TIP3   OH246480   3.936   5.487   5.312
15532TIP3    H146481   3.924   5.487   5.409
15532TIP3    H246482   3.858   5.540   5.285
15533TIP3   OH246483   3.473   5.526   6.188
15533TIP3    H146484   3.548   5.562   6.240
15533TIP3    H246485   3.514   5.504   6.103
15534TIP3   OH246486   3.443   5.510   5.699
15534TIP3    H146487   3.490   5.548   5.622
15534TIP3    H246488   3.386   5.586   5.722
15535TIP3   OH246489   4.601   6.225   6.295
15535TIP3    H146490   4.637   6.154   6.237
15535TIP3    H246491   4.574   6.173   6.373
15536TIP3   OH246492   4.274   5.684   5.965
15536TIP3    H146493   4.193   5.685   6.020
15536TIP3    H246494   4.344   5.686   6.033
15537TIP3   OH246495   3.709   5.744   5.976
15537TIP3    H146496   3.615   5.751   5.949
15537TIP3    H246497   3.732   5.652   5.952
15538TIP3   OH246498   3.980   5.735   5.664
15538TIP3    H146499   4.072   5.758   5.643
15538TIP3    H246500   3.930   5.761   5.583
15539TIP3   OH246501   4.766   5.762   6.164
15539TIP3    H146502   4.738   5.775   6.258
15539TIP3    H246503   4.696   5.702   6.134
15540TIP3   OH246504   3.824   5.769   5.444
15540TIP3    H146505   3.750   5.728   5.396
15540TIP3    H246506   3.874   5.808   5.369
15541TIP3   OH246507   4.938   7.451   6.390
15541TIP3    H146508   4.936   7.475   6.295
15541TIP3    H246509   5.018   7.498   6.420
15542TIP3   OH246510   3.895   6.553   6.812
15542TIP3    H146511   3.974   6.595   6.851
15542TIP3    H246512   3.831   6.565   6.885
15543TIP3   OH246513   4.357   6.013   6.064
15543TIP3    H146514   4.436   5.978   6.019
15543TIP3    H246515   4.366   5.975   6.154
15544TIP3   OH246516   3.878   5.503   5.944
15544TIP3    H146517   3.845   5.424   5.993
15544TIP3    H246518   3.932   5.462   5.875
15545TIP3   OH246519   4.335   5.913   6.356
15545TIP3    H146520   4.246   5.951   6.370
15545TIP3    H246521   4.393   5.974   6.406
15546TIP3   OH246522   4.074   6.300   5.450
15546TIP3    H146523   3.999   6.238   5.438
15546TIP3    H246524   4.054   6.336   5.540
15547TIP3   OH246525   4.973   6.539   6.078
15547TIP3    H146526   4.998   6.589   5.998
15547TIP3    H246527   4.887   6.499   6.052
15548TIP3   OH246528   4.579   5.587   5.290
15548TIP3    H146529   4.482   5.566   5.295
15548TIP3    H246530   4.577   5.684   5.309
15549TIP3   OH246531   4.469   6.628   6.453
15549TIP3    H146532   4.502   6.596   6.537
15549TIP3    H246533   4.406   6.697   6.479
15550TIP3   OH246534   4.604   5.843   5.396
15550TIP3    H146535   4.695   5.864   5.427
15550TIP3    H246536   4.576   5.929   5.356
15551TIP3   OH246537   3.756   6.311   6.125
15551TIP3    H146538   3.802   6.292   6.041
15551TIP3    H246539   3.809   6.263   6.190
15552TIP3   OH246540   4.215   6.451   5.269
15552TIP3    H146541   4.168   6.538   5.274
15552TIP3    H246542   4.161   6.398   5.331
15553TIP3   OH246543   3.648   6.241   6.738
15553TIP3    H146544   3.670   6.234   6.833
15553TIP3    H246545   3.574   6.178   6.730
15554TIP3   OH246546   4.372   6.356   6.760
15554TIP3    H146547   4.313   6.299   6.707
15554TIP3    H246548   4.460   6.324   6.731
15555TIP3   OH246549   4.643   6.879   6.345
15555TIP3    H146550   4.547   6.883   6.345
15555TIP3    H246551   4.664   6.932   6.425
15556TIP3   OH246552   5.035   5.951   5.254
15556TIP3    H146553   4.975   5.903   5.192
15556TIP3    H246554   5.033   6.040   5.211
15557TIP3   OH246555   5.259   6.811   6.333
15557TIP3    H146556   5.162   6.805   6.324
15557TIP3    H246557   5.286   6.781   6.243
15558TIP3   OH246558   4.737   6.774   5.157
15558TIP3    H146559   4.716   6.708   5.225
15558TIP3    H246560   4.754   6.721   5.078
15559TIP3   OH246561   4.737   6.403   5.994
15559TIP3    H146562   4.644   6.377   6.009
15559TIP3    H246563   4.771   6.322   5.951
15560TIP3   OH246564   3.862   6.623   5.737
15560TIP3    H146565   3.862   6.709   5.692
15560TIP3    H246566   3.772   6.619   5.770
15561TIP3   OH246567   3.430   5.933   5.455
15561TIP3    H146568   3.474   6.018   5.475
15561TIP3    H246569   3.352   5.939   5.515
15562TIP3   OH246570   4.004   6.392   5.693
15562TIP3    H146571   3.966   6.482   5.707
15562TIP3    H246572   3.967   6.345   5.770
15563TIP3   OH246573   4.138   6.974   6.216
15563TIP3    H146574   4.193   7.048   6.184
15563TIP3    H246575   4.167   6.963   6.308
15564TIP3   OH246576   3.784   6.868   5.601
15564TIP3    H146577   3.699   6.876   5.648
15564TIP3    H246578   3.816   6.961   5.605
15565TIP3   OH246579   4.520   6.606   6.182
15565TIP3    H146580   4.511   6.608   6.280
15565TIP3    H246581   4.604   6.560   6.172
15566TIP3   OH246582   4.497   6.496   5.060
15566TIP3    H146583   4.551   6.471   5.139
15566TIP3    H246584   4.408   6.476   5.093
15567TIP3   OH246585   4.770   7.141   6.228
15567TIP3    H146586   4.691   7.085   6.218
15567TIP3    H246587   4.757   7.205   6.155
15568TIP3   OH246588   4.830   6.973   4.876
15568TIP3    H146589   4.873   7.049   4.834
15568TIP3    H246590   4.751   7.017   4.913
15569TIP3   OH246591   3.861   5.746   6.749
15569TIP3    H146592   3.766   5.750   6.769
15569TIP3    H246593   3.894   5.691   6.823
15570TIP3   OH246594   4.658   6.423   5.271
15570TIP3    H146595   4.649   6.365   5.348
15570TIP3    H246596   4.756   6.428   5.264
15571TIP3   OH246597   3.573   6.834   6.381
15571TIP3    H146598   3.634   6.763   6.404
15571TIP3    H246599   3.610   6.905   6.435
15572TIP3   OH246600   3.865   6.479   5.060
15572TIP3    H146601   3.877   6.386   5.035
15572TIP3    H246602   3.846   6.471   5.156
15573TIP3   OH246603   3.811   6.485   5.330
15573TIP3    H146604   3.875   6.461   5.399
15573TIP3    H246605   3.810   6.583   5.338
15574TIP3   OH246606   3.542   6.179   5.537
15574TIP3    H146607   3.477   6.224   5.595
15574TIP3    H246608   3.555   6.248   5.470
15575TIP3   OH246609   4.698   5.810   6.423
15575TIP3    H146610   4.772   5.855   6.466
15575TIP3    H246611   4.684   5.732   6.482
15576TIP3   OH246612   4.581   5.574   5.592
15576TIP3    H146613   4.532   5.625   5.526
15576TIP3    H246614   4.624   5.647   5.643
15577TIP3   OH246615   4.074   6.682   5.278
15577TIP3    H146616   3.988   6.705   5.317
15577TIP3    H246617   4.091   6.762   5.227
15578TIP3   OH246618   4.265   5.743   5.695
15578TIP3    H146619   4.325   5.820   5.680
15578TIP3    H246620   4.267   5.736   5.793
15579TIP3   OH246621   4.532   6.063   6.504
15579TIP3    H146622   4.552   6.120   6.581
15579TIP3    H246623   4.589   5.986   6.522
15580TIP3   OH246624   4.406   5.471   5.798
15580TIP3    H146625   4.400   5.543   5.864
15580TIP3    H246626   4.470   5.511   5.735
15581TIP3   OH246627   3.818   6.756   5.350
15581TIP3    H146628   3.788   6.826   5.288
15581TIP3    H246629   3.802   6.799   5.437
15582TIP3   OH246630   3.919   5.471   5.587
15582TIP3    H146631   3.915   5.562   5.624
15582TIP3    H246632   4.015   5.455   5.596
15583TIP3   OH246633   5.169   5.965   6.488
15583TIP3    H146634   5.071   5.961   6.490
15583TIP3    H246635   5.187   5.930   6.399
15584TIP3   OH246636   4.823   6.159   5.872
15584TIP3    H146637   4.748   6.101   5.890
15584TIP3    H246638   4.896   6.115   5.921
15585TIP3   OH246639   3.535   6.385   5.344
15585TIP3    H146640   3.595   6.461   5.353
15585TIP3    H246641   3.583   6.335   5.275
15586TIP3   OH246642   3.480   5.663   5.475
15586TIP3    H146643   3.480   5.761   5.473
15586TIP3    H246644   3.396   5.643   5.431
15587TIP3   OH246645   4.792   7.115   5.821
15587TIP3    H146646   4.749   7.161   5.745
15587TIP3    H246647   4.886   7.134   5.801
15588TIP3   OH246648   3.867   5.383   6.349
15588TIP3    H146649   3.836   5.349   6.262
15588TIP3    H246650   3.856   5.304   6.406
15589TIP3   OH246651   3.400   6.592   5.726
15589TIP3    H146652   3.339   6.630   5.791
15589TIP3    H246653   3.373   6.640   5.644
15590TIP3   OH246654   3.563   7.143   6.801
15590TIP3    H146655   3.651   7.138   6.843
15590TIP3    H246656   3.541   7.048   6.796
15591TIP3   OH246657   4.067   7.101   6.832
15591TIP3    H146658   4.156   7.063   6.842
15591TIP3    H246659   4.043   7.061   6.747
15592TIP3   OH246660   4.025   6.684   4.969
15592TIP3    H146661   3.968   6.615   5.011
15592TIP3    H246662   4.101   6.630   4.943
15593TIP3   OH246663   4.680   7.020   6.580
15593TIP3    H146664   4.673   6.948   6.648
15593TIP3    H246665   4.760   7.068   6.610
15594TIP3   OH246666   4.463   6.723   4.885
15594TIP3    H146667   4.507   6.662   4.946
15594TIP3    H246668   4.522   6.722   4.807
15595TIP3   OH246669   3.696   6.549   7.007
15595TIP3    H146670   3.711   6.453   7.006
15595TIP3    H246671   3.610   6.556   6.959
15596TIP3   OH246672   3.672   6.200   5.194
15596TIP3    H146673   3.728   6.172   5.269
15596TIP3    H246674   3.740   6.205   5.123
15597TIP3   OH246675   4.292   6.626   6.774
15597TIP3    H146676   4.257   6.648   6.686
15597TIP3    H246677   4.328   6.536   6.763
15598TIP3   OH246678   4.183   6.399   5.000
15598TIP3    H146679   4.183   6.413   5.097
15598TIP3    H246680   4.178   6.301   4.996
15599TIP3   OH246681   4.794   6.642   6.379
15599TIP3    H146682   4.869   6.687   6.337
15599TIP3    H246683   4.725   6.711   6.370
15600TIP3   OH246684   3.811   6.274   6.987
15600TIP3    H146685   3.896   6.239   6.958
15600TIP3    H246686   3.836   6.314   7.073
15601TIP3   OH246687   3.878   6.105   5.416
15601TIP3    H146688   3.849   6.069   5.501
15601TIP3    H246689   3.913   6.026   5.370
15602TIP3   OH246690   4.147   6.165   6.642
15602TIP3    H146691   4.071   6.227   6.647
15602TIP3    H246692   4.198   6.202   6.565
15603TIP3   OH246693   3.980   5.894   5.257
15603TIP3    H146694   3.952   5.904   5.163
15603TIP3    H246695   4.077   5.906   5.249
15604TIP3   OH246696   4.661   6.565   6.775
15604TIP3    H146697   4.747   6.548   6.735
15604TIP3    H246698   4.661   6.502   6.850
15605TIP3   OH246699   4.802   6.227   4.919
15605TIP3    H146700   4.779   6.185   4.834
15605TIP3    H246701   4.771   6.319   4.900
15606TIP3   OH246702   4.270   5.957   6.771
15606TIP3    H146703   4.272   5.878   6.713
15606TIP3    H246704   4.227   6.024   6.713
15607TIP3   OH246705   4.274   5.742   6.577
15607TIP3    H146706   4.302   5.786   6.494
15607TIP3    H246707   4.180   5.721   6.558
15608TIP3   OH246708   4.300   6.278   6.451
15608TIP3    H146709   4.384   6.293   6.404
15608TIP3    H246710   4.242   6.344   6.408
15609TIP3   OH246711   4.882   6.245   6.831
15609TIP3    H146712   4.933   6.164   6.844
15609TIP3    H246713   4.950   6.305   6.798
15610TIP3   OH246714   4.925   6.497   6.565
15610TIP3    H146715   4.866   6.551   6.508
15610TIP3    H246716   5.012   6.519   6.526
15611TIP3   OH246717   4.149   6.067   7.002
15611TIP3    H146718   4.079   6.000   7.016
15611TIP3    H246719   4.184   6.042   6.914
15612TIP3   OH246720   4.406   5.506   6.645
15612TIP3    H146721   4.358   5.589   6.623
15612TIP3    H246722   4.336   5.439   6.634
15613TIP3   OH246723   4.533   6.010   6.861
15613TIP3    H146724   4.523   6.000   6.958
15613TIP3    H246725   4.442   5.987   6.833
15614TIP3   OH246726   4.769   5.956   6.713
15614TIP3    H146727   4.696   5.962   6.777
15614TIP3    H246728   4.844   5.929   6.771
15615TIP3   OH246729   4.995   5.900   6.866
15615TIP3    H146730   5.011   5.805   6.885
15615TIP3    H246731   4.994   5.940   6.956
15616TIP3   OH246732   3.984   5.848   7.055
15616TIP3    H146733   3.997   5.758   7.022
15616TIP3    H246734   4.022   5.840   7.145
15617TIP3   OH246735   4.499   5.515   6.904
15617TIP3    H146736   4.568   5.446   6.898
15617TIP3    H246737   4.461   5.510   6.814
15618TIP3   OH246738   4.565   5.731   7.063
15618TIP3    H146739   4.543   5.660   6.998
15618TIP3    H246740   4.487   5.791   7.056
15619TIP3   OH246741   3.787   6.957   5.160
15619TIP3    H146742   3.882   6.954   5.141
15619TIP3    H246743   3.756   7.010   5.084
15620TIP3   OH246744   3.266   6.342   5.377
15620TIP3    H146745   3.361   6.364   5.365
15620TIP3    H246746   3.261   6.254   5.335
15621TIP3   OH246747   3.183   6.953   5.793
15621TIP3    H146748   3.114   6.893   5.755
15621TIP3    H246749   3.225   6.893   5.858
15622TIP3   OH246750   3.322   6.800   5.977
15622TIP3    H146751   3.308   6.731   6.045
15622TIP3    H246752   3.372   6.865   6.030
15623TIP3   OH246753   5.044   7.207   5.779
15623TIP3    H146754   5.072   7.237   5.868
15623TIP3    H246755   5.110   7.249   5.722
15624TIP3   OH246756   5.075   7.226   6.061
15624TIP3    H146757   5.031   7.138   6.057
15624TIP3    H246758   5.150   7.203   6.119
15625TIP3   OH246759   5.120   6.903   6.634
15625TIP3    H146760   5.048   6.912   6.699
15625TIP3    H246761   5.162   6.991   6.638
15626TIP3   OH246762   4.940   6.414   5.251
15626TIP3    H146763   5.006   6.481   5.224
15626TIP3    H246764   4.982   6.377   5.332
15627TIP3   OH246765   5.064   6.281   5.455
15627TIP3    H146766   5.000   6.243   5.519
15627TIP3    H246767   5.133   6.319   5.514
15628TIP3   OH246768   5.117   6.674   5.887
15628TIP3    H146769   5.173   6.610   5.839
15628TIP3    H246770   5.113   6.749   5.825
15629TIP3   OH246771   4.949   6.976   6.083
15629TIP3    H146772   4.877   7.017   6.135
15629TIP3    H246773   4.899   6.928   6.013
15630TIP3   OH246774   4.998   6.186   5.104
15630TIP3    H146775   4.929   6.198   5.035
15630TIP3    H246776   4.978   6.263   5.161
15631TIP3   OH246777   4.866   5.852   5.058
15631TIP3    H146778   4.838   5.930   5.010
15631TIP3    H246779   4.844   5.781   4.996
15632TIP3   OH246780   4.876   6.141   5.605
15632TIP3    H146781   4.893   6.045   5.607
15632TIP3    H246782   4.862   6.160   5.701
15633TIP3   OH246783   3.506   6.203   6.353
15633TIP3    H146784   3.504   6.182   6.258
15633TIP3    H246785   3.603   6.211   6.368
15634TIP3   OH246786   5.168   6.565   6.460
15634TIP3    H146787   5.240   6.499   6.451
15634TIP3    H246788   5.196   6.635   6.399
15635TIP3   OH246789   5.351   6.368   6.475
15635TIP3    H146790   5.277   6.318   6.517
15635TIP3    H246791   5.425   6.305   6.490
15636TIP3   OH246792   4.872   5.852   5.496
15636TIP3    H146793   4.919   5.767   5.512
15636TIP3    H246794   4.931   5.893   5.431
15637TIP3   OH246795   5.035   6.029   5.992
15637TIP3    H146796   5.121   6.054   5.952
15637TIP3    H246797   5.048   6.066   6.081
15638TIP3   OH246798   5.102   6.172   6.224
15638TIP3    H146799   5.027   6.209   6.274
15638TIP3    H246800   5.136   6.253   6.179
15639TIP3   OH246801   3.718   5.892   7.006
15639TIP3    H146802   3.815   5.894   7.018
15639TIP3    H246803   3.696   5.811   7.057
15640TIP3   OH246804   5.555   5.766   6.782
15640TIP3    H146805   5.615   5.699   6.742
15640TIP3    H246806   5.528   5.819   6.704
15641TIP3   OH246807   4.978   5.599   5.535
15641TIP3    H146808   5.039   5.597   5.613
15641TIP3    H246809   4.922   5.524   5.558
15642TIP3   OH246810   3.682   5.592   6.357
15642TIP3    H146811   3.746   5.518   6.367
15642TIP3    H246812   3.744   5.668   6.349
15643TIP3   OH246813   3.480   5.863   6.428
15643TIP3    H146814   3.533   5.861   6.345
15643TIP3    H246815   3.500   5.952   6.459
15644TIP3   OH246816   5.427   5.904   6.585
15644TIP3    H146817   5.341   5.944   6.609
15644TIP3    H246818   5.397   5.830   6.529
15645TIP3   OH246819   5.057   5.547   5.180
15645TIP3    H146820   5.092   5.480   5.119
15645TIP3    H246821   5.122   5.619   5.170
15646TIP3   OH246822   3.469   5.372   5.930
15646TIP3    H146823   3.375   5.368   5.954
15646TIP3    H246824   3.467   5.430   5.851
15647TIP3   OH246825   4.627   7.072   5.435
15647TIP3    H146826   4.682   7.062   5.354
15647TIP3    H246827   4.678   7.138   5.485
15648TIP3   OH246828   3.689   5.444   6.743
15648TIP3    H146829   3.640   5.447   6.826
15648TIP3    H246830   3.623   5.484   6.682
15649TIP3   OH246831   3.718   6.877   6.850
15649TIP3    H146832   3.633   6.847   6.814
15649TIP3    H246833   3.716   6.848   6.941
15650TIP3   OH246834   3.888   6.887   6.342
15650TIP3    H146835   3.868   6.977   6.311
15650TIP3    H246836   3.978   6.899   6.377
15651TIP3   OH246837   4.353   7.212   6.515
15651TIP3    H146838   4.373   7.133   6.567
15651TIP3    H246839   4.431   7.221   6.457
15652TIP3   OH246840   4.551   7.308   6.350
15652TIP3    H146841   4.628   7.256   6.321
15652TIP3    H246842   4.592   7.366   6.417
15653TIP3   OH246843   5.328   5.665   6.467
15653TIP3    H146844   5.237   5.657   6.435
15653TIP3    H246845   5.360   5.573   6.455
15654TIP3   OH246846   3.582   7.168   6.386
15654TIP3    H146847   3.492   7.204   6.369
15654TIP3    H246848   3.593   7.191   6.478
15655TIP3   OH246849   3.824   7.153   6.252
15655TIP3    H146850   3.736   7.161   6.296
15655TIP3    H246851   3.802   7.180   6.161
15656TIP3   OH246852   4.256   7.183   6.039
15656TIP3    H146853   4.176   7.195   5.984
15656TIP3    H246854   4.261   7.268   6.086
15657TIP3   OH246855   4.515   7.106   6.096
15657TIP3    H146856   4.421   7.126   6.079
15657TIP3    H246857   4.556   7.188   6.063
15658TIP3   OH246858   4.727   7.306   6.014
15658TIP3    H146859   4.709   7.389   5.966
15658TIP3    H246860   4.749   7.244   5.941
15659TIP3   OH246861   3.495   6.958   6.137
15659TIP3    H146862   3.523   6.933   6.229
15659TIP3    H246863   3.569   6.915   6.088
15660TIP3   OH246864   3.691   6.832   5.992
15660TIP3    H146865   3.704   6.747   6.042
15660TIP3    H246866   3.782   6.869   5.995
15661TIP3   OH246867   3.958   6.925   6.001
15661TIP3    H146868   3.985   6.832   5.994
15661TIP3    H246869   4.002   6.947   6.086
15662TIP3   OH246870   4.527   5.578   6.076
15662TIP3    H146871   4.487   5.511   6.133
15662TIP3    H246872   4.606   5.532   6.040
15663TIP3   OH246873   5.053   5.457   5.984
15663TIP3    H146874   5.091   5.514   5.913
15663TIP3    H246875   4.960   5.484   5.984
15664TIP3   OH246876   5.146   5.565   5.747
15664TIP3    H146877   5.220   5.510   5.714
15664TIP3    H246878   5.185   5.655   5.736
15665TIP3   OH246879   3.779   5.290   6.100
15665TIP3    H146880   3.687   5.258   6.100
15665TIP3    H246881   3.827   5.204   6.096
15666TIP3   OH246882   3.564   5.164   5.754
15666TIP3    H146883   3.600   5.222   5.685
15666TIP3    H246884   3.536   5.229   5.822
15667TIP3   OH246885   4.223   5.323   5.981
15667TIP3    H146886   4.282   5.375   5.923
15667TIP3    H246887   4.245   5.359   6.068
15668TIP3   OH246888   4.765   5.467   5.964
15668TIP3    H146889   4.777   5.421   5.880
15668TIP3    H246890   4.755   5.391   6.025
15669TIP3   OH246891   4.765   5.402   5.493
15669TIP3    H146892   4.699   5.446   5.552
15669TIP3    H246893   4.768   5.313   5.536
15670TIP3   OH246894   3.282   6.733   5.528
15670TIP3    H146895   3.192   6.707   5.499
15670TIP3    H246896   3.280   6.827   5.501
15671TIP3   OH246897   3.683   5.321   5.509
15671TIP3    H146898   3.735   5.257   5.456
15671TIP3    H246899   3.754   5.376   5.548
15672TIP3   OH246900   4.200   5.495   5.605
15672TIP3    H146901   4.255   5.451   5.671
15672TIP3    H246902   4.214   5.588   5.633
15673TIP3   OH246903   4.056   6.918   5.110
15673TIP3    H146904   4.144   6.942   5.074
15673TIP3    H246905   4.033   6.844   5.050
15674TIP3   OH246906   4.774   7.041   5.203
15674TIP3    H146907   4.766   6.943   5.192
15674TIP3    H246908   4.727   7.072   5.123
15675TIP3   OH246909   3.988   5.566   6.986
15675TIP3    H146910   3.953   5.500   7.048
15675TIP3    H246911   4.082   5.569   7.015
15676TIP3   OH246912   4.234   5.567   7.109
15676TIP3    H146913   4.321   5.545   7.072
15676TIP3    H246914   4.225   5.498   7.178
15677TIP3   OH246915   3.356   6.756   5.168
15677TIP3    H146916   3.354   6.794   5.257
15677TIP3    H246917   3.446   6.719   5.162
15678TIP3   OH246918   5.060   5.630   6.902
15678TIP3    H146919   5.085   5.596   6.991
15678TIP3    H246920   5.148   5.632   6.857
15679TIP3   OH246921   4.999   7.182   6.391
15679TIP3    H146922   4.921   7.151   6.342
15679TIP3    H246923   4.980   7.278   6.395
15680TIP3   OH246924   6.270   6.557   5.151
15680TIP3    H146925   6.242   6.649   5.135
15680TIP3    H246926   6.188   6.508   5.134
15681TIP3   OH246927   6.265   6.547   5.542
15681TIP3    H146928   6.279   6.527   5.636
15681TIP3    H246929   6.221   6.466   5.511
15682TIP3   OH246930   5.563   6.452   5.910
15682TIP3    H146931   5.595   6.383   5.971
15682TIP3    H246932   5.646   6.494   5.884
15683TIP3   OH246933   6.510   6.859   5.220
15683TIP3    H146934   6.495   6.789   5.285
15683TIP3    H246935   6.537   6.933   5.277
15684TIP3   OH246936   5.535   6.856   5.626
15684TIP3    H146937   5.527   6.759   5.629
15684TIP3    H246938   5.632   6.866   5.626
15685TIP3   OH246939   5.244   6.058   5.409
15685TIP3    H146940   5.204   6.145   5.430
15685TIP3    H246941   5.167   6.012   5.371
15686TIP3   OH246942   5.301   6.348   5.579
15686TIP3    H146943   5.351   6.273   5.620
15686TIP3    H246944   5.371   6.395   5.532
15687TIP3   OH246945   6.159   7.320   5.236
15687TIP3    H146946   6.207   7.248   5.190
15687TIP3    H246947   6.151   7.285   5.325
15688TIP3   OH246948   6.066   6.782   5.582
15688TIP3    H146949   6.103   6.701   5.545
15688TIP3    H246950   6.149   6.827   5.608
15689TIP3   OH246951   7.081   6.101   5.584
15689TIP3    H146952   7.107   6.184   5.630
15689TIP3    H246953   7.095   6.126   5.491
15690TIP3   OH246954   6.491   6.288   5.611
15690TIP3    H146955   6.522   6.200   5.639
15690TIP3    H246956   6.451   6.267   5.524
15691TIP3   OH246957   5.815   5.938   5.581
15691TIP3    H146958   5.797   6.015   5.523
15691TIP3    H246959   5.763   5.869   5.536
15692TIP3   OH246960   6.511   6.027   5.204
15692TIP3    H146961   6.581   6.013   5.272
15692TIP3    H246962   6.564   6.068   5.134
15693TIP3   OH246963   5.446   6.144   5.689
15693TIP3    H146964   5.528   6.125   5.739
15693TIP3    H246965   5.464   6.090   5.609
15694TIP3   OH246966   5.889   6.342   5.478
15694TIP3    H146967   5.983   6.319   5.493
15694TIP3    H246968   5.851   6.256   5.452
15695TIP3   OH246969   7.152   6.310   5.753
15695TIP3    H146970   7.067   6.356   5.734
15695TIP3    H246971   7.166   6.338   5.845
15696TIP3   OH246972   5.812   5.924   6.016
15696TIP3    H146973   5.754   5.963   5.949
15696TIP3    H246974   5.762   5.944   6.098
15697TIP3   OH246975   6.167   6.783   5.017
15697TIP3    H146976   6.110   6.754   4.945
15697TIP3    H246977   6.120   6.865   5.045
15698TIP3   OH246978   5.904   6.691   5.819
15698TIP3    H146979   5.850   6.764   5.855
15698TIP3    H246980   5.970   6.738   5.766
15699TIP3   OH246981   6.719   6.033   5.382
15699TIP3    H146982   6.688   6.002   5.469
15699TIP3    H246983   6.768   6.113   5.407
15700TIP3   OH246984   5.671   6.026   5.798
15700TIP3    H146985   5.726   6.104   5.825
15700TIP3    H246986   5.728   5.990   5.726
15701TIP3   OH246987   5.744   6.898   5.912
15701TIP3    H146988   5.719   6.985   5.875
15701TIP3    H246989   5.666   6.881   5.968
15702TIP3   OH246990   5.142   6.587   5.146
15702TIP3    H146991   5.099   6.622   5.066
15702TIP3    H246992   5.176   6.670   5.188
15703TIP3   OH246993   6.578   7.100   5.383
15703TIP3    H146994   6.490   7.089   5.426
15703TIP3    H246995   6.568   7.189   5.343
15704TIP3   OH246996   6.874   5.996   5.750
15704TIP3    H146997   6.785   6.029   5.727
15704TIP3    H246998   6.929   6.032   5.677
15705TIP3   OH246999   6.166   5.643   5.731
15705TIP3    H147000   6.152   5.548   5.751
15705TIP3    H247001   6.090   5.683   5.778
15706TIP3   OH247002   6.284   7.147   5.060
15706TIP3    H147003   6.335   7.065   5.042
15706TIP3    H247004   6.344   7.212   5.018
15707TIP3   OH247005   6.428   6.929   4.966
15707TIP3    H147006   6.364   6.858   4.948
15707TIP3    H247007   6.467   6.898   5.051
15708TIP3   OH247008   6.801   7.018   5.729
15708TIP3    H147009   6.794   6.938   5.672
15708TIP3    H247010   6.793   7.090   5.664
15709TIP3   OH247011   6.096   6.399   4.986
15709TIP3    H147012   6.016   6.454   4.969
15709TIP3    H247013   6.144   6.406   4.902
15710TIP3   OH247014   6.054   6.194   4.700
15710TIP3    H147015   6.118   6.242   4.755
15710TIP3    H247016   6.114   6.132   4.654
15711TIP3   OH247017   7.002   6.649   5.573
15711TIP3    H147018   6.919   6.700   5.583
15711TIP3    H247019   7.029   6.677   5.483
15712TIP3   OH247020   6.447   6.489   4.957
15712TIP3    H147021   6.391   6.514   5.034
15712TIP3    H247022   6.530   6.464   5.003
15713TIP3   OH247023   6.690   6.532   5.871
15713TIP3    H147024   6.681   6.617   5.918
15713TIP3    H247025   6.598   6.524   5.835
15714TIP3   OH247026   5.680   6.488   5.373
15714TIP3    H147027   5.643   6.426   5.307
15714TIP3    H247028   5.756   6.437   5.408
15715TIP3   OH247029   5.809   6.904   5.522
15715TIP3    H147030   5.789   6.856   5.440
15715TIP3    H247031   5.896   6.866   5.547
15716TIP3   OH247032   5.797   6.463   5.722
15716TIP3    H147033   5.848   6.434   5.644
15716TIP3    H247034   5.850   6.540   5.753
15717TIP3   OH247035   6.339   7.094   5.506
15717TIP3    H147036   6.329   7.172   5.563
15717TIP3    H247037   6.325   7.020   5.569
15718TIP3   OH247038   5.953   7.015   6.054
15718TIP3    H147039   5.894   7.077   6.102
15718TIP3    H247040   5.887   6.962   6.005
15719TIP3   OH247041   6.289   6.345   4.785
15719TIP3    H147042   6.346   6.405   4.838
15719TIP3    H247043   6.314   6.371   4.693
15720TIP3   OH247044   5.709   6.569   6.161
15720TIP3    H147045   5.712   6.658   6.202
15720TIP3    H247046   5.613   6.552   6.162
15721TIP3   OH247047   6.032   7.022   5.056
15721TIP3    H147048   6.107   7.080   5.078
15721TIP3    H247049   5.964   7.085   5.030
15722TIP3   OH247050   5.745   7.181   6.140
15722TIP3    H147051   5.709   7.180   6.049
15722TIP3    H247052   5.665   7.161   6.194
15723TIP3   OH247053   6.794   5.597   4.834
15723TIP3    H147054   6.714   5.616   4.888
15723TIP3    H247055   6.807   5.681   4.787
15724TIP3   OH247056   5.547   6.326   5.172
15724TIP3    H147057   5.476   6.370   5.122
15724TIP3    H247058   5.505   6.244   5.200
15725TIP3   OH247059   6.599   6.955   4.376
15725TIP3    H147060   6.608   7.052   4.369
15725TIP3    H247061   6.692   6.926   4.366
15726TIP3   OH247062   5.323   6.715   6.088
15726TIP3    H147063   5.260   6.690   6.019
15726TIP3    H247064   5.363   6.628   6.114
15727TIP3   OH247065   5.180   6.905   5.722
15727TIP3    H147066   5.276   6.899   5.711
15727TIP3    H247067   5.170   6.984   5.776
15728TIP3   OH247068   6.145   7.147   5.908
15728TIP3    H147069   6.147   7.239   5.943
15728TIP3    H247070   6.077   7.106   5.966
15729TIP3   OH247071   5.911   7.280   4.858
15729TIP3    H147072   5.853   7.259   4.784
15729TIP3    H247073   5.878   7.367   4.888
15730TIP3   OH247074   5.341   7.125   5.248
15730TIP3    H147075   5.394   7.115   5.330
15730TIP3    H247076   5.291   7.041   5.250
15731TIP3   OH247077   6.110   7.174   4.502
15731TIP3    H147078   6.170   7.103   4.470
15731TIP3    H247079   6.142   7.185   4.595
15732TIP3   OH247080   6.162   7.221   4.771
15732TIP3    H147081   6.073   7.233   4.811
15732TIP3    H247082   6.209   7.178   4.844
15733TIP3   OH247083   6.932   6.488   6.051
15733TIP3    H147084   6.850   6.504   6.002
15733TIP3    H247085   6.943   6.392   6.041
15734TIP3   OH247086   5.527   6.898   6.077
15734TIP3    H147087   5.579   6.881   6.158
15734TIP3    H247088   5.454   6.833   6.084
15735TIP3   OH247089   5.928   5.719   5.861
15735TIP3    H147090   5.838   5.692   5.836
15735TIP3    H247091   5.907   5.803   5.907
15736TIP3   OH247092   6.459   5.827   6.057
15736TIP3    H147093   6.528   5.808   6.124
15736TIP3    H247094   6.375   5.814   6.106
15737TIP3   OH247095   6.711   6.273   5.978
15737TIP3    H147096   6.655   6.260   6.058
15737TIP3    H247097   6.674   6.354   5.939
15738TIP3   OH247098   6.359   6.392   4.527
15738TIP3    H147099   6.330   6.367   4.438
15738TIP3    H247100   6.441   6.442   4.507
15739TIP3   OH247101   6.076   5.769   4.833
15739TIP3    H147102   6.044   5.768   4.926
15739TIP3    H247103   6.035   5.685   4.801
15740TIP3   OH247104   5.828   6.222   5.873
15740TIP3    H147105   5.806   6.262   5.958
15740TIP3    H247106   5.864   6.298   5.823
15741TIP3   OH247107   5.744   6.120   5.393
15741TIP3    H147108   5.652   6.095   5.412
15741TIP3    H247109   5.756   6.078   5.305
15742TIP3   OH247110   6.234   6.203   5.120
15742TIP3    H147111   6.181   6.276   5.080
15742TIP3    H247112   6.290   6.175   5.045
15743TIP3   OH247113   6.410   6.506   6.232
15743TIP3    H147114   6.386   6.417   6.264
15743TIP3    H247115   6.507   6.500   6.232
15744TIP3   OH247116   6.396   6.233   5.359
15744TIP3    H147117   6.328   6.263   5.295
15744TIP3    H247118   6.425   6.152   5.314
15745TIP3   OH247119   5.671   6.271   6.100
15745TIP3    H147120   5.707   6.333   6.165
15745TIP3    H247121   5.671   6.186   6.149
15746TIP3   OH247122   5.724   5.737   4.797
15746TIP3    H147123   5.721   5.739   4.895
15746TIP3    H247124   5.651   5.798   4.775
15747TIP3   OH247125   5.275   5.785   5.663
15747TIP3    H147126   5.342   5.820   5.726
15747TIP3    H247127   5.329   5.755   5.589
15748TIP3   OH247128   5.241   5.768   5.186
15748TIP3    H147129   5.287   5.807   5.108
15748TIP3    H247130   5.184   5.843   5.210
15749TIP3   OH247131   6.429   6.480   5.794
15749TIP3    H147132   6.450   6.409   5.730
15749TIP3    H247133   6.347   6.443   5.835
15750TIP3   OH247134   6.069   5.937   5.451
15750TIP3    H147135   5.989   5.940   5.508
15750TIP3    H247136   6.139   5.952   5.517
15751TIP3   OH247137   5.506   6.000   5.461
15751TIP3    H147138   5.412   6.005   5.434
15751TIP3    H247139   5.531   5.908   5.439
15752TIP3   OH247140   5.774   5.991   5.152
15752TIP3    H147141   5.869   6.011   5.135
15752TIP3    H247142   5.730   6.018   5.068
15753TIP3   OH247143   6.568   6.014   5.637
15753TIP3    H147144   6.550   6.025   5.734
15753TIP3    H247145   6.492   5.960   5.612
15754TIP3   OH247146   5.618   6.026   4.927
15754TIP3    H147147   5.545   5.987   4.876
15754TIP3    H247148   5.670   6.067   4.856
15755TIP3   OH247149   6.729   7.720   5.877
15755TIP3    H147150   6.737   7.730   5.781
15755TIP3    H247151   6.815   7.755   5.909
15756TIP3   OH247152   5.690   6.819   6.296
15756TIP3    H147153   5.771   6.848   6.343
15756TIP3    H247154   5.626   6.819   6.371
15757TIP3   OH247155   6.149   6.276   5.537
15757TIP3    H147156   6.233   6.232   5.519
15757TIP3    H247157   6.150   6.279   5.636
15758TIP3   OH247158   5.670   5.759   5.429
15758TIP3    H147159   5.639   5.680   5.479
15758TIP3    H247160   5.734   5.721   5.367
15759TIP3   OH247161   5.875   6.554   4.938
15759TIP3    H147162   5.797   6.497   4.922
15759TIP3    H247163   5.853   6.592   5.027
15760TIP3   OH247164   6.770   6.794   5.565
15760TIP3    H147165   6.791   6.845   5.484
15760TIP3    H247166   6.683   6.754   5.543
15761TIP3   OH247167   6.319   5.881   4.773
15761TIP3    H147168   6.228   5.859   4.802
15761TIP3    H247169   6.336   5.968   4.817
15762TIP3   OH247170   6.275   6.887   5.931
15762TIP3    H147171   6.293   6.854   6.020
15762TIP3    H247172   6.228   6.971   5.947
15763TIP3   OH247173   6.397   6.113   4.898
15763TIP3    H147174   6.492   6.122   4.920
15763TIP3    H247175   6.377   6.197   4.852
15764TIP3   OH247176   5.554   6.570   5.609
15764TIP3    H147177   5.597   6.551   5.524
15764TIP3    H247178   5.616   6.526   5.670
15765TIP3   OH247179   6.007   6.708   4.752
15765TIP3    H147180   5.964   6.796   4.760
15765TIP3    H247181   5.953   6.654   4.814
15766TIP3   OH247182   5.438   6.506   6.228
15766TIP3    H147183   5.464   6.492   6.321
15766TIP3    H247184   5.375   6.434   6.214
15767TIP3   OH247185   6.159   6.615   6.248
15767TIP3    H147186   6.102   6.548   6.205
15767TIP3    H247187   6.249   6.582   6.224
15768TIP3   OH247188   6.425   7.149   5.816
15768TIP3    H147189   6.331   7.138   5.839
15768TIP3    H247190   6.457   7.190   5.900
15769TIP3   OH247191   6.838   6.208   4.737
15769TIP3    H147192   6.775   6.165   4.675
15769TIP3    H247193   6.834   6.298   4.699
15770TIP3   OH247194   7.059   7.038   5.831
15770TIP3    H147195   6.966   7.067   5.824
15770TIP3    H247196   7.084   7.036   5.736
15771TIP3   OH247197   6.538   7.029   4.647
15771TIP3    H147198   6.510   6.966   4.716
15771TIP3    H247199   6.547   6.973   4.568
15772TIP3   OH247200   6.532   6.660   5.478
15772TIP3    H147201   6.441   6.631   5.501
15772TIP3    H247202   6.567   6.577   5.438
15773TIP3   OH247203   5.661   6.880   5.236
15773TIP3    H147204   5.660   6.968   5.194
15773TIP3    H247205   5.567   6.862   5.243
15774TIP3   OH247206   5.223   6.190   4.940
15774TIP3    H147207   5.270   6.274   4.959
15774TIP3    H247208   5.148   6.196   5.003
15775TIP3   OH247209   5.799   6.650   5.177
15775TIP3    H147210   5.763   6.740   5.197
15775TIP3    H247211   5.767   6.600   5.254
15776TIP3   OH247212   5.931   7.228   5.708
15776TIP3    H147213   5.976   7.300   5.659
15776TIP3    H247214   6.005   7.192   5.759
15777TIP3   OH247215   5.600   7.126   5.122
15777TIP3    H147216   5.504   7.122   5.132
15777TIP3    H247217   5.614   7.219   5.096
15778TIP3   OH247218   6.320   6.862   5.664
15778TIP3    H147219   6.307   6.864   5.762
15778TIP3    H247220   6.397   6.805   5.657
15779TIP3   OH247221   6.293   6.759   4.546
15779TIP3    H147222   6.347   6.732   4.624
15779TIP3    H247223   6.205   6.731   4.577
15780TIP3   OH247224   6.566   7.394   5.717
15780TIP3    H147225   6.491   7.331   5.718
15780TIP3    H247226   6.543   7.454   5.644
15781TIP3   OH247227   6.633   7.232   4.368
15781TIP3    H147228   6.674   7.309   4.324
15781TIP3    H247229   6.552   7.275   4.402
15782TIP3   OH247230   5.655   6.007   6.235
15782TIP3    H147231   5.558   6.010   6.249
15782TIP3    H247232   5.683   5.948   6.306
15783TIP3   OH247233   6.455   6.681   4.753
15783TIP3    H147234   6.442   6.624   4.832
15783TIP3    H247235   6.552   6.684   4.750
15784TIP3   OH247236   5.369   7.091   5.865
15784TIP3    H147237   5.422   7.016   5.897
15784TIP3    H247238   5.397   7.160   5.927
15785TIP3   OH247239   5.672   6.729   4.537
15785TIP3    H147240   5.678   6.633   4.523
15785TIP3    H247241   5.659   6.732   4.635
15786TIP3   OH247242   5.641   6.746   4.808
15786TIP3    H147243   5.664   6.724   4.899
15786TIP3    H247244   5.549   6.780   4.817
15787TIP3   OH247245   5.339   6.434   5.022
15787TIP3    H147246   5.274   6.485   5.075
15787TIP3    H247247   5.378   6.504   4.967
15788TIP3   OH247248   6.515   6.048   5.897
15788TIP3    H147249   6.530   6.123   5.957
15788TIP3    H247250   6.483   5.979   5.960
15789TIP3   OH247251   6.372   5.823   5.079
15789TIP3    H147252   6.359   5.857   4.989
15789TIP3    H247253   6.413   5.901   5.123
15790TIP3   OH247254   5.881   6.948   4.763
15790TIP3    H147255   5.797   6.946   4.811
15790TIP3    H247256   5.874   7.030   4.712
15791TIP3   OH247257   6.055   6.003   5.183
15791TIP3    H147258   6.120   6.075   5.167
15791TIP3    H247259   6.061   5.993   5.280
15792TIP3   OH247260   6.202   5.727   5.284
15792TIP3    H147261   6.197   5.799   5.349
15792TIP3    H247262   6.263   5.765   5.217
15793TIP3   OH247263   5.715   5.730   5.073
15793TIP3    H147264   5.715   5.820   5.112
15793TIP3    H247265   5.811   5.709   5.084
15794TIP3   OH247266   6.972   6.216   5.971
15794TIP3    H147267   6.874   6.221   5.983
15794TIP3    H247268   6.975   6.181   5.881
15795TIP3   OH247269   6.622   6.414   5.356
15795TIP3    H147270   6.543   6.360   5.376
15795TIP3    H247271   6.691   6.368   5.408
15796TIP3   OH247272   5.276   5.921   4.963
15796TIP3    H147273   5.281   6.018   4.959
15796TIP3    H247274   5.194   5.903   4.916
15797TIP3   OH247275   6.586   7.374   5.307
15797TIP3    H147276   6.544   7.421   5.232
15797TIP3    H247277   6.680   7.392   5.287
15798TIP3   OH247278   5.662   5.639   5.835
15798TIP3    H147279   5.632   5.604   5.749
15798TIP3    H247280   5.653   5.561   5.894
15799TIP3   OH247281   5.214   6.853   5.217
15799TIP3    H147282   5.132   6.894   5.247
15799TIP3    H247283   5.213   6.883   5.123
15800TIP3   OH247284   5.361   7.403   6.287
15800TIP3    H147285   5.447   7.403   6.334
15800TIP3    H247286   5.342   7.307   6.286
15801TIP3   OH247287   5.837   7.366   6.330
15801TIP3    H147288   5.932   7.354   6.341
15801TIP3    H247289   5.819   7.303   6.258
15802TIP3   OH247290   5.820   6.938   4.454
15802TIP3    H147291   5.756   6.873   4.493
15802TIP3    H247292   5.896   6.879   4.446
15803TIP3   OH247293   6.486   7.261   6.054
15803TIP3    H147294   6.469   7.204   6.131
15803TIP3    H247295   6.557   7.320   6.086
15804TIP3   OH247296   6.260   6.978   4.374
15804TIP3    H147297   6.293   6.912   4.438
15804TIP3    H247298   6.328   6.976   4.305
15805TIP3   OH247299   5.490   6.806   6.489
15805TIP3    H147300   5.506   6.710   6.493
15805TIP3    H247301   5.402   6.809   6.444
15806TIP3   OH247302   5.469   6.429   4.673
15806TIP3    H147303   5.520   6.425   4.756
15806TIP3    H247304   5.539   6.453   4.610
15807TIP3   OH247305   6.096   6.890   6.262
15807TIP3    H147306   6.057   6.909   6.175
15807TIP3    H247307   6.126   6.797   6.253
15808TIP3   OH247308   5.983   6.658   4.484
15808TIP3    H147309   5.979   6.672   4.581
15808TIP3    H247310   5.976   6.560   4.480
15809TIP3   OH247311   6.591   6.899   5.868
15809TIP3    H147312   6.664   6.949   5.826
15809TIP3    H247313   6.517   6.960   5.856
15810TIP3   OH247314   5.607   6.539   6.471
15810TIP3    H147315   5.687   6.491   6.444
15810TIP3    H247316   5.635   6.573   6.559
15811TIP3   OH247317   5.671   6.364   4.903
15811TIP3    H147318   5.648   6.327   4.990
15811TIP3    H247319   5.707   6.286   4.856
15812TIP3   OH247320   5.955   6.433   6.125
15812TIP3    H147321   5.876   6.491   6.125
15812TIP3    H247322   5.987   6.438   6.033
15813TIP3   OH247323   5.776   6.153   4.744
15813TIP3    H147324   5.749   6.161   4.650
15813TIP3    H247325   5.873   6.161   4.737
15814TIP3   OH247326   6.463   6.830   6.266
15814TIP3    H147327   6.538   6.802   6.213
15814TIP3    H247328   6.450   6.754   6.325
15815TIP3   OH247329   6.597   6.487   4.405
15815TIP3    H147330   6.574   6.440   4.323
15815TIP3    H247331   6.563   6.577   4.383
15816TIP3   OH247332   6.066   6.215   6.257
15816TIP3    H147333   6.073   6.138   6.197
15816TIP3    H247334   6.033   6.284   6.195
15817TIP3   OH247335   6.073   6.009   6.055
15817TIP3    H147336   6.096   6.074   5.986
15817TIP3    H247337   5.980   5.989   6.034
15818TIP3   OH247338   6.685   6.504   6.325
15818TIP3    H147339   6.732   6.420   6.319
15818TIP3    H247340   6.748   6.565   6.284
15819TIP3   OH247341   6.717   6.756   6.060
15819TIP3    H147342   6.660   6.809   5.999
15819TIP3    H247343   6.805   6.774   6.019
15820TIP3   OH247344   5.946   6.323   6.489
15820TIP3    H147345   5.877   6.255   6.503
15820TIP3    H247346   5.980   6.300   6.400
15821TIP3   OH247347   6.197   5.767   6.134
15821TIP3    H147348   6.152   5.849   6.105
15821TIP3    H247349   6.127   5.700   6.122
15822TIP3   OH247350   6.331   6.264   6.342
15822TIP3    H147351   6.316   6.257   6.438
15822TIP3    H247352   6.242   6.242   6.309
15823TIP3   OH247353   6.572   6.218   6.202
15823TIP3    H147354   6.490   6.222   6.256
15823TIP3    H247355   6.638   6.186   6.266
15824TIP3   OH247356   6.809   6.160   6.359
15824TIP3    H147357   6.813   6.064   6.376
15824TIP3    H247358   6.798   6.197   6.449
15825TIP3   OH247359   5.783   6.105   6.542
15825TIP3    H147360   5.791   6.014   6.507
15825TIP3    H247361   5.820   6.093   6.632
15826TIP3   OH247362   6.297   5.772   6.390
15826TIP3    H147363   6.363   5.701   6.382
15826TIP3    H247364   6.255   5.769   6.302
15827TIP3   OH247365   6.361   5.987   6.551
15827TIP3    H147366   6.340   5.917   6.485
15827TIP3    H247367   6.285   6.048   6.542
15828TIP3   OH247368   5.591   7.263   4.654
15828TIP3    H147369   5.678   7.222   4.637
15828TIP3    H247370   5.553   7.263   4.565
15829TIP3   OH247371   5.065   6.603   4.862
15829TIP3    H147372   5.155   6.638   4.847
15829TIP3    H247373   5.068   6.514   4.821
15830TIP3   OH247374   4.979   7.215   5.278
15830TIP3    H147375   4.914   7.151   5.242
15830TIP3    H247376   5.024   7.158   5.344
15831TIP3   OH247377   5.110   7.067   5.468
15831TIP3    H147378   5.101   6.989   5.525
15831TIP3    H247379   5.165   7.124   5.524
15832TIP3   OH247380   6.839   7.468   5.263
15832TIP3    H147381   6.864   7.486   5.356
15832TIP3    H247382   6.913   7.507   5.213
15833TIP3   OH247383   6.872   7.484   5.541
15833TIP3    H147384   6.825   7.397   5.540
15833TIP3    H247385   6.927   7.470   5.620
15834TIP3   OH247386   6.918   7.157   6.126
15834TIP3    H147387   6.841   7.170   6.186
15834TIP3    H247388   6.959   7.245   6.126
15835TIP3   OH247389   6.736   6.672   4.740
15835TIP3    H147390   6.805   6.736   4.715
15835TIP3    H247391   6.775   6.632   4.821
15836TIP3   OH247392   6.860   6.539   4.944
15836TIP3    H147393   6.794   6.497   5.004
15836TIP3    H247394   6.925   6.577   5.007
15837TIP3   OH247395   6.914   6.932   5.374
15837TIP3    H147396   6.970   6.867   5.328
15837TIP3    H247397   6.900   7.000   5.306
15838TIP3   OH247398   6.746   7.238   5.564
15838TIP3    H147399   6.679   7.272   5.627
15838TIP3    H247400   6.691   7.186   5.501
15839TIP3   OH247401   6.798   6.447   4.590
15839TIP3    H147402   6.725   6.452   4.524
15839TIP3    H247403   6.772   6.522   4.647
15840TIP3   OH247404   6.670   6.119   4.541
15840TIP3    H147405   6.623   6.156   4.466
15840TIP3    H247406   6.646   6.024   4.535
15841TIP3   OH247407   6.675   6.396   5.089
15841TIP3    H147408   6.682   6.299   5.087
15841TIP3    H247409   6.660   6.412   5.185
15842TIP3   OH247410   5.301   6.470   5.837
15842TIP3    H147411   5.302   6.441   5.744
15842TIP3    H247412   5.398   6.473   5.856
15843TIP3   OH247413   6.959   6.814   5.950
15843TIP3    H147414   7.033   6.751   5.939
15843TIP3    H247415   6.989   6.890   5.896
15844TIP3   OH247416   7.148   6.623   5.957
15844TIP3    H147417   7.074   6.574   6.000
15844TIP3    H247418   7.222   6.560   5.975
15845TIP3   OH247419   6.615   5.852   4.528
15845TIP3    H147420   6.695   5.827   4.579
15845TIP3    H247421   6.547   5.793   4.563
15846TIP3   OH247422   6.669   6.111   4.984
15846TIP3    H147423   6.710   6.023   5.000
15846TIP3    H247424   6.730   6.145   4.916
15847TIP3   OH247425   6.833   6.282   5.479
15847TIP3    H147426   6.919   6.310   5.441
15847TIP3    H247427   6.842   6.321   5.569
15848TIP3   OH247428   6.902   6.428   5.710
15848TIP3    H147429   6.826   6.461   5.763
15848TIP3    H247430   6.933   6.511   5.668
15849TIP3   OH247431   5.516   6.154   6.507
15849TIP3    H147432   5.614   6.150   6.512
15849TIP3    H247433   5.493   6.069   6.550
15850TIP3   OH247434   7.357   6.023   6.269
15850TIP3    H147435   7.413   5.957   6.224
15850TIP3    H247436   7.323   6.076   6.193
15851TIP3   OH247437   6.780   5.862   5.021
15851TIP3    H147438   6.828   5.848   5.106
15851TIP3    H247439   6.719   5.786   5.022
15852TIP3   OH247440   5.471   5.843   5.845
15852TIP3    H147441   5.536   5.770   5.855
15852TIP3    H247442   5.533   5.918   5.834
15853TIP3   OH247443   5.279   6.122   5.913
15853TIP3    H147444   5.332   6.121   5.830
15853TIP3    H247445   5.309   6.204   5.953
15854TIP3   OH247446   7.223   6.159   6.077
15854TIP3    H147447   7.138   6.203   6.097
15854TIP3    H247448   7.191   6.090   6.016
15855TIP3   OH247449   6.860   5.802   4.651
15855TIP3    H147450   6.905   5.729   4.603
15855TIP3    H247451   6.929   5.871   4.651
15856TIP3   OH247452   5.266   5.621   5.411
15856TIP3    H147453   5.176   5.628   5.444
15856TIP3    H247454   5.264   5.682   5.334
15857TIP3   OH247455   6.425   7.331   4.920
15857TIP3    H147456   6.480   7.319   4.840
15857TIP3    H247457   6.477   7.394   4.972
15858TIP3   OH247458   5.486   5.705   6.229
15858TIP3    H147459   5.437   5.700   6.313
15858TIP3    H247460   5.418   5.743   6.170
15859TIP3   OH247461   5.524   7.136   6.306
15859TIP3    H147462   5.432   7.106   6.292
15859TIP3    H247463   5.538   7.115   6.400
15860TIP3   OH247464   5.702   7.167   5.854
15860TIP3    H147465   5.657   7.245   5.815
15860TIP3    H247466   5.789   7.178   5.811
15861TIP3   OH247467   6.144   7.415   5.984
15861TIP3    H147468   6.183   7.407   6.075
15861TIP3    H247469   6.215   7.464   5.939
15862TIP3   OH247470   6.332   7.566   5.846
15862TIP3    H147471   6.403   7.506   5.819
15862TIP3    H247472   6.379   7.620   5.914
15863TIP3   OH247473   7.123   5.924   5.951
15863TIP3    H147474   7.032   5.923   5.917
15863TIP3    H247475   7.150   5.830   5.939
15864TIP3   OH247476   5.380   7.425   5.876
15864TIP3    H147477   5.289   7.458   5.857
15864TIP3    H247478   5.392   7.458   5.966
15865TIP3   OH247479   5.617   7.404   5.737
15865TIP3    H147480   5.530   7.415   5.782
15865TIP3    H247481   5.597   7.433   5.647
15866TIP3   OH247482   6.043   7.432   5.532
15866TIP3    H147483   5.970   7.451   5.471
15866TIP3    H247484   6.053   7.518   5.578
15867TIP3   OH247485   6.310   7.370   5.579
15867TIP3    H147486   6.215   7.384   5.563
15867TIP3    H247487   6.349   7.453   5.549
15868TIP3   OH247488   6.524   7.567   5.501
15868TIP3    H147489   6.506   7.647   5.449
15868TIP3    H247490   6.545   7.501   5.431
15869TIP3   OH247491   5.292   7.216   5.624
15869TIP3    H147492   5.319   7.190   5.715
15869TIP3    H247493   5.364   7.172   5.573
15870TIP3   OH247494   5.486   7.088   5.480
15870TIP3    H147495   5.501   7.003   5.528
15870TIP3    H247496   5.577   7.123   5.474
15871TIP3   OH247497   5.755   7.185   5.485
15871TIP3    H147498   5.783   7.092   5.472
15871TIP3    H247499   5.801   7.202   5.569
15872TIP3   OH247500   6.327   5.836   5.563
15872TIP3    H147501   6.284   5.770   5.620
15872TIP3    H247502   6.404   5.788   5.528
15873TIP3   OH247503   6.850   5.714   5.472
15873TIP3    H147504   6.886   5.771   5.401
15873TIP3    H247505   6.756   5.740   5.473
15874TIP3   OH247506   6.945   5.821   5.238
15874TIP3    H147507   7.019   5.769   5.200
15874TIP3    H247508   6.978   5.913   5.225
15875TIP3   OH247509   5.574   5.545   5.585
15875TIP3    H147510   5.483   5.510   5.589
15875TIP3    H247511   5.625   5.461   5.583
15876TIP3   OH247512   5.351   5.421   5.239
15876TIP3    H147513   5.384   5.479   5.169
15876TIP3    H247514   5.329   5.487   5.309
15877TIP3   OH247515   6.018   5.581   5.468
15877TIP3    H147516   6.076   5.632   5.409
15877TIP3    H247517   6.041   5.618   5.555
15878TIP3   OH247518   6.565   5.725   5.451
15878TIP3    H147519   6.566   5.687   5.363
15878TIP3    H247520   6.552   5.644   5.507
15879TIP3   OH247521   6.592   5.652   5.015
15879TIP3    H147522   6.507   5.695   5.034
15879TIP3    H247523   6.580   5.566   5.061
15880TIP3   OH247524   5.056   6.987   5.038
15880TIP3    H147525   4.975   6.959   4.992
15880TIP3    H247526   5.065   7.077   5.006
15881TIP3   OH247527   5.486   5.582   4.991
15881TIP3    H147528   5.552   5.513   4.979
15881TIP3    H247529   5.541   5.651   5.034
15882TIP3   OH247530   5.994   5.752   5.097
15882TIP3    H147531   6.053   5.707   5.159
15882TIP3    H247532   6.011   5.845   5.122
15883TIP3   OH247533   5.846   7.172   4.591
15883TIP3    H147534   5.937   7.195   4.561
15883TIP3    H247535   5.829   7.095   4.532
15884TIP3   OH247536   6.574   7.296   4.688
15884TIP3    H147537   6.565   7.198   4.678
15884TIP3    H247538   6.525   7.327   4.610
15885TIP3   OH247539   5.783   5.826   6.477
15885TIP3    H147540   5.749   5.755   6.535
15885TIP3    H247541   5.877   5.828   6.505
15886TIP3   OH247542   6.031   5.827   6.597
15886TIP3    H147543   6.117   5.801   6.559
15886TIP3    H247544   6.018   5.757   6.664
15887TIP3   OH247545   5.156   7.026   4.666
15887TIP3    H147546   5.137   7.039   4.760
15887TIP3    H247547   5.233   6.965   4.680
15888TIP3   OH247548   6.858   5.886   6.385
15888TIP3    H147549   6.877   5.856   6.477
15888TIP3    H247550   6.946   5.882   6.344
15889TIP3   OH247551   6.806   7.455   5.856
15889TIP3    H147552   6.726   7.407   5.827
15889TIP3    H247553   6.768   7.540   5.882
15890TIP3   OH247554   8.062   6.811   4.642
15890TIP3    H147555   8.032   6.901   4.620
15890TIP3    H247556   7.987   6.759   4.609
15891TIP3   OH247557   8.064   6.813   5.024
15891TIP3    H147558   8.094   6.783   5.111
15891TIP3    H247559   8.020   6.734   4.989
15892TIP3   OH247560   7.362   6.705   5.384
15892TIP3    H147561   7.389   6.638   5.450
15892TIP3    H247562   7.432   6.771   5.397
15893TIP3   OH247563   8.311   7.100   4.716
15893TIP3    H147564   8.293   7.032   4.782
15893TIP3    H247565   8.337   7.176   4.771
15894TIP3   OH247566   7.331   7.117   5.109
15894TIP3    H147567   7.322   7.019   5.113
15894TIP3    H247568   7.427   7.126   5.116
15895TIP3   OH247569   7.042   6.322   4.896
15895TIP3    H147570   6.993   6.404   4.915
15895TIP3    H247571   6.970   6.265   4.863
15896TIP3   OH247572   7.099   6.606   5.070
15896TIP3    H147573   7.146   6.529   5.109
15896TIP3    H247574   7.162   6.637   5.004
15897TIP3   OH247575   7.967   7.577   4.725
15897TIP3    H147576   8.008   7.509   4.667
15897TIP3    H247577   7.942   7.525   4.803
15898TIP3   OH247578   7.861   7.039   5.072
15898TIP3    H147579   7.899   6.962   5.027
15898TIP3    H247580   7.944   7.084   5.099
15899TIP3   OH247581   8.873   6.357   5.071
15899TIP3    H147582   8.903   6.439   5.114
15899TIP3    H247583   8.897   6.374   4.978
15900TIP3   OH247584   8.275   6.539   5.104
15900TIP3    H147585   8.318   6.453   5.122
15900TIP3    H247586   8.242   6.524   5.013
15901TIP3   OH247587   7.613   6.198   5.069
15901TIP3    H147588   7.591   6.271   5.007
15901TIP3    H247589   7.563   6.125   5.027
15902TIP3   OH247590   8.305   6.290   4.691
15902TIP3    H147591   8.376   6.275   4.757
15902TIP3    H247592   8.358   6.324   4.617
15903TIP3   OH247593   7.245   6.401   5.176
15903TIP3    H147594   7.327   6.381   5.226
15903TIP3    H247595   7.259   6.344   5.098
15904TIP3   OH247596   7.687   6.598   4.967
15904TIP3    H147597   7.780   6.572   4.982
15904TIP3    H247598   7.647   6.514   4.937
15905TIP3   OH247599   8.947   6.565   5.241
15905TIP3    H147600   8.863   6.612   5.224
15905TIP3    H247601   8.968   6.597   5.331
15906TIP3   OH247602   7.609   6.182   5.505
15906TIP3    H147603   7.548   6.219   5.438
15906TIP3    H247604   7.556   6.198   5.587
15907TIP3   OH247605   7.951   7.030   4.515
15907TIP3    H147606   7.920   7.015   4.424
15907TIP3    H247607   7.906   7.113   4.537
15908TIP3   OH247608   7.717   6.955   5.302
15908TIP3    H147609   7.653   7.019   5.341
15908TIP3    H247610   7.758   7.008   5.232
15909TIP3   OH247611   8.512   6.295   4.865
15909TIP3    H147612   8.514   6.238   4.943
15909TIP3    H247613   8.568   6.370   4.893
15910TIP3   OH247614   7.479   6.297   5.289
15910TIP3    H147615   7.541   6.370   5.312
15910TIP3    H247616   7.529   6.256   5.214
15911TIP3   OH247617   7.544   7.148   5.394
15911TIP3    H147618   7.518   7.237   5.362
15911TIP3    H247619   7.468   7.131   5.455
15912TIP3   OH247620   6.940   6.842   4.634
15912TIP3    H147621   6.893   6.873   4.554
15912TIP3    H247622   6.971   6.926   4.673
15913TIP3   OH247623   8.374   7.356   4.879
15913TIP3    H147624   8.292   7.334   4.929
15913TIP3    H247625   8.337   7.417   4.815
15914TIP3   OH247626   8.665   6.259   5.237
15914TIP3    H147627   8.579   6.284   5.201
15914TIP3    H247628   8.727   6.289   5.166
15915TIP3   OH247629   7.964   5.900   5.219
15915TIP3    H147630   7.949   5.805   5.237
15915TIP3    H247631   7.886   5.938   5.266
15916TIP3   OH247632   8.093   7.419   4.538
15916TIP3    H147633   8.141   7.334   4.528
15916TIP3    H247634   8.098   7.446   4.443
15917TIP3   OH247635   8.223   7.189   4.472
15917TIP3    H147636   8.190   7.122   4.411
15917TIP3    H247637   8.252   7.137   4.549
15918TIP3   OH247638   8.620   7.272   5.210
15918TIP3    H147639   8.585   7.189   5.172
15918TIP3    H247640   8.591   7.339   5.146
15919TIP3   OH247641   7.892   6.665   4.474
15919TIP3    H147642   7.813   6.718   4.451
15919TIP3    H247643   7.939   6.661   4.389
15920TIP3   OH247644   7.851   6.427   4.213
15920TIP3    H147645   7.915   6.491   4.248
15920TIP3    H247646   7.908   6.379   4.150
15921TIP3   OH247647   8.796   6.906   5.062
15921TIP3    H147648   8.713   6.958   5.069
15921TIP3    H247649   8.825   6.931   4.972
15922TIP3   OH247650   8.242   6.746   4.446
15922TIP3    H147651   8.186   6.771   4.524
15922TIP3    H247652   8.325   6.720   4.491
15923TIP3   OH247653   8.477   6.775   5.363
15923TIP3    H147654   8.482   6.860   5.414
15923TIP3    H247655   8.391   6.788   5.318
15924TIP3   OH247656   7.474   6.742   4.863
15924TIP3    H147657   7.433   6.684   4.795
15924TIP3    H247658   7.551   6.689   4.892
15925TIP3   OH247659   7.608   7.163   5.006
15925TIP3    H147660   7.583   7.114   4.926
15925TIP3    H247661   7.695   7.124   5.028
15926TIP3   OH247662   7.617   6.712   5.216
15926TIP3    H147663   7.646   6.694   5.124
15926TIP3    H247664   7.655   6.800   5.236
15927TIP3   OH247665   8.138   7.353   5.001
15927TIP3    H147666   8.126   7.427   5.062
15927TIP3    H247667   8.118   7.275   5.058
15928TIP3   OH247668   7.746   7.274   5.542
15928TIP3    H147669   7.685   7.333   5.592
15928TIP3    H247670   7.681   7.218   5.496
15929TIP3   OH247671   8.080   6.602   4.275
15929TIP3    H147672   8.139   6.664   4.326
15929TIP3    H247673   8.108   6.622   4.183
15930TIP3   OH247674   7.500   6.830   5.640
15930TIP3    H147675   7.505   6.916   5.686
15930TIP3    H247676   7.406   6.809   5.657
15931TIP3   OH247677   7.824   7.293   4.549
15931TIP3    H147678   7.907   7.341   4.554
15931TIP3    H247679   7.768   7.353   4.498
15932TIP3   OH247680   7.543   7.437   5.632
15932TIP3    H147681   7.493   7.430   5.549
15932TIP3    H247682   7.470   7.425   5.698
15933TIP3   OH247683   8.597   5.845   4.318
15933TIP3    H147684   8.516   5.863   4.371
15933TIP3    H247685   8.609   5.929   4.270
15934TIP3   OH247686   7.342   6.586   4.663
15934TIP3    H147687   7.272   6.628   4.610
15934TIP3    H247688   7.303   6.501   4.685
15935TIP3   OH247689   8.388   7.212   3.832
15935TIP3    H147690   8.399   7.308   3.851
15935TIP3    H247691   8.480   7.181   3.845
15936TIP3   OH247692   7.124   6.973   5.571
15936TIP3    H147693   7.053   6.946   5.510
15936TIP3    H247694   7.159   6.887   5.603
15937TIP3   OH247695   6.976   7.170   5.195
15937TIP3    H147696   7.071   7.154   5.200
15937TIP3    H247697   6.962   7.236   5.264
15938TIP3   OH247698   8.839   7.613   5.258
15938TIP3    H147699   8.841   7.518   5.276
15938TIP3    H247700   8.757   7.639   5.306
15939TIP3   OH247701   7.936   7.403   5.389
15939TIP3    H147702   7.937   7.492   5.429
15939TIP3    H247703   7.871   7.357   5.448
15940TIP3   OH247704   7.672   7.520   4.359
15940TIP3    H147705   7.664   7.510   4.263
15940TIP3    H247706   7.671   7.616   4.371
15941TIP3   OH247707   7.143   7.379   4.735
15941TIP3    H147708   7.192   7.370   4.821
15941TIP3    H247709   7.090   7.298   4.737
15942TIP3   OH247710   7.910   7.425   3.991
15942TIP3    H147711   7.963   7.352   3.953
15942TIP3    H247712   7.965   7.445   4.070
15943TIP3   OH247713   8.737   6.744   5.535
15943TIP3    H147714   8.652   6.763   5.492
15943TIP3    H247715   8.746   6.648   5.522
15944TIP3   OH247716   7.329   7.154   5.558
15944TIP3    H147717   7.368   7.153   5.648
15944TIP3    H247718   7.253   7.093   5.570
15945TIP3   OH247719   7.725   5.977   5.348
15945TIP3    H147720   7.637   5.946   5.321
15945TIP3    H247721   7.699   6.058   5.396
15946TIP3   OH247722   8.261   6.095   5.544
15946TIP3    H147723   8.328   6.060   5.605
15946TIP3    H247724   8.176   6.071   5.588
15947TIP3   OH247725   8.487   6.517   5.470
15947TIP3    H147726   8.455   6.545   5.557
15947TIP3    H247727   8.479   6.601   5.419
15948TIP3   OH247728   8.163   6.637   4.019
15948TIP3    H147729   8.118   6.620   3.935
15948TIP3    H247730   8.237   6.694   3.993
15949TIP3   OH247731   7.866   6.023   4.315
15949TIP3    H147732   7.836   6.021   4.408
15949TIP3    H247733   7.832   5.936   4.285
15950TIP3   OH247734   7.658   6.492   5.368
15950TIP3    H147735   7.605   6.512   5.448
15950TIP3    H247736   7.641   6.573   5.314
15951TIP3   OH247737   7.540   6.379   4.880
15951TIP3    H147738   7.448   6.351   4.899
15951TIP3    H247739   7.553   6.337   4.791
15952TIP3   OH247740   8.030   6.465   4.608
15952TIP3    H147741   7.977   6.535   4.565
15952TIP3    H247742   8.084   6.432   4.533
15953TIP3   OH247743   8.188   6.493   4.846
15953TIP3    H147744   8.127   6.521   4.775
15953TIP3    H247745   8.222   6.411   4.803
15954TIP3   OH247746   7.479   6.521   5.576
15954TIP3    H147747   7.487   6.587   5.646
15954TIP3    H247748   7.464   6.439   5.627
15955TIP3   OH247749   7.522   5.994   4.284
15955TIP3    H147750   7.520   5.992   4.382
15955TIP3    H247751   7.446   6.052   4.265
15956TIP3   OH247752   7.069   6.045   5.151
15956TIP3    H147753   7.143   6.075   5.208
15956TIP3    H247754   7.112   6.007   5.074
15957TIP3   OH247755   7.040   6.023   4.671
15957TIP3    H147756   7.088   6.062   4.595
15957TIP3    H247757   6.980   6.097   4.694
15958TIP3   OH247758   8.198   6.741   5.264
15958TIP3    H147759   8.233   6.670   5.206
15958TIP3    H247760   8.169   6.688   5.341
15959TIP3   OH247761   7.870   6.202   4.942
15959TIP3    H147762   7.787   6.199   4.994
15959TIP3    H247763   7.937   6.197   5.012
15960TIP3   OH247764   7.304   6.257   4.948
15960TIP3    H147765   7.209   6.264   4.922
15960TIP3    H247766   7.325   6.164   4.928
15961TIP3   OH247767   7.571   6.252   4.638
15961TIP3    H147768   7.665   6.266   4.618
15961TIP3    H247769   7.525   6.275   4.554
15962TIP3   OH247770   8.357   6.277   5.152
15962TIP3    H147771   8.312   6.287   5.238
15962TIP3    H247772   8.297   6.215   5.107
15963TIP3   OH247773   7.412   6.287   4.416
15963TIP3    H147774   7.340   6.244   4.367
15963TIP3    H247775   7.464   6.324   4.342
15964TIP3   OH247776   8.531   7.968   5.367
15964TIP3    H147777   8.539   7.993   5.273
15964TIP3    H247778   8.612   8.009   5.403
15965TIP3   OH247779   7.486   7.073   5.785
15965TIP3    H147780   7.562   7.109   5.835
15965TIP3    H247781   7.418   7.078   5.855
15966TIP3   OH247782   7.951   6.530   5.039
15966TIP3    H147783   8.022   6.488   4.989
15966TIP3    H247784   7.956   6.485   5.125
15967TIP3   OH247785   7.473   6.015   4.919
15967TIP3    H147786   7.437   5.938   4.967
15967TIP3    H247787   7.525   5.973   4.850
15968TIP3   OH247788   7.925   6.425   5.324
15968TIP3    H147789   7.833   6.457   5.338
15968TIP3    H247790   7.979   6.489   5.372
15969TIP3   OH247791   7.659   6.815   4.418
15969TIP3    H147792   7.586   6.751   4.412
15969TIP3    H247793   7.645   6.850   4.510
15970TIP3   OH247794   8.561   7.049   5.053
15970TIP3    H147795   8.587   7.101   4.974
15970TIP3    H247796   8.477   7.007   5.025
15971TIP3   OH247797   8.118   6.131   4.281
15971TIP3    H147798   8.022   6.112   4.293
15971TIP3    H247799   8.128   6.223   4.312
15972TIP3   OH247800   8.049   7.126   5.424
15972TIP3    H147801   8.129   7.141   5.480
15972TIP3    H247802   8.014   7.217   5.423
15973TIP3   OH247803   8.191   6.375   4.390
15973TIP3    H147804   8.287   6.383   4.406
15973TIP3    H247805   8.171   6.456   4.340
15974TIP3   OH247806   7.357   6.840   5.100
15974TIP3    H147807   7.397   6.807   5.017
15974TIP3    H247808   7.392   6.778   5.166
15975TIP3   OH247809   7.833   6.979   4.266
15975TIP3    H147810   7.773   7.056   4.255
15975TIP3    H247811   7.772   6.912   4.302
15976TIP3   OH247812   7.241   6.755   5.708
15976TIP3    H147813   7.259   6.746   5.804
15976TIP3    H247814   7.165   6.694   5.698
15977TIP3   OH247815   7.960   6.859   5.725
15977TIP3    H147816   7.886   6.802   5.695
15977TIP3    H247817   8.007   6.875   5.642
15978TIP3   OH247818   8.228   7.439   5.315
15978TIP3    H147819   8.135   7.417   5.334
15978TIP3    H247820   8.273   7.382   5.381
15979TIP3   OH247821   8.634   6.466   4.225
15979TIP3    H147822   8.572   6.421   4.163
15979TIP3    H247823   8.630   6.555   4.185
15980TIP3   OH247824   8.861   7.329   5.305
15980TIP3    H147825   8.763   7.322   5.299
15980TIP3    H247826   8.885   7.296   5.216
15981TIP3   OH247827   8.327   6.916   4.966
15981TIP3    H147828   8.234   6.888   4.983
15981TIP3    H247829   8.362   6.835   4.925
15982TIP3   OH247830   7.458   7.140   4.722
15982TIP3    H147831   7.458   7.222   4.669
15982TIP3    H247832   7.363   7.127   4.738
15983TIP3   OH247833   7.019   6.447   4.426
15983TIP3    H147834   7.065   6.530   4.450
15983TIP3    H247835   6.943   6.450   4.489
15984TIP3   OH247836   7.594   6.905   4.666
15984TIP3    H147837   7.560   6.995   4.685
15984TIP3    H247838   7.559   6.855   4.742
15985TIP3   OH247839   7.727   7.484   5.193
15985TIP3    H147840   7.772   7.556   5.145
15985TIP3    H247841   7.799   7.448   5.247
15986TIP3   OH247842   7.373   7.382   4.575
15986TIP3    H147843   7.289   7.389   4.624
15986TIP3    H247844   7.405   7.474   4.577
15987TIP3   OH247845   8.115   7.124   5.155
15987TIP3    H147846   8.101   7.117   5.252
15987TIP3    H247847   8.190   7.064   5.143
15988TIP3   OH247848   8.082   7.005   4.034
15988TIP3    H147849   8.142   6.990   4.111
15988TIP3    H247850   7.998   6.976   4.074
15989TIP3   OH247851   8.352   7.651   5.208
15989TIP3    H147852   8.309   7.576   5.256
15989TIP3    H247853   8.291   7.659   5.133
15990TIP3   OH247854   8.428   7.484   3.861
15990TIP3    H147855   8.461   7.558   3.807
15990TIP3    H247856   8.351   7.530   3.902
15991TIP3   OH247857   7.447   6.262   5.719
15991TIP3    H147858   7.351   6.270   5.734
15991TIP3    H247859   7.474   6.206   5.793
15992TIP3   OH247860   8.247   6.941   4.245
15992TIP3    H147861   8.238   6.878   4.320
15992TIP3    H247862   8.344   6.947   4.238
15993TIP3   OH247863   7.169   7.350   5.355
15993TIP3    H147864   7.220   7.271   5.381
15993TIP3    H247865   7.186   7.406   5.432
15994TIP3   OH247866   7.461   6.989   4.034
15994TIP3    H147867   7.533   6.925   4.011
15994TIP3    H247868   7.449   6.974   4.130
15995TIP3   OH247869   7.404   6.994   4.303
15995TIP3    H147870   7.479   6.968   4.359
15995TIP3    H247871   7.405   7.092   4.312
15996TIP3   OH247872   7.134   6.690   4.510
15996TIP3    H147873   7.069   6.734   4.568
15996TIP3    H247874   7.150   6.762   4.446
15997TIP3   OH247875   8.276   6.339   5.419
15997TIP3    H147876   8.369   6.367   5.431
15997TIP3    H247877   8.274   6.251   5.462
15998TIP3   OH247878   8.165   6.080   4.567
15998TIP3    H147879   8.152   6.103   4.473
15998TIP3    H247880   8.205   6.162   4.604
15999TIP3   OH247881   7.658   7.190   4.243
15999TIP3    H147882   7.574   7.220   4.284
15999TIP3    H247883   7.699   7.275   4.222
16000TIP3   OH247884   7.854   6.260   4.670
16000TIP3    H147885   7.918   6.332   4.653
16000TIP3    H247886   7.859   6.253   4.768
16001TIP3   OH247887   8.129   6.572   5.466
16001TIP3    H147888   8.116   6.583   5.561
16001TIP3    H247889   8.175   6.486   5.458
16002TIP3   OH247890   7.998   5.985   4.772
16002TIP3    H147891   7.991   6.063   4.830
16002TIP3    H247892   8.059   6.020   4.702
16003TIP3   OH247893   7.404   7.269   4.323
16003TIP3    H147894   7.376   7.342   4.263
16003TIP3    H247895   7.392   7.312   4.410
16004TIP3   OH247896   7.511   5.987   4.561
16004TIP3    H147897   7.512   6.076   4.600
16004TIP3    H247898   7.606   5.965   4.569
16005TIP3   OH247899   8.759   6.477   5.457
16005TIP3    H147900   8.662   6.469   5.463
16005TIP3    H247901   8.775   6.436   5.371
16006TIP3   OH247902   8.415   6.673   4.846
16006TIP3    H147903   8.339   6.612   4.857
16006TIP3    H247904   8.486   6.625   4.894
16007TIP3   OH247905   7.129   6.901   4.315
16007TIP3    H147906   7.193   6.972   4.331
16007TIP3    H247907   7.178   6.852   4.246
16008TIP3   OH247908   7.073   6.177   4.444
16008TIP3    H147909   7.070   6.275   4.443
16008TIP3    H247910   6.984   6.154   4.416
16009TIP3   OH247911   8.394   7.655   4.790
16009TIP3    H147912   8.322   7.615   4.739
16009TIP3    H247913   8.461   7.585   4.793
16010TIP3   OH247914   7.462   5.896   5.321
16010TIP3    H147915   7.429   5.863   5.235
16010TIP3    H247916   7.450   5.818   5.379
16011TIP3   OH247917   6.999   7.116   4.701
16011TIP3    H147918   6.933   7.145   4.766
16011TIP3    H247919   6.965   7.157   4.618
16012TIP3   OH247920   7.152   7.675   5.768
16012TIP3    H147921   7.240   7.665   5.809
16012TIP3    H247922   7.133   7.579   5.770
16013TIP3   OH247923   7.652   7.633   5.796
16013TIP3    H147924   7.736   7.589   5.817
16013TIP3    H247925   7.610   7.565   5.739
16014TIP3   OH247926   7.618   7.197   3.941
16014TIP3    H147927   7.558   7.136   3.990
16014TIP3    H247928   7.699   7.145   3.945
16015TIP3   OH247929   8.056   7.230   3.865
16015TIP3    H147930   8.085   7.175   3.941
16015TIP3    H247931   8.141   7.248   3.822
16016TIP3   OH247932   7.293   7.043   5.976
16016TIP3    H147933   7.292   6.947   5.967
16016TIP3    H247934   7.205   7.067   5.940
16017TIP3   OH247935   7.275   6.707   4.170
16017TIP3    H147936   7.310   6.664   4.250
16017TIP3    H247937   7.356   6.746   4.135
16018TIP3   OH247938   7.896   7.148   5.746
16018TIP3    H147939   7.856   7.170   5.660
16018TIP3    H247940   7.921   7.055   5.735
16019TIP3   OH247941   7.409   6.780   5.956
16019TIP3    H147942   7.492   6.732   5.945
16019TIP3    H247943   7.428   6.831   6.037
16020TIP3   OH247944   7.458   6.618   4.384
16020TIP3    H147945   7.440   6.581   4.472
16020TIP3    H247946   7.504   6.544   4.339
16021TIP3   OH247947   7.745   6.694   5.621
16021TIP3    H147948   7.661   6.745   5.624
16021TIP3    H247949   7.786   6.726   5.538
16022TIP3   OH247950   7.576   6.412   4.235
16022TIP3    H147951   7.559   6.406   4.140
16022TIP3    H247952   7.674   6.414   4.236
16023TIP3   OH247953   8.278   6.998   5.767
16023TIP3    H147954   8.285   7.051   5.685
16023TIP3    H247955   8.283   7.071   5.831
16024TIP3   OH247956   8.391   6.751   3.889
16024TIP3    H147957   8.372   6.700   3.809
16024TIP3    H247958   8.357   6.839   3.863
16025TIP3   OH247959   7.854   6.470   5.742
16025TIP3    H147960   7.857   6.391   5.686
16025TIP3    H247961   7.811   6.537   5.684
16026TIP3   OH247962   7.868   6.255   5.548
16026TIP3    H147963   7.891   6.296   5.463
16026TIP3    H247964   7.774   6.233   5.535
16027TIP3   OH247965   7.906   6.800   5.426
16027TIP3    H147966   7.982   6.809   5.367
16027TIP3    H247967   7.843   6.864   5.387
16028TIP3   OH247968   8.511   7.002   5.511
16028TIP3    H147969   8.452   7.081   5.516
16028TIP3    H247970   8.595   7.043   5.481
16029TIP3   OH247971   7.748   6.579   5.974
16029TIP3    H147972   7.675   6.516   5.991
16029TIP3    H247973   7.780   6.549   5.886
16030TIP3   OH247974   8.000   6.019   5.618
16030TIP3    H147975   7.950   6.101   5.596
16030TIP3    H247976   7.931   5.951   5.608
16031TIP3   OH247977   8.345   6.534   5.760
16031TIP3    H147978   8.298   6.452   5.738
16031TIP3    H247979   8.435   6.496   5.776
16032TIP3   OH247980   8.576   6.410   5.833
16032TIP3    H147981   8.599   6.317   5.852
16032TIP3    H247982   8.585   6.453   5.921
16033TIP3   OH247983   7.582   6.362   6.028
16033TIP3    H147984   7.588   6.270   5.995
16033TIP3    H247985   7.617   6.351   6.119
16034TIP3   OH247986   8.094   6.031   5.877
16034TIP3    H147987   8.160   5.959   5.871
16034TIP3    H247988   8.052   6.024   5.789
16035TIP3   OH247989   8.167   6.253   6.027
16035TIP3    H147990   8.138   6.179   5.970
16035TIP3    H247991   8.086   6.310   6.029
16036TIP3   OH247992   7.380   7.474   4.133
16036TIP3    H147993   7.477   7.470   4.122
16036TIP3    H247994   7.356   7.525   4.053
16037TIP3   OH247995   6.859   6.859   4.344
16037TIP3    H147996   6.954   6.878   4.337
16037TIP3    H247997   6.855   6.768   4.307
16038TIP3   OH247998   6.778   7.467   4.765
16038TIP3    H147999   6.709   7.406   4.730
16038TIP3    H248000   6.820   7.410   4.833
16039TIP3   OH248001   6.910   7.318   4.954
16039TIP3    H148002   6.901   7.244   5.018
16039TIP3    H248003   6.959   7.381   5.010
16040TIP3   OH248004   8.637   7.802   4.746
16040TIP3    H148005   8.669   7.777   4.836
16040TIP3    H248006   8.716   7.778   4.692
16041TIP3   OH248007   8.667   7.736   5.018
16041TIP3    H148008   8.620   7.650   5.029
16041TIP3    H248009   8.738   7.721   5.082
16042TIP3   OH248010   8.717   7.415   5.603
16042TIP3    H148011   8.635   7.422   5.656
16042TIP3    H248012   8.755   7.505   5.615
16043TIP3   OH248013   8.531   6.927   4.227
16043TIP3    H148014   8.599   6.991   4.200
16043TIP3    H248015   8.572   6.888   4.307
16044TIP3   OH248016   8.657   6.797   4.432
16044TIP3    H148017   8.591   6.753   4.491
16044TIP3    H248018   8.722   6.832   4.496
16045TIP3   OH248019   8.708   7.186   4.862
16045TIP3    H148020   8.766   7.119   4.820
16045TIP3    H248021   8.698   7.253   4.793
16046TIP3   OH248022   8.537   7.494   5.051
16046TIP3    H148023   8.472   7.520   5.119
16046TIP3    H248024   8.484   7.434   4.994
16047TIP3   OH248025   8.593   6.704   4.076
16047TIP3    H148026   8.521   6.709   4.010
16047TIP3    H248027   8.567   6.778   4.134
16048TIP3   OH248028   8.469   6.375   4.029
16048TIP3    H148029   8.416   6.412   3.958
16048TIP3    H248030   8.445   6.280   4.022
16049TIP3   OH248031   8.471   6.653   4.577
16049TIP3    H148032   8.478   6.556   4.571
16049TIP3    H248033   8.457   6.666   4.674
16050TIP3   OH248034   7.096   6.729   5.321
16050TIP3    H148035   7.095   6.696   5.229
16050TIP3    H248036   7.193   6.729   5.339
16051TIP3   OH248037   8.762   7.081   5.434
16051TIP3    H148038   8.834   7.015   5.424
16051TIP3    H248039   8.786   7.149   5.370
16052TIP3   OH248040   8.947   6.884   5.444
16052TIP3    H148041   8.873   6.836   5.487
16052TIP3    H248042   9.020   6.820   5.461
16053TIP3   OH248043   8.410   6.110   4.014
16053TIP3    H148044   8.484   6.080   4.070
16053TIP3    H248045   8.336   6.052   4.041
16054TIP3   OH248046   8.467   6.369   4.472
16054TIP3    H148047   8.507   6.280   4.488
16054TIP3    H248048   8.526   6.401   4.401
16055TIP3   OH248049   8.628   6.543   4.967
16055TIP3    H148050   8.714   6.568   4.926
16055TIP3    H248051   8.642   6.580   5.056
16056TIP3   OH248052   8.696   6.686   5.198
16056TIP3    H148053   8.621   6.722   5.249
16056TIP3    H248054   8.731   6.767   5.154
16057TIP3   OH248055   7.314   6.409   5.995
16057TIP3    H148056   7.412   6.406   6.001
16057TIP3    H248057   7.290   6.325   6.039
16058TIP3   OH248058   9.148   6.278   5.755
16058TIP3    H148059   9.208   6.212   5.713
16058TIP3    H248060   9.121   6.332   5.678
16059TIP3   OH248061   8.576   6.119   4.509
16059TIP3    H148062   8.624   6.103   4.593
16059TIP3    H248063   8.515   6.042   4.508
16060TIP3   OH248064   7.276   6.104   5.323
16060TIP3    H148065   7.339   6.030   5.337
16060TIP3    H248066   7.337   6.179   5.322
16061TIP3   OH248067   7.079   6.376   5.403
16061TIP3    H148068   7.129   6.377   5.319
16061TIP3    H248069   7.102   6.462   5.441
16062TIP3   OH248070   9.019   6.417   5.559
16062TIP3    H148071   8.934   6.458   5.585
16062TIP3    H248072   8.987   6.346   5.501
16063TIP3   OH248073   8.655   6.055   4.141
16063TIP3    H148074   8.695   5.981   4.090
16063TIP3    H248075   8.724   6.124   4.137
16064TIP3   OH248076   7.062   5.885   4.904
16064TIP3    H148077   6.969   5.879   4.932
16064TIP3    H248078   7.056   5.942   4.825
16065TIP3   OH248079   7.281   5.958   5.716
16065TIP3    H148080   7.232   5.957   5.799
16065TIP3    H248081   7.216   6.000   5.657
16066TIP3   OH248082   7.499   7.417   5.338
16066TIP3    H148083   7.452   7.495   5.305
16066TIP3    H248084   7.586   7.434   5.297
16067TIP3   OH248085   7.946   7.667   5.479
16067TIP3    H148086   7.987   7.663   5.569
16067TIP3    H248087   8.012   7.720   5.430
16068TIP3   OH248088   8.126   7.819   5.335
16068TIP3    H148089   8.197   7.763   5.301
16068TIP3    H248090   8.176   7.876   5.398
16069TIP3   OH248091   8.918   6.179   5.439
16069TIP3    H148092   8.828   6.169   5.404
16069TIP3    H248093   8.953   6.087   5.428
16070TIP3   OH248094   7.179   7.699   5.354
16070TIP3    H148095   7.084   7.724   5.347
16070TIP3    H248096   7.190   7.702   5.450
16071TIP3   OH248097   7.416   7.661   5.225
16071TIP3    H148098   7.330   7.674   5.270
16071TIP3    H248099   7.394   7.686   5.133
16072TIP3   OH248100   7.840   7.685   5.023
16072TIP3    H148101   7.768   7.703   4.959
16072TIP3    H248102   7.849   7.772   5.067
16073TIP3   OH248103   8.117   7.650   5.050
16073TIP3    H148104   8.021   7.632   5.054
16073TIP3    H248105   8.114   7.734   5.003
16074TIP3   OH248106   7.091   7.476   5.113
16074TIP3    H148107   7.118   7.446   5.203
16074TIP3    H248108   7.160   7.429   5.061
16075TIP3   OH248109   7.283   7.345   4.967
16075TIP3    H148110   7.295   7.260   5.016
16075TIP3    H248111   7.374   7.379   4.966
16076TIP3   OH248112   7.552   7.440   4.971
16076TIP3    H148113   7.579   7.347   4.959
16076TIP3    H248114   7.596   7.458   5.056
16077TIP3   OH248115   8.124   6.095   5.060
16077TIP3    H148116   8.080   6.024   5.110
16077TIP3    H248117   8.195   6.047   5.013
16078TIP3   OH248118   8.645   5.981   4.967
16078TIP3    H148119   8.682   6.028   4.889
16078TIP3    H248120   8.549   5.993   4.954
16079TIP3   OH248121   8.739   6.078   4.728
16079TIP3    H148122   8.811   6.023   4.690
16079TIP3    H248123   8.775   6.168   4.712
16080TIP3   OH248124   7.371   5.805   5.073
16080TIP3    H148125   7.279   5.770   5.075
16080TIP3    H248126   7.421   5.720   5.069
16081TIP3   OH248127   7.160   5.679   4.734
16081TIP3    H148128   7.181   5.736   4.659
16081TIP3    H248129   7.131   5.743   4.802
16082TIP3   OH248130   7.815   5.838   4.954
16082TIP3    H148131   7.874   5.885   4.894
16082TIP3    H248132   7.839   5.874   5.040
16083TIP3   OH248133   8.362   5.983   4.937
16083TIP3    H148134   8.362   5.943   4.849
16083TIP3    H248135   8.349   5.904   4.995
16084TIP3   OH248136   8.393   5.906   4.500
16084TIP3    H148137   8.305   5.947   4.513
16084TIP3    H248138   8.380   5.820   4.546
16085TIP3   OH248139   6.878   7.243   4.497
16085TIP3    H148140   6.791   7.211   4.465
16085TIP3    H248141   6.864   7.338   4.489
16086TIP3   OH248142   7.282   5.843   4.474
16086TIP3    H148143   7.333   5.761   4.467
16086TIP3    H248144   7.348   5.902   4.516
16087TIP3   OH248145   7.788   6.010   4.581
16087TIP3    H148146   7.845   5.959   4.641
16087TIP3    H248147   7.812   6.101   4.610
16088TIP3   OH248148   7.651   7.439   4.083
16088TIP3    H148149   7.744   7.450   4.054
16088TIP3    H248150   7.627   7.361   4.030
16089TIP3   OH248151   7.580   6.084   5.963
16089TIP3    H148152   7.544   6.016   6.022
16089TIP3    H248153   7.674   6.085   5.993
16090TIP3   OH248154   7.828   6.081   6.084
16090TIP3    H148155   7.913   6.055   6.045
16090TIP3    H248156   7.815   6.011   6.151
16091TIP3   OH248157   6.950   7.273   4.140
16091TIP3    H148158   6.949   7.289   4.236
16091TIP3    H248159   7.038   7.231   4.127
16092TIP3   OH248160   8.656   6.144   5.872
16092TIP3    H148161   8.675   6.112   5.962
16092TIP3    H248162   8.744   6.138   5.830
16093TIP3   OH248163   8.596   7.699   5.358
16093TIP3    H148164   8.512   7.666   5.320
16093TIP3    H248165   8.573   7.792   5.373
16094TIP3   OH248166   9.864   7.059   4.119
16094TIP3    H148167   9.843   7.153   4.103
16094TIP3    H248168   9.782   7.017   4.091
16095TIP3   OH248169   9.807   7.072   4.525
16095TIP3    H148170   9.872   7.055   4.597
16095TIP3    H248171   9.810   6.989   4.475
16096TIP3   OH248172   9.155   6.963   4.877
16096TIP3    H148173   9.185   6.895   4.940
16096TIP3    H248174   9.236   7.016   4.868
16097TIP3   OH248175   9.126   7.372   4.599
16097TIP3    H148176   9.121   7.274   4.601
16097TIP3    H248177   9.223   7.384   4.596
16098TIP3   OH248178   8.836   6.577   4.384
16098TIP3    H148179   8.786   6.660   4.400
16098TIP3    H248180   8.766   6.521   4.347
16099TIP3   OH248181   8.895   6.863   4.559
16099TIP3    H148182   8.943   6.785   4.596
16099TIP3    H248183   8.956   6.892   4.491
16100TIP3   OH248184   9.743   7.819   4.223
16100TIP3    H148185   9.783   7.737   4.189
16100TIP3    H248186   9.732   7.795   4.317
16101TIP3   OH248187   9.651   7.297   4.563
16101TIP3    H148188   9.693   7.212   4.535
16101TIP3    H248189   9.734   7.347   4.579
16102TIP3   OH248190  10.072   6.816   4.592
16102TIP3    H148191  10.077   6.720   4.611
16102TIP3    H248192  10.052   6.813   4.497
16103TIP3   OH248193   9.407   6.455   4.557
16103TIP3    H148194   9.387   6.528   4.494
16103TIP3    H248195   9.359   6.381   4.513
16104TIP3   OH248196  10.090   6.543   4.200
16104TIP3    H148197  10.162   6.505   4.253
16104TIP3    H248198  10.139   6.607   4.145
16105TIP3   OH248199   9.041   6.657   4.664
16105TIP3    H148200   9.124   6.637   4.712
16105TIP3    H248201   9.054   6.600   4.584
16106TIP3   OH248202   9.481   6.854   4.458
16106TIP3    H148203   9.575   6.829   4.470
16106TIP3    H248204   9.443   6.769   4.426
16107TIP3   OH248205   9.404   6.439   4.991
16107TIP3    H148206   9.344   6.475   4.924
16107TIP3    H248207   9.352   6.455   5.072
16108TIP3   OH248208   9.754   7.296   3.998
16108TIP3    H148209   9.711   7.271   3.914
16108TIP3    H248210   9.704   7.376   4.022
16109TIP3   OH248211   9.511   7.212   4.787
16109TIP3    H148212   9.450   7.281   4.822
16109TIP3    H248213   9.556   7.261   4.714
16110TIP3   OH248214   9.274   6.553   4.775
16110TIP3    H148215   9.337   6.626   4.799
16110TIP3    H248216   9.324   6.512   4.701
16111TIP3   OH248217   9.338   7.408   4.884
16111TIP3    H148218   9.313   7.495   4.847
16111TIP3    H248219   9.260   7.392   4.941
16112TIP3   OH248220   8.734   7.098   4.121
16112TIP3    H148221   8.691   7.124   4.037
16112TIP3    H248222   8.766   7.183   4.156
16113TIP3   OH248223   9.751   6.155   4.703
16113TIP3    H148224   9.742   6.059   4.720
16113TIP3    H248225   9.673   6.189   4.752
16114TIP3   OH248226   9.875   7.661   4.027
16114TIP3    H148227   9.937   7.592   4.052
16114TIP3    H248228   9.930   7.741   4.025
16115TIP3   OH248229   9.681   6.916   3.954
16115TIP3    H148230   9.600   6.970   3.944
16115TIP3    H248231   9.722   6.926   3.868
16116TIP3   OH248232   9.647   6.703   3.674
16116TIP3    H148233   9.706   6.744   3.739
16116TIP3    H248234   9.708   6.641   3.630
16117TIP3   OH248235   9.271   7.000   4.350
16117TIP3    H148236   9.231   6.941   4.283
16117TIP3    H248237   9.347   6.947   4.381
16118TIP3   OH248238   9.399   7.413   4.498
16118TIP3    H148239   9.382   7.368   4.414
16118TIP3    H248240   9.489   7.380   4.520
16119TIP3   OH248241   9.403   6.972   4.703
16119TIP3    H148242   9.440   6.948   4.615
16119TIP3    H248243   9.450   7.056   4.723
16120TIP3   OH248244   9.886   7.619   4.473
16120TIP3    H148245   9.924   7.691   4.525
16120TIP3    H248246   9.904   7.542   4.529
16121TIP3   OH248247   9.542   7.528   5.031
16121TIP3    H148248   9.480   7.590   5.075
16121TIP3    H248249   9.479   7.473   4.980
16122TIP3   OH248250   9.890   6.869   3.764
16122TIP3    H148251   9.930   6.932   3.826
16122TIP3    H248252   9.918   6.905   3.678
16123TIP3   OH248253   9.299   7.084   5.129
16123TIP3    H148254   9.303   7.171   5.174
16123TIP3    H248255   9.204   7.064   5.141
16124TIP3   OH248256   9.615   7.538   4.033
16124TIP3    H148257   9.692   7.595   4.052
16124TIP3    H248258   9.553   7.599   3.992
16125TIP3   OH248259   9.336   7.696   5.115
16125TIP3    H148260   9.300   7.694   5.024
16125TIP3    H248261   9.256   7.675   5.169
16126TIP3   OH248262   9.137   6.843   4.153
16126TIP3    H148263   9.068   6.885   4.097
16126TIP3    H248264   9.100   6.756   4.168
16127TIP3   OH248265   8.920   7.227   5.060
16127TIP3    H148266   8.850   7.202   4.998
16127TIP3    H248267   8.957   7.141   5.088
16128TIP3   OH248268   8.776   7.433   4.694
16128TIP3    H148269   8.860   7.394   4.668
16128TIP3    H248270   8.804   7.489   4.768
16129TIP3   OH248271   9.738   7.657   4.885
16129TIP3    H148272   9.738   7.750   4.917
16129TIP3    H248273   9.669   7.617   4.941
16130TIP3   OH248274   9.497   7.791   3.833
16130TIP3    H148275   9.453   7.765   3.750
16130TIP3    H248276   9.458   7.879   3.853
16131TIP3   OH248277   8.940   7.634   4.222
16131TIP3    H148278   8.988   7.625   4.307
16131TIP3    H248279   8.893   7.548   4.218
16132TIP3   OH248280   9.701   7.691   3.485
16132TIP3    H148281   9.761   7.634   3.436
16132TIP3    H248282   9.745   7.698   3.572
16133TIP3   OH248283   9.750   7.739   3.760
16133TIP3    H148284   9.658   7.749   3.793
16133TIP3    H248285   9.788   7.683   3.830
16134TIP3   OH248286   9.122   7.413   5.050
16134TIP3    H148287   9.172   7.395   5.132
16134TIP3    H248288   9.049   7.347   5.057
16135TIP3   OH248289   9.519   6.234   4.833
16135TIP3    H148290   9.430   6.202   4.807
16135TIP3    H248291   9.493   6.315   4.881
16136TIP3   OH248292  10.044   6.348   5.036
16136TIP3    H148293  10.088   6.328   5.120
16136TIP3    H248294   9.951   6.329   5.061
16137TIP3   OH248295   9.675   6.283   3.807
16137TIP3    H148296   9.642   6.280   3.899
16137TIP3    H248297   9.630   6.203   3.772
16138TIP3   OH248298   9.453   6.749   4.851
16138TIP3    H148299   9.403   6.770   4.933
16138TIP3    H248300   9.436   6.830   4.798
16139TIP3   OH248301   9.335   6.634   4.367
16139TIP3    H148302   9.243   6.607   4.385
16139TIP3    H248303   9.348   6.593   4.278
16140TIP3   OH248304   9.820   6.713   4.085
16140TIP3    H148305   9.770   6.789   4.049
16140TIP3    H248306   9.884   6.693   4.016
16141TIP3   OH248307  10.003   6.996   5.178
16141TIP3    H148308   9.977   6.927   5.243
16141TIP3    H248309  10.095   7.013   5.205
16142TIP3   OH248310   9.961   6.746   4.349
16142TIP3    H148311   9.933   6.797   4.271
16142TIP3    H248312  10.000   6.668   4.305
16143TIP3   OH248313   9.272   6.778   5.061
16143TIP3    H148314   9.299   6.841   5.129
16143TIP3    H248315   9.261   6.695   5.113
16144TIP3   OH248316   9.323   6.256   3.770
16144TIP3    H148317   9.316   6.253   3.868
16144TIP3    H248318   9.243   6.307   3.748
16145TIP3   OH248319   8.865   6.300   4.641
16145TIP3    H148320   8.941   6.330   4.695
16145TIP3    H248321   8.906   6.264   4.562
16146TIP3   OH248322   8.836   6.279   4.159
16146TIP3    H148323   8.883   6.317   4.083
16146TIP3    H248324   8.776   6.353   4.181
16147TIP3   OH248325   9.963   7.004   4.753
16147TIP3    H148326  10.019   6.947   4.696
16147TIP3    H248327   9.953   6.946   4.831
16148TIP3   OH248328   9.664   6.447   4.427
16148TIP3    H148329   9.580   6.451   4.478
16148TIP3    H248330   9.728   6.472   4.495
16149TIP3   OH248331   9.098   6.512   4.436
16149TIP3    H148332   9.004   6.519   4.409
16149TIP3    H248333   9.122   6.420   4.414
16150TIP3   OH248334   9.364   6.507   4.126
16150TIP3    H148335   9.459   6.522   4.109
16150TIP3    H248336   9.321   6.531   4.041
16151TIP3   OH248337  10.070   6.544   4.631
16151TIP3    H148338  10.062   6.550   4.729
16151TIP3    H248339  10.011   6.468   4.609
16152TIP3   OH248340   9.208   6.545   3.903
16152TIP3    H148341   9.136   6.499   3.856
16152TIP3    H248342   9.260   6.579   3.827
16153TIP3   OH248343   9.284   7.334   5.269
16153TIP3    H148344   9.363   7.363   5.318
16153TIP3    H248345   9.219   7.329   5.343
16154TIP3   OH248346   9.739   6.766   4.518
16154TIP3    H148347   9.821   6.751   4.466
16154TIP3    H248348   9.766   6.739   4.607
16155TIP3   OH248349   9.268   6.272   4.406
16155TIP3    H148350   9.232   6.194   4.454
16155TIP3    H248351   9.323   6.230   4.338
16156TIP3   OH248352   9.725   6.678   4.825
16156TIP3    H148353   9.635   6.716   4.827
16156TIP3    H248354   9.779   6.746   4.869
16157TIP3   OH248355   9.455   7.070   3.912
16157TIP3    H148356   9.382   7.005   3.901
16157TIP3    H248357   9.436   7.105   4.003
16158TIP3   OH248358   9.914   6.404   3.751
16158TIP3    H148359   9.826   6.376   3.786
16158TIP3    H248360   9.932   6.486   3.802
16159TIP3   OH248361   9.855   7.388   4.910
16159TIP3    H148362   9.876   7.374   5.003
16159TIP3    H248363   9.826   7.480   4.908
16160TIP3   OH248364  10.007   6.639   3.863
16160TIP3    H148365  10.096   6.667   3.889
16160TIP3    H248366   9.976   6.716   3.812
16161TIP3   OH248367   9.151   7.095   4.585
16161TIP3    H148368   9.191   7.067   4.500
16161TIP3    H248369   9.196   7.037   4.648
16162TIP3   OH248370   9.605   7.219   3.741
16162TIP3    H148371   9.559   7.306   3.742
16162TIP3    H248372   9.546   7.166   3.799
16163TIP3   OH248373   9.034   7.016   5.199
16163TIP3    H148374   9.054   7.004   5.294
16163TIP3    H248375   8.965   6.949   5.186
16164TIP3   OH248376   9.759   7.129   5.219
16164TIP3    H148377   9.697   7.072   5.170
16164TIP3    H248378   9.845   7.096   5.187
16165TIP3   OH248379  10.019   7.652   4.804
16165TIP3    H148380   9.922   7.654   4.806
16165TIP3    H248381  10.042   7.703   4.883
16166TIP3   OH248382   9.253   7.399   4.211
16166TIP3    H148383   9.253   7.480   4.156
16166TIP3    H248384   9.159   7.380   4.218
16167TIP3   OH248385   8.815   6.704   3.913
16167TIP3    H148386   8.863   6.786   3.936
16167TIP3    H248387   8.740   6.707   3.976
16168TIP3   OH248388   9.388   7.164   4.154
16168TIP3    H148389   9.356   7.254   4.175
16168TIP3    H248390   9.357   7.113   4.231
16169TIP3   OH248391   9.524   7.741   4.679
16169TIP3    H148392   9.569   7.811   4.629
16169TIP3    H248393   9.600   7.701   4.726
16170TIP3   OH248394   9.171   7.639   4.062
16170TIP3    H148395   9.086   7.648   4.109
16170TIP3    H248396   9.204   7.732   4.066
16171TIP3   OH248397   9.907   7.381   4.637
16171TIP3    H148398   9.899   7.381   4.735
16171TIP3    H248399   9.981   7.321   4.623
16172TIP3   OH248400   9.245   6.521   5.207
16172TIP3    H148401   9.148   6.523   5.221
16172TIP3    H248402   9.273   6.462   5.278
16173TIP3   OH248403   8.955   7.601   4.845
16173TIP3    H148404   9.013   7.528   4.872
16173TIP3    H248405   8.987   7.671   4.904
16174TIP3   OH248406   9.247   7.250   3.522
16174TIP3    H148407   9.268   7.160   3.492
16174TIP3    H248408   9.230   7.236   3.617
16175TIP3   OH248409   9.194   7.254   3.797
16175TIP3    H148410   9.270   7.227   3.852
16175TIP3    H248411   9.201   7.352   3.802
16176TIP3   OH248412   8.931   6.946   3.996
16176TIP3    H148413   8.866   6.991   4.053
16176TIP3    H248414   8.948   7.016   3.930
16177TIP3   OH248415  10.114   6.584   4.917
16177TIP3    H148416  10.140   6.632   4.998
16177TIP3    H248417  10.077   6.502   4.956
16178TIP3   OH248418   9.928   6.359   4.059
16178TIP3    H148419   9.962   6.354   3.969
16178TIP3    H248420   9.989   6.423   4.101
16179TIP3   OH248421   9.464   7.451   3.745
16179TIP3    H148422   9.377   7.482   3.777
16179TIP3    H248423   9.474   7.504   3.665
16180TIP3   OH248424   9.642   6.516   4.158
16180TIP3    H148425   9.711   6.584   4.137
16180TIP3    H248426   9.652   6.508   4.255
16181TIP3   OH248427   9.922   6.832   4.964
16181TIP3    H148428   9.938   6.893   5.039
16181TIP3    H248429   9.984   6.761   4.983
16182TIP3   OH248430   9.794   6.240   4.265
16182TIP3    H148431   9.773   6.322   4.315
16182TIP3    H248432   9.847   6.278   4.191
16183TIP3   OH248433   9.207   7.528   3.809
16183TIP3    H148434   9.177   7.598   3.747
16183TIP3    H248435   9.191   7.571   3.896
16184TIP3   OH248436   9.307   6.242   4.046
16184TIP3    H148437   9.306   6.331   4.086
16184TIP3    H248438   9.403   6.221   4.056
16185TIP3   OH248439   8.925   7.158   3.801
16185TIP3    H148440   8.996   7.224   3.811
16185TIP3    H248441   8.968   7.100   3.734
16186TIP3   OH248442   8.869   6.434   3.934
16186TIP3    H148443   8.867   6.531   3.930
16186TIP3    H248444   8.783   6.410   3.898
16187TIP3   OH248445   9.255   6.152   4.809
16187TIP3    H148446   9.224   6.117   4.722
16187TIP3    H248447   9.245   6.074   4.867
16188TIP3   OH248448   8.799   7.382   4.191
16188TIP3    H148449   8.722   7.403   4.245
16188TIP3    H248450   8.771   7.418   4.104
16189TIP3   OH248451   8.954   7.914   5.258
16189TIP3    H148452   9.039   7.914   5.307
16189TIP3    H248453   8.933   7.818   5.260
16190TIP3   OH248454   9.430   7.877   5.305
16190TIP3    H148455   9.526   7.867   5.307
16190TIP3    H248456   9.407   7.816   5.233
16191TIP3   OH248457   9.413   7.458   3.445
16191TIP3    H148458   9.362   7.378   3.472
16191TIP3    H248459   9.485   7.416   3.392
16192TIP3   OH248460  10.078   7.780   5.044
16192TIP3    H148461  10.056   7.708   5.108
16192TIP3    H248462  10.154   7.822   5.087
16193TIP3   OH248463   9.086   7.320   5.463
16193TIP3    H148464   9.100   7.224   5.471
16193TIP3    H248465   8.998   7.324   5.419
16194TIP3   OH248466   9.058   6.969   3.655
16194TIP3    H148467   9.114   6.936   3.728
16194TIP3    H248468   9.125   6.974   3.583
16195TIP3   OH248469   9.691   7.405   5.234
16195TIP3    H148470   9.649   7.422   5.148
16195TIP3    H248471   9.721   7.312   5.226
16196TIP3   OH248472   9.565   7.161   3.469
16196TIP3    H148473   9.581   7.179   3.564
16196TIP3    H248474   9.560   7.063   3.469
16197TIP3   OH248475   9.204   7.055   5.442
16197TIP3    H148476   9.278   6.996   5.423
16197TIP3    H248477   9.228   7.087   5.532
16198TIP3   OH248478   9.264   6.873   3.877
16198TIP3    H148479   9.240   6.833   3.962
16198TIP3    H248480   9.301   6.797   3.827
16199TIP3   OH248481   9.538   6.939   5.104
16199TIP3    H148482   9.460   6.999   5.105
16199TIP3    H248483   9.587   6.973   5.025
16200TIP3   OH248484   9.367   6.668   3.716
16200TIP3    H148485   9.340   6.672   3.622
16200TIP3    H248486   9.464   6.675   3.707
16201TIP3   OH248487  10.048   7.343   5.244
16201TIP3    H148488  10.124   7.314   5.193
16201TIP3    H248489  10.043   7.274   5.314
16202TIP3   OH248490   9.663   6.729   5.229
16202TIP3    H148491   9.660   6.648   5.174
16202TIP3    H248492   9.618   6.794   5.172
16203TIP3   OH248493   9.662   6.512   5.042
16203TIP3    H148494   9.688   6.558   4.959
16203TIP3    H248495   9.568   6.489   5.022
16204TIP3   OH248496   9.694   7.048   4.910
16204TIP3    H148497   9.775   7.054   4.858
16204TIP3    H248498   9.637   7.114   4.866
16205TIP3   OH248499  10.282   7.021   5.293
16205TIP3    H148500  10.316   6.931   5.303
16205TIP3    H248501  10.364   7.072   5.285
16206TIP3   OH248502   9.537   6.836   5.460
16206TIP3    H148503   9.469   6.768   5.475
16206TIP3    H248504   9.572   6.810   5.372
16207TIP3   OH248505   9.792   6.276   5.099
16207TIP3    H148506   9.739   6.357   5.082
16207TIP3    H248507   9.723   6.206   5.091
16208TIP3   OH248508   9.923   6.778   5.319
16208TIP3    H148509   9.907   6.766   5.415
16208TIP3    H248510   9.833   6.757   5.286
16209TIP3   OH248511  10.151   6.697   5.169
16209TIP3    H148512  10.074   6.721   5.225
16209TIP3    H248513  10.221   6.688   5.236
16210TIP3   OH248514  10.368   6.662   5.350
16210TIP3    H148515  10.414   6.589   5.393
16210TIP3    H248516  10.369   6.728   5.423
16211TIP3   OH248517   9.377   6.617   5.515
16211TIP3    H148518   9.381   6.525   5.483
16211TIP3    H248519   9.413   6.606   5.606
16212TIP3   OH248520   9.894   6.292   5.356
16212TIP3    H148521   9.956   6.217   5.354
16212TIP3    H248522   9.848   6.281   5.271
16213TIP3   OH248523   9.960   6.506   5.517
16213TIP3    H148524   9.935   6.434   5.455
16213TIP3    H248525   9.880   6.564   5.515
16214TIP3   OH248526   9.176   7.732   3.626
16214TIP3    H148527   9.271   7.725   3.605
16214TIP3    H248528   9.146   7.778   3.544
16215TIP3   OH248529   8.656   7.112   3.839
16215TIP3    H148530   8.750   7.136   3.826
16215TIP3    H248531   8.653   7.023   3.799
16216TIP3   OH248532   8.560   7.715   4.249
16216TIP3    H148533   8.495   7.653   4.214
16216TIP3    H248534   8.606   7.661   4.318
16217TIP3   OH248535   8.696   7.580   4.446
16217TIP3    H148536   8.697   7.500   4.501
16217TIP3    H248537   8.759   7.635   4.495
16218TIP3   OH248538   8.891   6.988   4.809
16218TIP3    H148539   8.891   6.952   4.718
16218TIP3    H248540   8.988   6.987   4.828
16219TIP3   OH248541   9.111   6.668   5.482
16219TIP3    H148542   9.208   6.663   5.487
16219TIP3    H248543   9.086   6.584   5.524
16220TIP3   OH248544   9.071   6.361   4.817
16220TIP3    H148545   9.132   6.286   4.826
16220TIP3    H248546   9.134   6.435   4.810
16221TIP3   OH248547   8.873   6.636   4.888
16221TIP3    H148548   8.923   6.629   4.804
16221TIP3    H248549   8.907   6.718   4.923
16222TIP3   OH248550   8.858   6.141   4.391
16222TIP3    H148551   8.765   6.135   4.417
16222TIP3    H248552   8.854   6.198   4.311
16223TIP3   OH248553   9.079   6.221   5.206
16223TIP3    H148554   9.028   6.214   5.288
16223TIP3    H248555   9.012   6.256   5.144
16224TIP3   OH248556   9.117   7.649   5.282
16224TIP3    H148557   9.026   7.618   5.265
16224TIP3    H248558   9.129   7.625   5.374
16225TIP3   OH248559   9.295   7.679   4.827
16225TIP3    H148560   9.253   7.758   4.787
16225TIP3    H248561   9.384   7.689   4.786
16226TIP3   OH248562   9.741   7.925   4.968
16226TIP3    H148563   9.781   7.927   5.058
16226TIP3    H248564   9.807   7.977   4.917
16227TIP3   OH248565   9.919   8.075   4.820
16227TIP3    H148566   9.958   8.007   4.762
16227TIP3    H248567   9.999   8.129   4.837
16228TIP3   OH248568   8.975   7.929   4.857
16228TIP3    H148569   8.901   7.981   4.825
16228TIP3    H248570   8.992   7.969   4.944
16229TIP3   OH248571   9.211   7.913   4.709
16229TIP3    H148572   9.125   7.924   4.755
16229TIP3    H248573   9.191   7.947   4.620
16230TIP3   OH248574   9.636   7.939   4.500
16230TIP3    H148575   9.560   7.961   4.444
16230TIP3    H248576   9.650   8.023   4.550
16231TIP3   OH248577   9.907   7.894   4.568
16231TIP3    H148578   9.814   7.899   4.541
16231TIP3    H248579   9.947   7.969   4.522
16232TIP3   OH248580   8.878   7.725   4.606
16232TIP3    H148581   8.910   7.696   4.694
16232TIP3    H248582   8.951   7.685   4.552
16233TIP3   OH248583   9.074   7.604   4.459
16233TIP3    H148584   9.091   7.518   4.505
16233TIP3    H248585   9.166   7.639   4.454
16234TIP3   OH248586   9.343   7.694   4.461
16234TIP3    H148587   9.374   7.602   4.448
16234TIP3    H248588   9.392   7.714   4.543
16235TIP3   OH248589   9.920   6.321   4.549
16235TIP3    H148590   9.862   6.261   4.599
16235TIP3    H248591   9.944   6.266   4.473
16236TIP3   OH248592   9.167   6.060   4.560
16236TIP3    H148593   9.074   6.026   4.564
16236TIP3    H248594   9.216   5.975   4.558
16237TIP3   OH248595   8.949   5.926   4.204
16237TIP3    H148596   8.983   5.987   4.136
16237TIP3    H248597   8.925   5.988   4.276
16238TIP3   OH248598   9.607   6.095   4.438
16238TIP3    H148599   9.667   6.144   4.380
16238TIP3    H248600   9.632   6.129   4.525
16239TIP3   OH248601   8.670   7.502   3.989
16239TIP3    H148602   8.585   7.469   3.953
16239TIP3    H248603   8.661   7.596   3.964
16240TIP3   OH248604   9.073   6.092   3.968
16240TIP3    H148605   9.123   6.026   3.916
16240TIP3    H248606   9.147   6.145   4.006
16241TIP3   OH248607   9.586   6.266   4.069
16241TIP3    H148608   9.643   6.217   4.130
16241TIP3    H248609   9.607   6.358   4.095
16242TIP3   OH248610   9.441   7.696   3.570
16242TIP3    H148611   9.531   7.713   3.536
16242TIP3    H248612   9.418   7.619   3.512
16243TIP3   OH248613   9.376   6.343   5.454
16243TIP3    H148614   9.341   6.271   5.509
16243TIP3    H248615   9.470   6.342   5.480
16244TIP3   OH248616   9.626   6.338   5.571
16244TIP3    H148617   9.711   6.309   5.535
16244TIP3    H248618   9.610   6.270   5.640
16245TIP3   OH248619   8.747   7.526   3.625
16245TIP3    H148620   8.750   7.548   3.719
16245TIP3    H248621   8.835   7.483   3.611
16246TIP3   OH248622   0.818   7.899   6.384
16246TIP3    H148623   0.863   7.840   6.447
16246TIP3    H248624   0.855   7.985   6.407
16247TIP3   OH248625   0.819   7.326   6.765
16247TIP3    H148626   0.829   7.234   6.796
16247TIP3    H248627   0.753   7.313   6.695
16248TIP3   OH248628   0.748   7.076   6.385
16248TIP3    H148629   0.811   7.037   6.447
16248TIP3    H248630   0.806   7.107   6.313
16249TIP3   OH248631   1.400   7.336   6.925
16249TIP3    H148632   1.318   7.384   6.904
16249TIP3    H248633   1.415   7.367   7.016
16250TIP3   OH248634   1.113   7.051   6.922
16250TIP3    H148635   1.024   7.063   6.961
16250TIP3    H248636   1.112   7.117   6.852
16251TIP3   OH248637   0.698   7.964   6.112
16251TIP3    H148638   0.614   7.915   6.105
16251TIP3    H248639   0.734   7.931   6.196
16252TIP3   OH248640   1.069   8.065   6.913
16252TIP3    H148641   1.032   7.983   6.875
16252TIP3    H248642   1.042   8.131   6.845
16253TIP3   OH248643   1.269   7.673   6.739
16253TIP3    H148644   1.186   7.724   6.754
16253TIP3    H248645   1.298   7.714   6.655
16254TIP3   OH248646   0.699   7.523   6.121
16254TIP3    H148647   0.642   7.561   6.193
16254TIP3    H248648   0.780   7.502   6.171
16255TIP3   OH248649   0.952   7.605   7.011
16255TIP3    H148650   0.948   7.660   7.091
16255TIP3    H248651   0.860   7.573   7.009
16256TIP3   OH248652   0.587   7.350   5.951
16256TIP3    H148653   0.632   7.419   6.006
16256TIP3    H248654   0.604   7.384   5.860
16257TIP3   OH248655   1.051   6.634   6.008
16257TIP3    H148656   0.969   6.653   6.058
16257TIP3    H248657   1.063   6.715   5.956
16258TIP3   OH248658   0.851   8.000   5.556
16258TIP3    H148659   0.862   8.097   5.548
16258TIP3    H248660   0.943   7.970   5.544
16259TIP3   OH248661   1.306   8.393   6.949
16259TIP3    H148662   1.306   8.298   6.971
16259TIP3    H248663   1.213   8.417   6.969
16260TIP3   OH248664   1.192   7.535   7.215
16260TIP3    H148665   1.099   7.537   7.188
16260TIP3    H248666   1.197   7.445   7.251
16261TIP3   OH248667   0.724   6.879   7.225
16261TIP3    H148668   0.794   6.846   7.286
16261TIP3    H248669   0.647   6.884   7.284
16262TIP3   OH248670   0.989   7.335   7.125
16262TIP3    H148671   0.953   7.313   7.215
16262TIP3    H248672   0.917   7.393   7.095
16263TIP3   OH248673   0.603   7.449   5.696
16263TIP3    H148674   0.584   7.407   5.609
16263TIP3    H248675   0.692   7.486   5.678
16264TIP3   OH248676   0.657   7.291   6.536
16264TIP3    H148677   0.568   7.315   6.504
16264TIP3    H248678   0.669   7.205   6.489
16265TIP3   OH248679   0.806   7.062   6.809
16265TIP3    H148680   0.817   7.056   6.906
16265TIP3    H248681   0.741   6.990   6.794
16266TIP3   OH248682   1.048   7.825   6.742
16266TIP3    H148683   1.065   7.884   6.666
16266TIP3    H248684   0.951   7.835   6.752
16267TIP3   OH248685   0.538   6.910   5.978
16267TIP3    H148686   0.456   6.960   5.991
16267TIP3    H248687   0.603   6.984   5.987
16268TIP3   OH248688   0.687   7.120   6.059
16268TIP3    H148689   0.771   7.147   6.100
16268TIP3    H248690   0.658   7.202   6.015
16269TIP3   OH248691   1.084   7.257   5.916
16269TIP3    H148692   1.023   7.210   5.854
16269TIP3    H248693   1.080   7.345   5.873
16270TIP3   OH248694   1.316   8.114   6.997
16270TIP3    H148695   1.218   8.107   6.991
16270TIP3    H248696   1.340   8.083   6.907
16271TIP3   OH248697   0.784   8.078   5.828
16271TIP3    H148698   0.760   8.018   5.901
16271TIP3    H248699   0.802   8.019   5.753
16272TIP3   OH248700   0.778   7.703   6.629
16272TIP3    H148701   0.716   7.666   6.693
16272TIP3    H248702   0.827   7.624   6.600
16273TIP3   OH248703   0.877   8.281   5.545
16273TIP3    H148704   0.932   8.351   5.505
16273TIP3    H248705   0.789   8.315   5.523
16274TIP3   OH248706   0.697   7.714   5.911
16274TIP3    H148707   0.687   7.659   5.991
16274TIP3    H248708   0.793   7.729   5.914
16275TIP3   OH248709   0.852   7.073   7.072
16275TIP3    H148710   0.848   7.157   7.122
16275TIP3    H248711   0.802   7.014   7.133
16276TIP3   OH248712   0.636   6.853   6.244
16276TIP3    H148713   0.605   6.892   6.161
16276TIP3    H248714   0.649   6.932   6.300
16277TIP3   OH248715   1.237   7.241   7.144
16277TIP3    H148716   1.142   7.267   7.146
16277TIP3    H248717   1.249   7.227   7.050
16278TIP3   OH248718   0.884   7.453   6.528
16278TIP3    H148719   0.796   7.409   6.528
16278TIP3    H248720   0.923   7.411   6.607
16279TIP3   OH248721   0.904   8.362   6.465
16279TIP3    H148722   0.809   8.385   6.455
16279TIP3    H248723   0.941   8.448   6.489
16280TIP3   OH248724   0.843   7.533   5.584
16280TIP3    H148725   0.829   7.484   5.501
16280TIP3    H248726   0.818   7.623   5.553
16281TIP3   OH248727   0.970   7.536   7.462
16281TIP3    H148728   0.953   7.479   7.540
16281TIP3    H248729   1.014   7.610   7.504
16282TIP3   OH248730   0.975   7.801   7.213
16282TIP3    H148731   0.917   7.851   7.155
16282TIP3    H248732   1.064   7.819   7.175
16283TIP3   OH248733   0.853   7.276   7.343
16283TIP3    H148734   0.770   7.256   7.389
16283TIP3    H248735   0.915   7.250   7.415
16284TIP3   OH248736   0.973   7.166   7.556
16284TIP3    H148737   1.032   7.088   7.561
16284TIP3    H248738   1.024   7.225   7.616
16285TIP3   OH248739   1.126   8.612   6.445
16285TIP3    H148740   1.132   8.565   6.531
16285TIP3    H248741   1.115   8.543   6.380
16286TIP3   OH248742   1.110   8.511   6.701
16286TIP3    H148743   1.083   8.422   6.729
16286TIP3    H248744   1.183   8.527   6.762
16287TIP3   OH248745   1.157   8.213   7.284
16287TIP3    H148746   1.114   8.204   7.370
16287TIP3    H248747   1.206   8.297   7.294
16288TIP3   OH248748   0.982   7.719   5.915
16288TIP3    H148749   1.051   7.782   5.887
16288TIP3    H248750   1.025   7.679   5.994
16289TIP3   OH248751   1.111   7.586   6.118
16289TIP3    H148752   1.045   7.543   6.177
16289TIP3    H248753   1.176   7.623   6.181
16290TIP3   OH248754   1.148   7.977   6.537
16290TIP3    H148755   1.212   7.913   6.500
16290TIP3    H248756   1.165   8.056   6.482
16291TIP3   OH248757   0.967   8.260   6.739
16291TIP3    H148758   0.907   8.325   6.780
16291TIP3    H248759   0.945   8.270   6.644
16292TIP3   OH248760   1.046   7.492   5.768
16292TIP3    H148761   0.974   7.495   5.701
16292TIP3    H248762   1.020   7.569   5.823
16293TIP3   OH248763   0.919   7.167   5.721
16293TIP3    H148764   0.881   7.199   5.638
16293TIP3    H248765   0.891   7.073   5.718
16294TIP3   OH248766   0.927   7.441   6.261
16294TIP3    H148767   0.930   7.344   6.253
16294TIP3    H248768   0.916   7.453   6.359
16295TIP3   OH248769   1.219   7.868   7.121
16295TIP3    H148770   1.288   7.799   7.114
16295TIP3    H248771   1.250   7.934   7.056
16296TIP3   OH248772   1.404   7.673   7.133
16296TIP3    H148773   1.327   7.622   7.168
16296TIP3    H248774   1.475   7.608   7.151
16297TIP3   OH248775   0.859   6.902   5.714
16297TIP3    H148776   0.942   6.872   5.757
16297TIP3    H248777   0.797   6.831   5.734
16298TIP3   OH248778   0.936   7.162   6.174
16298TIP3    H148779   0.972   7.071   6.185
16298TIP3    H248780   0.987   7.192   6.096
16299TIP3   OH248781   1.142   7.282   6.665
16299TIP3    H148782   1.172   7.366   6.625
16299TIP3    H248783   1.097   7.321   6.742
16300TIP3   OH248784   1.153   7.463   6.874
16300TIP3    H148785   1.081   7.498   6.931
16300TIP3    H248786   1.189   7.548   6.840
16301TIP3   OH248787   1.618   7.069   7.448
16301TIP3    H148788   1.666   6.999   7.401
16301TIP3    H248789   1.579   7.120   7.374
16302TIP3   OH248790   1.029   6.904   6.212
16302TIP3    H148791   1.099   6.850   6.251
16302TIP3    H248792   0.959   6.836   6.199
16303TIP3   OH248793   1.484   7.205   7.257
16303TIP3    H148794   1.405   7.247   7.298
16303TIP3    H248795   1.439   7.143   7.196
16304TIP3   OH248796   1.107   6.842   5.828
16304TIP3    H148797   1.148   6.769   5.779
16304TIP3    H248798   1.177   6.910   5.827
16305TIP3   OH248799   1.377   6.965   7.124
16305TIP3    H148800   1.282   6.963   7.104
16305TIP3    H248801   1.401   6.870   7.117
16306TIP3   OH248802   0.622   6.854   6.774
16306TIP3    H148803   0.605   6.780   6.834
16306TIP3    H248804   0.689   6.817   6.715
16307TIP3   OH248805   1.106   6.772   6.649
16307TIP3    H148806   1.126   6.804   6.561
16307TIP3    H248807   1.009   6.785   6.654
16308TIP3   OH248808   0.830   6.762   6.611
16308TIP3    H148809   0.822   6.715   6.527
16308TIP3    H248810   0.817   6.686   6.674
16309TIP3   OH248811   0.849   6.695   6.187
16309TIP3    H148812   0.764   6.742   6.206
16309TIP3    H248813   0.833   6.609   6.232
16310TIP3   OH248814   0.823   8.346   5.847
16310TIP3    H148815   0.816   8.249   5.864
16310TIP3    H248816   0.782   8.349   5.760
16311TIP3   OH248817   1.106   6.918   7.558
16311TIP3    H148818   1.123   6.912   7.654
16311TIP3    H248819   1.197   6.928   7.523
16312TIP3   OH248820   1.050   8.476   6.992
16312TIP3    H148821   0.972   8.432   7.031
16312TIP3    H248822   1.054   8.553   7.050
16313TIP3   OH248823   2.312   7.856   5.820
16313TIP3    H148824   2.282   7.947   5.799
16313TIP3    H248825   2.236   7.806   5.787
16314TIP3   OH248826   2.306   7.858   6.205
16314TIP3    H148827   2.343   7.829   6.290
16314TIP3    H248828   2.271   7.775   6.170
16315TIP3   OH248829   1.606   7.749   6.569
16315TIP3    H148830   1.637   7.683   6.633
16315TIP3    H248831   1.684   7.805   6.561
16316TIP3   OH248832   2.553   8.161   5.883
16316TIP3    H148833   2.541   8.089   5.946
16316TIP3    H248834   2.584   8.233   5.940
16317TIP3   OH248835   1.581   8.156   6.290
16317TIP3    H148836   1.575   8.058   6.292
16317TIP3    H248837   1.678   8.167   6.289
16318TIP3   OH248838   1.280   7.355   6.085
16318TIP3    H148839   1.238   7.443   6.095
16318TIP3    H248840   1.213   7.310   6.030
16319TIP3   OH248841   1.348   7.650   6.249
16319TIP3    H148842   1.401   7.574   6.281
16319TIP3    H248843   1.408   7.690   6.185
16320TIP3   OH248844   2.205   8.622   5.900
16320TIP3    H148845   2.249   8.550   5.850
16320TIP3    H248846   2.197   8.583   5.988
16321TIP3   OH248847   2.109   8.082   6.250
16321TIP3    H148848   2.149   8.004   6.208
16321TIP3    H248849   2.192   8.129   6.273
16322TIP3   OH248850   3.121   7.402   6.246
16322TIP3    H148851   3.153   7.485   6.287
16322TIP3    H248852   3.147   7.416   6.153
16323TIP3   OH248853   2.519   7.584   6.281
16323TIP3    H148854   2.565   7.500   6.303
16323TIP3    H248855   2.491   7.566   6.190
16324TIP3   OH248856   1.856   7.243   6.250
16324TIP3    H148857   1.842   7.315   6.185
16324TIP3    H248858   1.812   7.169   6.202
16325TIP3   OH248859   2.554   7.335   5.867
16325TIP3    H148860   2.625   7.318   5.933
16325TIP3    H248861   2.608   7.365   5.793
16326TIP3   OH248862   1.498   7.445   6.347
16326TIP3    H148863   1.582   7.426   6.394
16326TIP3    H248864   1.513   7.392   6.266
16327TIP3   OH248865   1.934   7.642   6.149
16327TIP3    H148866   2.029   7.618   6.161
16327TIP3    H248867   1.897   7.558   6.116
16328TIP3   OH248868   3.198   7.611   6.416
16328TIP3    H148869   3.113   7.656   6.397
16328TIP3    H248870   3.209   7.632   6.509
16329TIP3   OH248871   1.856   7.225   6.681
16329TIP3    H148872   1.795   7.261   6.614
16329TIP3    H248873   1.805   7.242   6.763
16330TIP3   OH248874   2.202   8.077   5.690
16330TIP3    H148875   2.161   8.057   5.605
16330TIP3    H248876   2.157   8.161   5.714
16331TIP3   OH248877   1.962   8.001   6.474
16331TIP3    H148878   1.901   8.069   6.512
16331TIP3    H248879   2.006   8.052   6.403
16332TIP3   OH248880   2.759   7.339   6.044
16332TIP3    H148881   2.760   7.287   6.125
16332TIP3    H248882   2.819   7.413   6.066
16333TIP3   OH248883   1.719   7.336   6.468
16333TIP3    H148884   1.782   7.409   6.491
16333TIP3    H248885   1.770   7.295   6.394
16334TIP3   OH248886   1.790   8.196   6.572
16334TIP3    H148887   1.765   8.284   6.536
16334TIP3    H248888   1.713   8.180   6.630
16335TIP3   OH248889   1.185   7.887   5.811
16335TIP3    H148890   1.146   7.915   5.726
16335TIP3    H248891   1.218   7.972   5.848
16336TIP3   OH248892   2.624   8.402   6.051
16336TIP3    H148893   2.534   8.393   6.090
16336TIP3    H248894   2.615   8.489   6.006
16337TIP3   OH248895   2.915   7.304   6.413
16337TIP3    H148896   2.828   7.332   6.380
16337TIP3    H248897   2.976   7.335   6.342
16338TIP3   OH248898   2.208   6.944   6.392
16338TIP3    H148899   2.200   6.850   6.414
16338TIP3    H248900   2.132   6.981   6.441
16339TIP3   OH248901   2.324   8.448   5.722
16339TIP3    H148902   2.374   8.365   5.703
16339TIP3    H248903   2.386   8.513   5.681
16340TIP3   OH248904   2.468   8.234   5.631
16340TIP3    H148905   2.434   8.152   5.591
16340TIP3    H248906   2.505   8.200   5.716
16341TIP3   OH248907   2.850   8.315   6.393
16341TIP3    H148908   2.839   8.236   6.335
16341TIP3    H248909   2.834   8.389   6.331
16342TIP3   OH248910   2.142   7.709   5.651
16342TIP3    H148911   2.063   7.760   5.626
16342TIP3    H248912   2.191   7.704   5.566
16343TIP3   OH248913   2.100   7.494   5.365
16343TIP3    H148914   2.168   7.543   5.415
16343TIP3    H248915   2.157   7.430   5.318
16344TIP3   OH248916   3.046   7.953   6.240
16344TIP3    H148917   2.962   8.004   6.244
16344TIP3    H248918   3.075   7.974   6.149
16345TIP3   OH248919   2.489   7.791   5.621
16345TIP3    H148920   2.436   7.815   5.701
16345TIP3    H248921   2.573   7.763   5.664
16346TIP3   OH248922   2.724   7.829   6.536
16346TIP3    H148923   2.722   7.912   6.587
16346TIP3    H248924   2.638   7.834   6.490
16347TIP3   OH248925   1.723   7.788   6.041
16347TIP3    H148926   1.682   7.730   5.973
16347TIP3    H248927   1.800   7.735   6.070
16348TIP3   OH248928   1.852   8.200   6.187
16348TIP3    H148929   1.834   8.158   6.102
16348TIP3    H248930   1.942   8.166   6.207
16349TIP3   OH248931   1.853   7.761   6.392
16349TIP3    H148932   1.891   7.736   6.305
16349TIP3    H248933   1.901   7.844   6.413
16350TIP3   OH248934   2.382   8.397   6.170
16350TIP3    H148935   2.371   8.476   6.226
16350TIP3    H248936   2.369   8.323   6.233
16351TIP3   OH248937   1.997   8.316   6.717
16351TIP3    H148938   1.937   8.378   6.764
16351TIP3    H248939   1.931   8.262   6.668
16352TIP3   OH248940   2.327   7.652   5.448
16352TIP3    H148941   2.389   7.708   5.500
16352TIP3    H248942   2.354   7.674   5.356
16353TIP3   OH248943   1.750   7.874   6.817
16353TIP3    H148944   1.756   7.960   6.863
16353TIP3    H248945   1.656   7.853   6.833
16354TIP3   OH248946   2.073   8.328   5.723
16354TIP3    H148947   2.155   8.379   5.738
16354TIP3    H248948   2.013   8.394   5.686
16355TIP3   OH248949   1.792   8.483   6.803
16355TIP3    H148950   1.754   8.483   6.713
16355TIP3    H248951   1.713   8.463   6.859
16356TIP3   OH248952   1.587   7.632   5.846
16356TIP3    H148953   1.521   7.675   5.788
16356TIP3    H248954   1.553   7.542   5.853
16357TIP3   OH248955   2.646   8.256   5.045
16357TIP3    H148956   2.655   8.353   5.031
16357TIP3    H248957   2.738   8.226   5.032
16358TIP3   OH248958   1.371   8.014   6.751
16358TIP3    H148959   1.307   7.986   6.684
16358TIP3    H248960   1.411   7.929   6.782
16359TIP3   OH248961   1.236   8.207   6.393
16359TIP3    H148962   1.326   8.187   6.362
16359TIP3    H248963   1.255   8.281   6.454
16360TIP3   OH248964   3.087   8.659   6.438
16360TIP3    H148965   3.087   8.563   6.453
16360TIP3    H248966   3.004   8.684   6.485
16361TIP3   OH248967   2.193   8.446   6.574
16361TIP3    H148968   2.192   8.538   6.607
16361TIP3    H248969   2.122   8.405   6.629
16362TIP3   OH248970   1.955   8.574   5.526
16362TIP3    H148971   1.908   8.556   5.443
16362TIP3    H248972   1.921   8.662   5.552
16363TIP3   OH248973   1.392   8.423   5.911
16363TIP3    H148974   1.446   8.412   5.993
16363TIP3    H248975   1.338   8.343   5.914
16364TIP3   OH248976   2.156   8.475   5.166
16364TIP3    H148977   2.215   8.405   5.130
16364TIP3    H248978   2.190   8.484   5.257
16365TIP3   OH248979   2.207   8.523   5.435
16365TIP3    H148980   2.119   8.533   5.478
16365TIP3    H248981   2.258   8.482   5.507
16366TIP3   OH248982   2.977   7.790   6.714
16366TIP3    H148983   2.896   7.800   6.662
16366TIP3    H248984   2.995   7.694   6.705
16367TIP3   OH248985   1.575   8.198   6.739
16367TIP3    H148986   1.625   8.183   6.821
16367TIP3    H248987   1.501   8.134   6.747
16368TIP3   OH248988   1.969   7.019   6.525
16368TIP3    H148989   1.879   6.993   6.497
16368TIP3    H248990   1.948   7.102   6.573
16369TIP3   OH248991   2.509   7.136   6.719
16369TIP3    H148992   2.580   7.107   6.781
16369TIP3    H248993   2.427   7.114   6.768
16370TIP3   OH248994   2.745   7.564   6.636
16370TIP3    H148995   2.696   7.561   6.722
16370TIP3    H248996   2.722   7.653   6.602
16371TIP3   OH248997   2.403   7.699   5.192
16371TIP3    H148998   2.373   7.670   5.105
16371TIP3    H248999   2.489   7.739   5.169
16372TIP3   OH249000   2.115   7.073   5.495
16372TIP3    H149001   2.085   7.068   5.588
16372TIP3    H249002   2.081   6.988   5.462
16373TIP3   OH249003   1.898   7.535   6.540
16373TIP3    H149004   1.855   7.559   6.624
16373TIP3    H249005   1.885   7.617   6.487
16374TIP3   OH249006   1.789   7.423   6.057
16374TIP3    H149007   1.696   7.395   6.073
16374TIP3    H249008   1.804   7.382   5.968
16375TIP3   OH249009   2.279   7.508   5.785
16375TIP3    H149010   2.228   7.579   5.740
16375TIP3    H249011   2.336   7.475   5.712
16376TIP3   OH249012   2.454   7.787   6.871
16376TIP3    H149013   2.432   7.713   6.932
16376TIP3    H249014   2.549   7.800   6.892
16377TIP3   OH249015   2.436   7.536   6.023
16377TIP3    H149016   2.376   7.562   5.950
16377TIP3    H249017   2.473   7.455   5.981
16378TIP3   OH249018   1.719   7.566   6.754
16378TIP3    H149019   1.757   7.627   6.818
16378TIP3    H249020   1.714   7.483   6.805
16379TIP3   OH249021   1.772   7.042   5.461
16379TIP3    H149022   1.767   7.040   5.558
16379TIP3    H249023   1.694   7.095   5.438
16380TIP3   OH249024   1.289   7.071   5.852
16380TIP3    H149025   1.335   7.106   5.772
16380TIP3    H249026   1.228   7.145   5.870
16381TIP3   OH249027   2.444   7.783   6.445
16381TIP3    H149028   2.478   7.711   6.387
16381TIP3    H249029   2.417   7.730   6.523
16382TIP3   OH249030   2.116   7.249   6.119
16382TIP3    H149031   2.038   7.244   6.177
16382TIP3    H249032   2.190   7.238   6.181
16383TIP3   OH249033   1.549   7.299   6.123
16383TIP3    H149034   1.454   7.299   6.097
16383TIP3    H249035   1.578   7.208   6.103
16384TIP3   OH249036   1.818   7.297   5.815
16384TIP3    H149037   1.913   7.310   5.798
16384TIP3    H249038   1.775   7.320   5.730
16385TIP3   OH249039   2.610   7.324   6.324
16385TIP3    H149040   2.573   7.333   6.414
16385TIP3    H249041   2.547   7.261   6.284
16386TIP3   OH249042   1.660   7.333   5.591
16386TIP3    H149043   1.591   7.286   5.541
16386TIP3    H249044   1.714   7.369   5.518
16387TIP3   OH249045   2.779   9.010   6.539
16387TIP3    H149046   2.779   9.032   6.445
16387TIP3    H249047   2.860   9.056   6.570
16388TIP3   OH249048   1.735   8.121   6.960
16388TIP3    H149049   1.816   8.150   7.007
16388TIP3    H249050   1.673   8.118   7.035
16389TIP3   OH249051   2.199   7.574   6.214
16389TIP3    H149052   2.272   7.535   6.163
16389TIP3    H249053   2.209   7.530   6.300
16390TIP3   OH249054   1.720   7.062   6.094
16390TIP3    H149055   1.688   6.983   6.141
16390TIP3    H249056   1.775   7.024   6.024
16391TIP3   OH249057   2.175   7.470   6.506
16391TIP3    H149058   2.086   7.508   6.520
16391TIP3    H249059   2.234   7.530   6.556
16392TIP3   OH249060   1.910   7.862   5.597
16392TIP3    H149061   1.839   7.795   5.588
16392TIP3    H249062   1.894   7.894   5.689
16393TIP3   OH249063   2.812   8.098   6.229
16393TIP3    H149064   2.837   8.147   6.147
16393TIP3    H249065   2.728   8.055   6.203
16394TIP3   OH249066   2.369   7.175   5.459
16394TIP3    H149067   2.273   7.158   5.472
16394TIP3    H249068   2.381   7.267   5.489
16395TIP3   OH249069   2.311   8.178   6.597
16395TIP3    H149070   2.339   8.157   6.687
16395TIP3    H249071   2.273   8.267   6.606
16396TIP3   OH249072   2.440   7.420   5.566
16396TIP3    H149073   2.537   7.422   5.583
16396TIP3    H249074   2.427   7.500   5.512
16397TIP3   OH249075   1.601   7.877   6.275
16397TIP3    H149076   1.642   7.853   6.190
16397TIP3    H249077   1.654   7.823   6.337
16398TIP3   OH249078   2.057   8.010   5.419
16398TIP3    H149079   2.009   8.096   5.426
16398TIP3    H249080   2.004   7.954   5.480
16399TIP3   OH249081   1.485   7.806   6.891
16399TIP3    H149082   1.507   7.792   6.985
16399TIP3    H249083   1.423   7.733   6.874
16400TIP3   OH249084   2.213   7.918   6.908
16400TIP3    H149085   2.155   7.858   6.859
16400TIP3    H249086   2.301   7.884   6.882
16401TIP3   OH249087   2.471   8.442   6.491
16401TIP3    H149088   2.375   8.438   6.505
16401TIP3    H249089   2.500   8.491   6.571
16402TIP3   OH249090   2.884   7.507   5.400
16402TIP3    H149091   2.820   7.460   5.342
16402TIP3    H249092   2.879   7.595   5.358
16403TIP3   OH249093   3.101   8.370   6.481
16403TIP3    H149094   3.003   8.363   6.474
16403TIP3    H249095   3.126   8.339   6.392
16404TIP3   OH249096   2.581   8.330   5.310
16404TIP3    H149097   2.559   8.260   5.373
16404TIP3    H249098   2.595   8.281   5.227
16405TIP3   OH249099   2.578   7.959   6.146
16405TIP3    H149100   2.485   7.934   6.159
16405TIP3    H249101   2.613   7.879   6.103
16406TIP3   OH249102   1.706   8.186   5.900
16406TIP3    H149103   1.707   8.268   5.846
16406TIP3    H249104   1.612   8.174   5.914
16407TIP3   OH249105   1.269   7.491   5.604
16407TIP3    H149106   1.316   7.574   5.625
16407TIP3    H249107   1.193   7.496   5.666
16408TIP3   OH249108   1.842   7.951   5.843
16408TIP3    H149109   1.808   8.040   5.862
16408TIP3    H249110   1.809   7.901   5.920
16409TIP3   OH249111   1.976   8.530   6.370
16409TIP3    H149112   2.018   8.603   6.321
16409TIP3    H249113   2.051   8.494   6.419
16410TIP3   OH249114   1.624   8.426   5.752
16410TIP3    H149115   1.539   8.435   5.799
16410TIP3    H249116   1.657   8.519   5.756
16411TIP3   OH249117   2.363   8.166   6.328
16411TIP3    H149118   2.353   8.163   6.426
16411TIP3    H249119   2.442   8.111   6.316
16412TIP3   OH249120   2.339   8.060   5.212
16412TIP3    H149121   2.394   8.035   5.290
16412TIP3    H249122   2.252   8.029   5.242
16413TIP3   OH249123   2.611   8.698   6.381
16413TIP3    H149124   2.533   8.640   6.375
16413TIP3    H249125   2.594   8.761   6.307
16414TIP3   OH249126   2.678   8.533   5.030
16414TIP3    H149127   2.719   8.609   4.986
16414TIP3    H249128   2.596   8.576   5.063
16415TIP3   OH249129   1.697   7.306   6.896
16415TIP3    H149130   1.602   7.315   6.920
16415TIP3    H249131   1.731   7.254   6.971
16416TIP3   OH249132   2.499   7.993   5.428
16416TIP3    H149133   2.488   7.925   5.498
16416TIP3    H249134   2.596   7.989   5.416
16417TIP3   OH249135   1.406   8.384   6.534
16417TIP3    H149136   1.469   8.320   6.571
16417TIP3    H249137   1.433   8.465   6.579
16418TIP3   OH249138   1.702   8.038   5.212
16418TIP3    H149139   1.718   7.946   5.184
16418TIP3    H249140   1.684   8.027   5.307
16419TIP3   OH249141   1.647   8.043   5.484
16419TIP3    H149142   1.722   8.014   5.540
16419TIP3    H249143   1.653   8.141   5.492
16420TIP3   OH249144   1.383   7.735   5.687
16420TIP3    H149145   1.318   7.781   5.744
16420TIP3    H249146   1.400   7.804   5.620
16421TIP3   OH249147   2.531   7.375   6.583
16421TIP3    H149148   2.615   7.410   6.616
16421TIP3    H249149   2.520   7.293   6.636
16422TIP3   OH249150   2.402   7.131   5.746
16422TIP3    H149151   2.403   7.149   5.650
16422TIP3    H249152   2.453   7.206   5.781
16423TIP3   OH249153   1.914   8.240   5.431
16423TIP3    H149154   1.827   8.266   5.468
16423TIP3    H249155   1.931   8.315   5.373
16424TIP3   OH249156   2.097   7.306   5.847
16424TIP3    H149157   2.166   7.374   5.828
16424TIP3    H249158   2.107   7.296   5.944
16425TIP3   OH249159   2.373   7.621   6.653
16425TIP3    H149160   2.397   7.672   6.733
16425TIP3    H249161   2.428   7.541   6.662
16426TIP3   OH249162   2.246   7.027   5.947
16426TIP3    H149163   2.250   7.100   6.012
16426TIP3    H249164   2.305   7.064   5.876
16427TIP3   OH249165   1.658   8.316   5.500
16427TIP3    H149166   1.628   8.386   5.438
16427TIP3    H249167   1.643   8.359   5.587
16428TIP3   OH249168   1.759   7.030   5.737
16428TIP3    H149169   1.758   7.120   5.775
16428TIP3    H249170   1.855   7.010   5.746
16429TIP3   OH249171   3.013   7.524   6.633
16429TIP3    H149172   2.915   7.522   6.641
16429TIP3    H249173   3.023   7.475   6.550
16430TIP3   OH249174   2.663   7.718   6.023
16430TIP3    H149175   2.589   7.655   6.033
16430TIP3    H249176   2.736   7.671   6.070
16431TIP3   OH249177   1.376   7.945   5.491
16431TIP3    H149178   1.445   8.013   5.502
16431TIP3    H249179   1.421   7.888   5.425
16432TIP3   OH249180   1.319   7.221   5.627
16432TIP3    H149181   1.320   7.319   5.622
16432TIP3    H249182   1.241   7.198   5.576
16433TIP3   OH249183   2.632   8.675   5.972
16433TIP3    H149184   2.590   8.721   5.896
16433TIP3    H249185   2.726   8.693   5.952
16434TIP3   OH249186   1.693   6.948   6.502
16434TIP3    H149187   1.673   6.910   6.413
16434TIP3    H249188   1.693   6.867   6.558
16435TIP3   OH249189   1.246   8.159   5.881
16435TIP3    H149190   1.175   8.191   5.938
16435TIP3    H249191   1.221   8.200   5.795
16436TIP3   OH249192   1.404   8.697   6.955
16436TIP3    H149193   1.492   8.703   6.999
16436TIP3    H249194   1.394   8.601   6.948
16437TIP3   OH249195   1.882   8.665   6.996
16437TIP3    H149196   1.978   8.652   7.005
16437TIP3    H249197   1.861   8.605   6.922
16438TIP3   OH249198   1.866   8.241   5.122
16438TIP3    H149199   1.810   8.170   5.162
16438TIP3    H249200   1.942   8.188   5.093
16439TIP3   OH249201   2.526   8.571   6.728
16439TIP3    H149202   2.516   8.502   6.797
16439TIP3    H249203   2.602   8.622   6.760
16440TIP3   OH249204   2.303   8.281   5.036
16440TIP3    H149205   2.343   8.215   5.097
16440TIP3    H249206   2.364   8.277   4.960
16441TIP3   OH249207   1.539   8.108   7.156
16441TIP3    H149208   1.557   8.012   7.161
16441TIP3    H249209   1.454   8.109   7.107
16442TIP3   OH249210   1.512   7.758   5.346
16442TIP3    H149211   1.568   7.724   5.419
16442TIP3    H249212   1.579   7.762   5.274
16443TIP3   OH249213   2.142   8.193   6.925
16443TIP3    H149214   2.102   8.210   6.838
16443TIP3    H249215   2.174   8.101   6.917
16444TIP3   OH249216   2.020   7.957   5.151
16444TIP3    H149217   2.025   7.969   5.248
16444TIP3    H249218   2.023   7.858   5.146
16445TIP3   OH249219   2.634   8.203   6.531
16445TIP3    H149220   2.710   8.246   6.487
16445TIP3    H249221   2.564   8.269   6.516
16446TIP3   OH249222   1.657   7.846   7.132
16446TIP3    H149223   1.729   7.784   7.113
16446TIP3    H249224   1.682   7.876   7.222
16447TIP3   OH249225   1.717   7.663   5.565
16447TIP3    H149226   1.695   7.620   5.649
16447TIP3    H249227   1.756   7.588   5.514
16448TIP3   OH249228   1.984   7.722   6.790
16448TIP3    H149229   1.911   7.787   6.795
16448TIP3    H249230   2.038   7.759   6.716
16449TIP3   OH249231   1.821   7.457   5.407
16449TIP3    H149232   1.797   7.460   5.313
16449TIP3    H249233   1.919   7.460   5.401
16450TIP3   OH249234   2.506   8.128   6.928
16450TIP3    H149235   2.587   8.102   6.881
16450TIP3    H249236   2.502   8.063   7.000
16451TIP3   OH249237   2.639   7.788   5.071
16451TIP3    H149238   2.620   7.740   4.988
16451TIP3    H249239   2.606   7.877   5.046
16452TIP3   OH249240   2.110   7.515   6.922
16452TIP3    H149241   2.114   7.435   6.866
16452TIP3    H249242   2.068   7.580   6.862
16453TIP3   OH249243   2.114   7.302   6.729
16453TIP3    H149244   2.144   7.342   6.645
16453TIP3    H249245   2.021   7.279   6.709
16454TIP3   OH249246   2.140   7.835   6.602
16454TIP3    H149247   2.225   7.842   6.558
16454TIP3    H249248   2.086   7.903   6.556
16455TIP3   OH249249   2.724   7.803   6.982
16455TIP3    H149250   2.769   7.718   6.994
16455TIP3    H249251   2.794   7.859   6.947
16456TIP3   OH249252   2.765   8.057   6.719
16456TIP3    H149253   2.707   8.111   6.659
16456TIP3    H249254   2.853   8.077   6.679
16457TIP3   OH249255   1.989   7.627   7.151
16457TIP3    H149256   1.921   7.558   7.167
16457TIP3    H249257   2.025   7.598   7.065
16458TIP3   OH249258   2.248   7.065   6.795
16458TIP3    H149259   2.198   7.146   6.774
16458TIP3    H249260   2.180   6.996   6.785
16459TIP3   OH249261   2.372   7.570   7.012
16459TIP3    H149262   2.363   7.555   7.108
16459TIP3    H249263   2.282   7.544   6.983
16460TIP3   OH249264   2.613   7.521   6.868
16460TIP3    H149265   2.538   7.519   6.930
16460TIP3    H249266   2.687   7.488   6.923
16461TIP3   OH249267   2.840   7.460   7.017
16461TIP3    H149268   2.854   7.364   7.033
16461TIP3    H249269   2.838   7.496   7.108
16462TIP3   OH249270   1.830   7.405   7.205
16462TIP3    H149271   1.837   7.313   7.173
16462TIP3    H249272   1.866   7.395   7.295
16463TIP3   OH249273   2.336   7.076   7.056
16463TIP3    H149274   2.409   7.010   7.053
16463TIP3    H249275   2.301   7.067   6.966
16464TIP3   OH249276   2.407   7.290   7.213
16464TIP3    H149277   2.385   7.218   7.150
16464TIP3    H249278   2.328   7.348   7.205
16465TIP3   OH249279   1.628   8.519   5.311
16465TIP3    H149280   1.724   8.512   5.292
16465TIP3    H249281   1.599   8.569   5.233
16466TIP3   OH249282   1.108   7.900   5.528
16466TIP3    H149283   1.202   7.923   5.514
16466TIP3    H249284   1.105   7.810   5.488
16467TIP3   OH249285   1.030   8.509   5.936
16467TIP3    H149286   0.960   8.450   5.899
16467TIP3    H249287   1.069   8.452   6.006
16468TIP3   OH249288   1.153   8.360   6.130
16468TIP3    H149289   1.146   8.292   6.199
16468TIP3    H249290   1.218   8.421   6.172
16469TIP3   OH249291   2.884   8.769   5.929
16469TIP3    H149292   2.914   8.796   6.017
16469TIP3    H249293   2.953   8.805   5.872
16470TIP3   OH249294   2.916   8.784   6.211
16470TIP3    H149295   2.870   8.697   6.207
16470TIP3    H249296   2.990   8.760   6.269
16471TIP3   OH249297   2.960   8.461   6.783
16471TIP3    H149298   2.888   8.469   6.849
16471TIP3    H249299   3.002   8.549   6.789
16472TIP3   OH249300   2.777   7.975   5.404
16472TIP3    H149301   2.847   8.037   5.375
16472TIP3    H249302   2.819   7.935   5.484
16473TIP3   OH249303   2.903   7.844   5.608
16473TIP3    H149304   2.839   7.799   5.668
16473TIP3    H249305   2.971   7.877   5.671
16474TIP3   OH249306   2.959   8.233   6.038
16474TIP3    H149307   3.014   8.166   5.992
16474TIP3    H249308   2.953   8.304   5.972
16475TIP3   OH249309   2.791   8.535   6.233
16475TIP3    H149310   2.719   8.573   6.287
16475TIP3    H249311   2.741   8.486   6.164
16476TIP3   OH249312   2.842   7.750   5.253
16476TIP3    H149313   2.769   7.751   5.188
16476TIP3    H249314   2.815   7.824   5.310
16477TIP3   OH249315   2.706   7.422   5.210
16477TIP3    H149316   2.669   7.446   5.124
16477TIP3    H249317   2.693   7.325   5.208
16478TIP3   OH249318   2.717   7.697   5.752
16478TIP3    H149319   2.727   7.601   5.743
16478TIP3    H249320   2.705   7.708   5.849
16479TIP3   OH249321   1.344   7.782   6.497
16479TIP3    H149322   1.344   7.748   6.405
16479TIP3    H249323   1.441   7.780   6.516
16480TIP3   OH249324   3.009   8.123   6.611
16480TIP3    H149325   3.080   8.055   6.602
16480TIP3    H249326   3.037   8.190   6.547
16481TIP3   OH249327   3.193   7.927   6.627
16481TIP3    H149328   3.118   7.876   6.665
16481TIP3    H249329   3.266   7.863   6.642
16482TIP3   OH249330   2.672   7.152   5.199
16482TIP3    H149331   2.745   7.111   5.250
16482TIP3    H249332   2.597   7.099   5.230
16483TIP3   OH249333   2.714   7.418   5.645
16483TIP3    H149334   2.750   7.328   5.666
16483TIP3    H249335   2.776   7.443   5.575
16484TIP3   OH249336   2.876   7.590   6.143
16484TIP3    H149337   2.962   7.614   6.102
16484TIP3    H249338   2.892   7.624   6.233
16485TIP3   OH249339   2.947   7.732   6.376
16485TIP3    H149340   2.869   7.766   6.424
16485TIP3    H249341   2.979   7.813   6.331
16486TIP3   OH249342   1.564   7.455   7.166
16486TIP3    H149343   1.662   7.451   7.176
16486TIP3    H249344   1.539   7.373   7.213
16487TIP3   OH249345   3.397   7.323   6.931
16487TIP3    H149346   3.457   7.257   6.890
16487TIP3    H249347   3.370   7.377   6.853
16488TIP3   OH249348   2.807   7.172   5.700
16488TIP3    H149349   2.866   7.147   5.774
16488TIP3    H249350   2.765   7.086   5.680
16489TIP3   OH249351   1.497   7.154   6.536
16489TIP3    H149352   1.551   7.071   6.530
16489TIP3    H249353   1.568   7.217   6.510
16490TIP3   OH249354   1.346   7.413   6.566
16490TIP3    H149355   1.395   7.442   6.484
16490TIP3    H249356   1.353   7.492   6.623
16491TIP3   OH249357   3.268   7.462   6.734
16491TIP3    H149358   3.181   7.501   6.754
16491TIP3    H249359   3.240   7.388   6.678
16492TIP3   OH249360   1.303   6.910   6.065
16492TIP3    H149361   1.213   6.925   6.095
16492TIP3    H249362   1.313   6.979   5.996
16493TIP3   OH249363   2.468   8.632   5.584
16493TIP3    H149364   2.521   8.617   5.504
16493TIP3    H249365   2.524   8.694   5.634
16494TIP3   OH249366   1.533   7.012   6.897
16494TIP3    H149367   1.485   6.989   6.979
16494TIP3    H249368   1.487   7.092   6.870
16495TIP3   OH249369   1.576   8.436   6.970
16495TIP3    H149370   1.484   8.407   6.954
16495TIP3    H249371   1.587   8.416   7.064
16496TIP3   OH249372   1.747   8.466   6.516
16496TIP3    H149373   1.702   8.544   6.479
16496TIP3    H249374   1.834   8.479   6.474
16497TIP3   OH249375   2.192   8.712   6.655
16497TIP3    H149376   2.234   8.711   6.744
16497TIP3    H249377   2.259   8.763   6.605
16498TIP3   OH249378   2.372   8.864   6.514
16498TIP3    H149379   2.443   8.811   6.475
16498TIP3    H249380   2.424   8.920   6.576
16499TIP3   OH249381   3.167   7.222   6.616
16499TIP3    H149382   3.076   7.211   6.584
16499TIP3    H249383   3.201   7.131   6.606
16500TIP3   OH249384   1.422   8.716   6.542
16500TIP3    H149385   1.334   8.746   6.511
16500TIP3    H249386   1.430   8.770   6.622
16501TIP3   OH249387   1.661   8.702   6.400
16501TIP3    H149388   1.575   8.714   6.446
16501TIP3    H249389   1.641   8.736   6.311
16502TIP3   OH249390   2.087   8.732   6.198
16502TIP3    H149391   2.017   8.751   6.133
16502TIP3    H249392   2.099   8.819   6.241
16503TIP3   OH249393   2.356   8.671   6.250
16503TIP3    H149394   2.261   8.687   6.230
16503TIP3    H249395   2.398   8.747   6.207
16504TIP3   OH249396   2.564   8.863   6.164
16504TIP3    H149397   2.550   8.947   6.115
16504TIP3    H249398   2.590   8.802   6.093
16505TIP3   OH249399   1.343   8.506   6.266
16505TIP3    H149400   1.362   8.501   6.361
16505TIP3    H249401   1.423   8.461   6.229
16506TIP3   OH249402   1.544   8.377   6.133
16506TIP3    H149403   1.559   8.295   6.185
16506TIP3    H249404   1.633   8.417   6.132
16507TIP3   OH249405   1.802   8.483   6.148
16507TIP3    H149406   1.835   8.392   6.138
16507TIP3    H249407   1.845   8.506   6.232
16508TIP3   OH249408   2.364   7.137   6.225
16508TIP3    H149409   2.328   7.067   6.282
16508TIP3    H249410   2.444   7.095   6.188
16509TIP3   OH249411   2.893   7.021   6.140
16509TIP3    H149412   2.932   7.071   6.064
16509TIP3    H249413   2.798   7.042   6.131
16510TIP3   OH249414   2.992   7.119   5.905
16510TIP3    H149415   3.064   7.070   5.862
16510TIP3    H249416   3.021   7.212   5.889
16511TIP3   OH249417   1.621   6.849   6.251
16511TIP3    H149418   1.527   6.821   6.253
16511TIP3    H249419   1.666   6.762   6.247
16512TIP3   OH249420   1.407   6.716   5.898
16512TIP3    H149421   1.439   6.774   5.827
16512TIP3    H249422   1.377   6.781   5.965
16513TIP3   OH249423   2.063   6.883   6.134
16513TIP3    H149424   2.120   6.929   6.070
16513TIP3    H249425   2.097   6.916   6.218
16514TIP3   OH249426   2.605   7.029   6.117
16514TIP3    H149427   2.613   6.993   6.027
16514TIP3    H249428   2.594   6.947   6.170
16515TIP3   OH249429   2.648   6.947   5.697
16515TIP3    H149430   2.559   6.981   5.681
16515TIP3    H249431   2.630   6.857   5.730
16516TIP3   OH249432   1.125   8.288   5.678
16516TIP3    H149433   1.037   8.259   5.647
16516TIP3    H249434   1.118   8.384   5.662
16517TIP3   OH249435   1.525   6.878   5.661
16517TIP3    H149436   1.573   6.814   5.605
16517TIP3    H249437   1.599   6.931   5.697
16518TIP3   OH249438   2.036   7.054   5.761
16518TIP3    H149439   2.099   7.008   5.820
16518TIP3    H249440   2.058   7.147   5.786
16519TIP3   OH249441   1.896   8.477   5.259
16519TIP3    H149442   1.985   8.498   5.224
16519TIP3    H249443   1.874   8.401   5.200
16520TIP3   OH249444   2.616   8.596   5.353
16520TIP3    H149445   2.607   8.499   5.342
16520TIP3    H249446   2.570   8.627   5.272
16521TIP3   OH249447   1.830   7.130   7.137
16521TIP3    H149448   1.792   7.063   7.196
16521TIP3    H249449   1.923   7.129   7.166
16522TIP3   OH249450   2.077   7.126   7.259
16522TIP3    H149451   2.162   7.102   7.219
16522TIP3    H249452   2.066   7.054   7.325
16523TIP3   OH249453   1.200   8.312   5.317
16523TIP3    H149454   1.204   8.340   5.410
16523TIP3    H249455   1.288   8.271   5.303
16524TIP3   OH249456   2.902   7.190   7.048
16524TIP3    H149457   2.919   7.156   7.138
16524TIP3    H249458   2.990   7.182   7.006
16525TIP3   OH249459   2.841   8.741   6.540
16525TIP3    H149460   2.762   8.709   6.493
16525TIP3    H249461   2.820   8.836   6.546
16526TIP3   OH249462   4.106   8.119   5.687
16526TIP3    H149463   4.134   8.078   5.770
16526TIP3    H249464   4.067   8.045   5.639
16527TIP3   OH249465   3.404   8.008   6.055
16527TIP3    H149466   3.435   7.939   6.117
16527TIP3    H249467   3.487   8.057   6.041
16528TIP3   OH249468   4.360   8.425   5.358
16528TIP3    H149469   4.323   8.342   5.392
16528TIP3    H249470   4.379   8.476   5.439
16529TIP3   OH249471   3.377   8.418   5.778
16529TIP3    H149472   3.369   8.320   5.779
16529TIP3    H249473   3.474   8.427   5.770
16530TIP3   OH249474   3.085   7.626   5.562
16530TIP3    H149475   3.027   7.703   5.574
16530TIP3    H249476   3.023   7.562   5.524
16531TIP3   OH249477   3.142   7.908   5.736
16531TIP3    H149478   3.189   7.829   5.772
16531TIP3    H249479   3.201   7.934   5.664
16532TIP3   OH249480   4.004   8.879   5.388
16532TIP3    H149481   4.044   8.807   5.335
16532TIP3    H249482   3.992   8.834   5.473
16533TIP3   OH249483   3.904   8.341   5.737
16533TIP3    H149484   3.940   8.264   5.691
16533TIP3    H249485   3.988   8.385   5.760
16534TIP3   OH249486   4.920   7.659   5.735
16534TIP3    H149487   4.949   7.742   5.779
16534TIP3    H249488   4.934   7.683   5.642
16535TIP3   OH249489   4.315   7.840   5.770
16535TIP3    H149490   4.358   7.754   5.788
16535TIP3    H249491   4.288   7.827   5.677
16536TIP3   OH249492   3.657   7.501   5.733
16536TIP3    H149493   3.635   7.572   5.670
16536TIP3    H249494   3.610   7.426   5.690
16537TIP3   OH249495   4.349   7.589   5.358
16537TIP3    H149496   4.422   7.575   5.423
16537TIP3    H249497   4.399   7.627   5.284
16538TIP3   OH249498   3.289   7.701   5.840
16538TIP3    H149499   3.372   7.680   5.887
16538TIP3    H249500   3.300   7.644   5.761
16539TIP3   OH249501   3.729   7.899   5.638
16539TIP3    H149502   3.823   7.874   5.649
16539TIP3    H249503   3.690   7.815   5.604
16540TIP3   OH249504   4.993   7.868   5.902
16540TIP3    H149505   4.908   7.914   5.884
16540TIP3    H249506   5.003   7.887   5.997
16541TIP3   OH249507   3.653   7.483   6.167
16541TIP3    H149508   3.592   7.518   6.100
16541TIP3    H249509   3.601   7.499   6.249
16542TIP3   OH249510   3.760   8.258   5.962
16542TIP3    H149511   3.698   8.325   5.999
16542TIP3    H249512   3.802   8.308   5.888
16543TIP3   OH249513   4.561   7.592   5.529
16543TIP3    H149514   4.542   7.550   5.614
16543TIP3    H249515   4.610   7.672   5.557
16544TIP3   OH249516   3.524   7.598   5.951
16544TIP3    H149517   3.587   7.670   5.975
16544TIP3    H249518   3.572   7.557   5.876
16545TIP3   OH249519   3.587   8.453   6.061
16545TIP3    H149520   3.561   8.538   6.023
16545TIP3    H249521   3.509   8.435   6.117
16546TIP3   OH249522   2.981   8.143   5.297
16546TIP3    H149523   2.941   8.171   5.213
16546TIP3    H249524   3.014   8.227   5.334
16547TIP3   OH249525   4.423   8.662   5.546
16547TIP3    H149526   4.332   8.651   5.581
16547TIP3    H249527   4.412   8.744   5.494
16548TIP3   OH249528   4.712   7.560   5.901
16548TIP3    H149529   4.623   7.587   5.869
16548TIP3    H249530   4.770   7.591   5.828
16549TIP3   OH249531   4.009   7.200   5.884
16549TIP3    H149532   3.996   7.105   5.906
16549TIP3    H249533   3.930   7.238   5.930
16550TIP3   OH249534   4.119   8.705   5.209
16550TIP3    H149535   4.167   8.620   5.192
16550TIP3    H249536   4.182   8.767   5.168
16551TIP3   OH249537   4.253   8.485   5.116
16551TIP3    H149538   4.213   8.399   5.094
16551TIP3    H249539   4.306   8.460   5.196
16552TIP3   OH249540   4.648   8.571   5.880
16552TIP3    H149541   4.635   8.492   5.822
16552TIP3    H249542   4.630   8.645   5.817
16553TIP3   OH249543   3.916   7.930   5.100
16553TIP3    H149544   3.846   7.998   5.103
16553TIP3    H249545   3.996   7.986   5.108
16554TIP3   OH249546   3.886   7.754   4.847
16554TIP3    H149547   3.924   7.801   4.924
16554TIP3    H249548   3.962   7.702   4.815
16555TIP3   OH249549   4.842   8.210   5.726
16555TIP3    H149550   4.758   8.260   5.731
16555TIP3    H249551   4.871   8.233   5.635
16556TIP3   OH249552   4.522   8.086   6.021
16556TIP3    H149553   4.517   8.170   6.070
16556TIP3    H249554   4.435   8.087   5.976
16557TIP3   OH249555   3.517   8.044   5.528
16557TIP3    H149556   3.476   7.986   5.461
16557TIP3    H249557   3.593   7.991   5.558
16558TIP3   OH249558   3.647   8.458   5.675
16558TIP3    H149559   3.626   8.419   5.588
16558TIP3    H249560   3.737   8.422   5.692
16559TIP3   OH249561   3.651   8.016   5.883
16559TIP3    H149562   3.684   7.991   5.794
16559TIP3    H249563   3.697   8.101   5.899
16560TIP3   OH249564   4.178   8.655   5.658
16560TIP3    H149565   4.167   8.732   5.716
16560TIP3    H249566   4.165   8.579   5.719
16561TIP3   OH249567   3.792   8.573   6.204
16561TIP3    H149568   3.732   8.635   6.251
16561TIP3    H249569   3.727   8.519   6.155
16562TIP3   OH249570   4.170   7.896   4.938
16562TIP3    H149571   4.176   7.974   5.000
16562TIP3    H249572   4.173   7.941   4.852
16563TIP3   OH249573   3.548   8.129   6.307
16563TIP3    H149574   3.551   8.216   6.352
16563TIP3    H249575   3.453   8.109   6.315
16564TIP3   OH249576   3.843   8.617   5.221
16564TIP3    H149577   3.938   8.635   5.223
16564TIP3    H249578   3.807   8.688   5.167
16565TIP3   OH249579   3.586   8.741   6.292
16565TIP3    H149580   3.551   8.739   6.200
16565TIP3    H249581   3.506   8.720   6.345
16566TIP3   OH249582   4.640   7.145   4.982
16566TIP3    H149583   4.559   7.163   5.036
16566TIP3    H249584   4.652   7.231   4.938
16567TIP3   OH249585   3.384   7.888   5.332
16567TIP3    H149586   3.316   7.928   5.274
16567TIP3    H249587   3.349   7.799   5.345
16568TIP3   OH249588   4.440   8.512   4.529
16568TIP3    H149589   4.449   8.609   4.518
16568TIP3    H249590   4.533   8.483   4.519
16569TIP3   OH249591   3.165   8.272   6.238
16569TIP3    H149592   3.100   8.247   6.169
16569TIP3    H249593   3.203   8.185   6.263
16570TIP3   OH249594   3.020   8.466   5.866
16570TIP3    H149595   3.116   8.453   5.859
16570TIP3    H249596   3.016   8.541   5.928
16571TIP3   OH249597   4.884   8.916   5.926
16571TIP3    H149598   4.883   8.819   5.940
16571TIP3    H249599   4.801   8.941   5.972
16572TIP3   OH249600   3.989   8.702   6.061
16572TIP3    H149601   3.987   8.794   6.094
16572TIP3    H249602   3.918   8.662   6.116
16573TIP3   OH249603   3.750   8.833   5.013
16573TIP3    H149604   3.703   8.813   4.930
16573TIP3    H249605   3.717   8.922   5.036
16574TIP3   OH249606   3.188   8.680   5.399
16574TIP3    H149607   3.237   8.670   5.484
16574TIP3    H249608   3.138   8.596   5.398
16575TIP3   OH249609   3.951   8.732   4.653
16575TIP3    H149610   4.010   8.662   4.618
16575TIP3    H249611   3.985   8.741   4.745
16576TIP3   OH249612   4.001   8.779   4.923
16576TIP3    H149613   3.913   8.788   4.966
16576TIP3    H249614   4.051   8.732   4.993
16577TIP3   OH249615   4.774   8.048   6.200
16577TIP3    H149616   4.691   8.058   6.150
16577TIP3    H249617   4.790   7.952   6.191
16578TIP3   OH249618   3.370   8.456   6.227
16578TIP3    H149619   3.420   8.437   6.309
16578TIP3    H249620   3.296   8.391   6.234
16579TIP3   OH249621   3.769   7.280   6.007
16579TIP3    H149622   3.679   7.248   5.982
16579TIP3    H249623   3.743   7.360   6.057
16580TIP3   OH249624   4.304   7.396   6.209
16580TIP3    H149625   4.372   7.363   6.271
16580TIP3    H249626   4.220   7.371   6.255
16581TIP3   OH249627   4.544   7.824   6.125
16581TIP3    H149628   4.493   7.820   6.209
16581TIP3    H249629   4.517   7.909   6.088
16582TIP3   OH249630   4.196   7.953   4.673
16582TIP3    H149631   4.170   7.925   4.584
16582TIP3    H249632   4.278   8.002   4.656
16583TIP3   OH249633   3.916   7.325   4.982
16583TIP3    H149634   3.883   7.324   5.075
16583TIP3    H249635   3.875   7.243   4.950
16584TIP3   OH249636   3.703   7.794   6.030
16584TIP3    H149637   3.651   7.813   6.111
16584TIP3    H249638   3.685   7.874   5.977
16585TIP3   OH249639   3.583   7.680   5.543
16585TIP3    H149640   3.491   7.651   5.561
16585TIP3    H249641   3.597   7.638   5.455
16586TIP3   OH249642   4.070   7.764   5.272
16586TIP3    H149643   4.019   7.838   5.234
16586TIP3    H249644   4.129   7.744   5.197
16587TIP3   OH249645   4.250   8.043   6.359
16587TIP3    H149646   4.228   7.970   6.420
16587TIP3    H249647   4.345   8.055   6.379
16588TIP3   OH249648   4.233   7.800   5.508
16588TIP3    H149649   4.178   7.836   5.436
16588TIP3    H249650   4.259   7.716   5.465
16589TIP3   OH249651   3.520   7.822   6.238
16589TIP3    H149652   3.550   7.883   6.307
16589TIP3    H249653   3.509   7.739   6.288
16590TIP3   OH249654   3.570   7.299   4.948
16590TIP3    H149655   3.563   7.295   5.046
16590TIP3    H249656   3.490   7.351   4.926
16591TIP3   OH249657   3.104   7.352   5.828
16591TIP3    H149658   3.191   7.374   5.868
16591TIP3    H249659   3.126   7.316   5.740
16592TIP3   OH249660   3.130   7.358   5.358
16592TIP3    H149661   3.154   7.381   5.267
16592TIP3    H249662   3.044   7.402   5.367
16593TIP3   OH249663   4.249   8.039   5.937
16593TIP3    H149664   4.279   7.968   5.876
16593TIP3    H249665   4.216   7.984   6.011
16594TIP3   OH249666   3.914   7.499   5.605
16594TIP3    H149667   3.831   7.498   5.657
16594TIP3    H249668   3.981   7.499   5.675
16595TIP3   OH249669   3.346   7.556   5.612
16595TIP3    H149670   3.252   7.564   5.584
16595TIP3    H249671   3.366   7.464   5.589
16596TIP3   OH249672   3.616   7.554   5.302
16596TIP3    H149673   3.710   7.570   5.280
16596TIP3    H249674   3.569   7.576   5.218
16597TIP3   OH249675   4.404   7.577   5.806
16597TIP3    H149676   4.372   7.589   5.898
16597TIP3    H249677   4.337   7.516   5.771
16598TIP3   OH249678   3.458   7.588   5.081
16598TIP3    H149679   3.383   7.544   5.036
16598TIP3    H249680   3.508   7.623   5.005
16599TIP3   OH249681   4.575   9.267   6.026
16599TIP3    H149682   4.574   9.288   5.931
16599TIP3    H249683   4.656   9.313   6.056
16600TIP3   OH249684   3.531   8.378   6.447
16600TIP3    H149685   3.611   8.407   6.495
16600TIP3    H249686   3.467   8.374   6.520
16601TIP3   OH249687   3.994   7.828   5.703
16601TIP3    H149688   4.068   7.792   5.652
16601TIP3    H249689   4.004   7.784   5.789
16602TIP3   OH249690   3.522   7.316   5.583
16602TIP3    H149691   3.482   7.240   5.630
16602TIP3    H249692   3.563   7.274   5.507
16603TIP3   OH249693   3.973   7.727   5.990
16603TIP3    H149694   3.882   7.761   6.005
16603TIP3    H249695   4.029   7.787   6.042
16604TIP3   OH249696   3.704   8.124   5.084
16604TIP3    H149697   3.634   8.056   5.077
16604TIP3    H249698   3.689   8.157   5.176
16605TIP3   OH249699   4.609   8.353   5.717
16605TIP3    H149700   4.629   8.401   5.635
16605TIP3    H249701   4.524   8.308   5.694
16606TIP3   OH249702   4.163   7.432   4.933
16606TIP3    H149703   4.069   7.414   4.954
16606TIP3    H249704   4.178   7.522   4.970
16607TIP3   OH249705   4.113   8.438   6.083
16607TIP3    H149706   4.131   8.412   6.174
16607TIP3    H249707   4.069   8.524   6.093
16608TIP3   OH249708   4.239   7.666   5.051
16608TIP3    H149709   4.333   7.680   5.073
16608TIP3    H249710   4.217   7.753   5.008
16609TIP3   OH249711   3.401   8.142   5.762
16609TIP3    H149712   3.438   8.112   5.677
16609TIP3    H249713   3.442   8.079   5.824
16610TIP3   OH249714   3.849   8.264   4.888
16610TIP3    H149715   3.809   8.351   4.910
16610TIP3    H249716   3.817   8.210   4.963
16611TIP3   OH249717   3.281   8.061   6.377
16611TIP3    H149718   3.301   8.046   6.471
16611TIP3    H249719   3.214   7.993   6.359
16612TIP3   OH249720   4.008   8.175   6.396
16612TIP3    H149721   3.947   8.116   6.348
16612TIP3    H249722   4.095   8.139   6.368
16613TIP3   OH249723   4.268   8.704   5.975
16613TIP3    H149724   4.173   8.694   5.990
16613TIP3    H249725   4.295   8.751   6.057
16614TIP3   OH249726   4.686   7.762   4.883
16614TIP3    H149727   4.619   7.721   4.823
16614TIP3    H249728   4.678   7.854   4.850
16615TIP3   OH249729   4.898   8.627   5.968
16615TIP3    H149730   4.800   8.620   5.960
16615TIP3    H249731   4.923   8.596   5.878
16616TIP3   OH249732   4.380   8.586   4.798
16616TIP3    H149733   4.350   8.519   4.862
16616TIP3    H249734   4.389   8.535   4.716
16617TIP3   OH249735   4.377   8.215   5.644
16617TIP3    H149736   4.283   8.191   5.652
16617TIP3    H249737   4.410   8.138   5.594
16618TIP3   OH249738   3.503   8.446   5.396
16618TIP3    H149739   3.508   8.523   5.336
16618TIP3    H249740   3.408   8.426   5.394
16619TIP3   OH249741   3.062   7.747   5.089
16619TIP3    H149742   3.111   7.829   5.113
16619TIP3    H249743   2.987   7.751   5.153
16620TIP3   OH249744   3.634   8.208   5.332
16620TIP3    H149745   3.604   8.298   5.353
16620TIP3    H249746   3.599   8.157   5.408
16621TIP3   OH249747   3.771   8.787   5.857
16621TIP3    H149748   3.814   8.858   5.806
16621TIP3    H249749   3.847   8.749   5.904
16622TIP3   OH249750   3.417   8.685   5.236
16622TIP3    H149751   3.334   8.691   5.287
16622TIP3    H249752   3.450   8.777   5.242
16623TIP3   OH249753   4.161   8.422   5.814
16623TIP3    H149754   4.152   8.419   5.912
16623TIP3    H249755   4.234   8.361   5.799
16624TIP3   OH249756   4.132   8.314   4.699
16624TIP3    H149757   4.188   8.286   4.776
16624TIP3    H249758   4.045   8.289   4.734
16625TIP3   OH249759   4.408   8.956   5.869
16625TIP3    H149760   4.332   8.895   5.865
16625TIP3    H249761   4.389   9.017   5.794
16626TIP3   OH249762   4.474   8.789   4.518
16626TIP3    H149763   4.514   8.864   4.470
16626TIP3    H249764   4.393   8.833   4.551
16627TIP3   OH249765   3.493   7.567   6.383
16627TIP3    H149766   3.396   7.567   6.395
16627TIP3    H249767   3.520   7.505   6.453
16628TIP3   OH249768   4.290   8.244   4.913
16628TIP3    H149769   4.263   8.202   4.998
16628TIP3    H249770   4.387   8.230   4.916
16629TIP3   OH249771   3.208   8.649   6.016
16629TIP3    H149772   3.261   8.573   6.044
16629TIP3    H249773   3.239   8.716   6.078
16630TIP3   OH249774   3.495   8.295   4.699
16630TIP3    H149775   3.516   8.204   4.672
16630TIP3    H249776   3.481   8.284   4.795
16631TIP3   OH249777   3.445   8.298   4.972
16631TIP3    H149778   3.524   8.267   5.019
16631TIP3    H249779   3.453   8.396   4.982
16632TIP3   OH249780   3.179   7.990   5.174
16632TIP3    H149781   3.114   8.035   5.231
16632TIP3    H249782   3.198   8.060   5.109
16633TIP3   OH249783   4.331   7.629   6.067
16633TIP3    H149784   4.412   7.664   6.107
16633TIP3    H249785   4.315   7.548   6.120
16634TIP3   OH249786   4.217   7.379   5.229
16634TIP3    H149787   4.197   7.409   5.139
16634TIP3    H249788   4.253   7.461   5.270
16635TIP3   OH249789   3.708   8.498   4.913
16635TIP3    H149790   3.624   8.523   4.957
16635TIP3    H249791   3.727   8.577   4.862
16636TIP3   OH249792   3.899   7.558   5.332
16636TIP3    H149793   3.961   7.631   5.313
16636TIP3    H249794   3.905   7.553   5.430
16637TIP3   OH249795   4.168   7.877   6.141
16637TIP3    H149796   4.191   7.929   6.220
16637TIP3    H249797   4.222   7.797   6.152
16638TIP3   OH249798   4.045   7.286   5.435
16638TIP3    H149799   4.033   7.364   5.494
16638TIP3    H249800   4.106   7.323   5.368
16639TIP3   OH249801   3.452   8.574   4.986
16639TIP3    H149802   3.422   8.645   4.926
16639TIP3    H249803   3.438   8.615   5.074
16640TIP3   OH249804   3.559   7.286   5.224
16640TIP3    H149805   3.552   7.375   5.263
16640TIP3    H249806   3.656   7.271   5.234
16641TIP3   OH249807   4.810   7.780   6.119
16641TIP3    H149808   4.712   7.780   6.129
16641TIP3    H249809   4.817   7.731   6.035
16642TIP3   OH249810   4.458   7.980   5.515
16642TIP3    H149811   4.383   7.917   5.515
16642TIP3    H249812   4.530   7.926   5.553
16643TIP3   OH249813   3.174   8.204   4.977
16643TIP3    H149814   3.248   8.267   4.989
16643TIP3    H249815   3.218   8.144   4.911
16644TIP3   OH249816   3.118   7.476   5.105
16644TIP3    H149817   3.110   7.573   5.104
16644TIP3    H249818   3.029   7.447   5.080
16645TIP3   OH249819   4.428   8.934   5.459
16645TIP3    H149820   4.385   8.980   5.384
16645TIP3    H249821   4.522   8.951   5.438
16646TIP3   OH249822   3.504   7.198   5.986
16646TIP3    H149823   3.474   7.164   5.900
16646TIP3    H249824   3.494   7.119   6.044
16647TIP3   OH249825   3.046   8.422   5.366
16647TIP3    H149826   2.974   8.448   5.425
16647TIP3    H249827   3.015   8.459   5.281
16648TIP3   OH249828   3.201   8.960   6.438
16648TIP3    H149829   3.287   8.959   6.484
16648TIP3    H249830   3.180   8.865   6.436
16649TIP3   OH249831   3.681   8.923   6.480
16649TIP3    H149832   3.775   8.901   6.490
16649TIP3    H249833   3.656   8.863   6.408
16650TIP3   OH249834   3.661   8.497   4.608
16650TIP3    H149835   3.604   8.429   4.652
16650TIP3    H249836   3.738   8.443   4.587
16651TIP3   OH249837   4.320   8.830   6.216
16651TIP3    H149838   4.311   8.759   6.284
16651TIP3    H249839   4.398   8.879   6.248
16652TIP3   OH249840   4.099   8.538   4.524
16652TIP3    H149841   4.137   8.471   4.585
16652TIP3    H249842   4.160   8.534   4.448
16653TIP3   OH249843   3.331   8.365   6.638
16653TIP3    H149844   3.348   8.269   6.644
16653TIP3    H249845   3.243   8.366   6.594
16654TIP3   OH249846   3.309   8.014   4.834
16654TIP3    H149847   3.364   7.980   4.908
16654TIP3    H249848   3.377   8.019   4.764
16655TIP3   OH249849   3.938   8.450   6.412
16655TIP3    H149850   3.896   8.466   6.325
16655TIP3    H249851   3.969   8.357   6.404
16656TIP3   OH249852   3.810   8.210   4.628
16656TIP3    H149853   3.817   8.227   4.725
16656TIP3    H249854   3.813   8.112   4.628
16657TIP3   OH249855   4.433   8.459   6.021
16657TIP3    H149856   4.506   8.505   5.975
16657TIP3    H249857   4.359   8.519   6.004
16658TIP3   OH249858   3.450   8.101   6.620
16658TIP3    H149859   3.523   8.042   6.597
16658TIP3    H249860   3.477   8.132   6.709
16659TIP3   OH249861   3.509   7.920   5.050
16659TIP3    H149862   3.490   7.880   5.136
16659TIP3    H249863   3.551   7.845   5.002
16660TIP3   OH249864   3.785   7.984   6.283
16660TIP3    H149865   3.707   8.043   6.283
16660TIP3    H249866   3.835   8.017   6.205
16661TIP3   OH249867   3.615   7.713   4.893
16661TIP3    H149868   3.590   7.718   4.799
16661TIP3    H249869   3.713   7.720   4.887
16662TIP3   OH249870   4.303   8.386   6.416
16662TIP3    H149871   4.381   8.357   6.366
16662TIP3    H249872   4.298   8.319   6.486
16663TIP3   OH249873   4.441   8.044   4.555
16663TIP3    H149874   4.415   7.998   4.472
16663TIP3    H249875   4.406   8.134   4.535
16664TIP3   OH249876   3.910   7.772   6.408
16664TIP3    H149877   3.909   7.691   6.352
16664TIP3    H249878   3.865   7.837   6.349
16665TIP3   OH249879   3.910   7.561   6.217
16665TIP3    H149880   3.938   7.598   6.131
16665TIP3    H249881   3.818   7.535   6.198
16666TIP3   OH249882   3.938   8.095   6.091
16666TIP3    H149883   4.021   8.100   6.041
16666TIP3    H249884   3.882   8.160   6.044
16667TIP3   OH249885   4.520   8.060   6.470
16667TIP3    H149886   4.566   7.975   6.478
16667TIP3    H249887   4.589   8.116   6.434
16668TIP3   OH249888   4.561   8.314   6.209
16668TIP3    H149889   4.504   8.368   6.149
16668TIP3    H249890   4.649   8.333   6.168
16669TIP3   OH249891   3.789   7.881   6.639
16669TIP3    H149892   3.719   7.813   6.654
16669TIP3    H249893   3.820   7.857   6.550
16670TIP3   OH249894   4.045   7.323   6.283
16670TIP3    H149895   3.993   7.404   6.261
16670TIP3    H249896   3.977   7.253   6.274
16671TIP3   OH249897   4.168   7.824   6.499
16671TIP3    H149898   4.148   7.813   6.594
16671TIP3    H249899   4.080   7.800   6.462
16672TIP3   OH249900   4.409   7.778   6.354
16672TIP3    H149901   4.333   7.775   6.415
16672TIP3    H249902   4.482   7.744   6.410
16673TIP3   OH249903   4.637   7.716   6.503
16673TIP3    H149904   4.652   7.621   6.520
16673TIP3    H249905   4.637   7.754   6.594
16674TIP3   OH249906   3.626   7.663   6.691
16674TIP3    H149907   3.629   7.572   6.657
16674TIP3    H249908   3.662   7.649   6.782
16675TIP3   OH249909   4.122   7.345   6.550
16675TIP3    H149910   4.199   7.284   6.546
16675TIP3    H249911   4.087   7.332   6.460
16676TIP3   OH249912   4.213   7.546   6.723
16676TIP3    H149913   4.196   7.473   6.658
16676TIP3    H249914   4.133   7.600   6.705
16677TIP3   OH249915   3.425   8.780   4.799
16677TIP3    H149916   3.520   8.769   4.781
16677TIP3    H249917   3.398   8.827   4.718
16678TIP3   OH249918   2.905   8.159   5.012
16678TIP3    H149919   3.000   8.180   5.000
16678TIP3    H249920   2.900   8.069   4.974
16679TIP3   OH249921   2.819   8.769   5.430
16679TIP3    H149922   2.752   8.706   5.394
16679TIP3    H249923   2.864   8.712   5.496
16680TIP3   OH249924   2.952   8.621   5.618
16680TIP3    H149925   2.944   8.546   5.679
16680TIP3    H249926   3.006   8.681   5.672
16681TIP3   OH249927   4.681   9.023   5.415
16681TIP3    H149928   4.709   9.052   5.504
16681TIP3    H249929   4.748   9.063   5.358
16682TIP3   OH249930   4.712   9.041   5.698
16682TIP3    H149931   4.665   8.955   5.694
16682TIP3    H249932   4.786   9.016   5.755
16683TIP3   OH249933   4.757   8.718   6.270
16683TIP3    H149934   4.685   8.725   6.336
16683TIP3    H249935   4.798   8.806   6.276
16684TIP3   OH249936   4.576   8.228   4.889
16684TIP3    H149937   4.644   8.293   4.865
16684TIP3    H249938   4.616   8.190   4.971
16685TIP3   OH249939   4.708   8.099   5.091
16685TIP3    H149940   4.643   8.049   5.147
16685TIP3    H249941   4.766   8.139   5.159
16686TIP3   OH249942   4.759   8.492   5.529
16686TIP3    H149943   4.809   8.424   5.480
16686TIP3    H249944   4.744   8.560   5.461
16687TIP3   OH249945   4.588   8.793   5.722
16687TIP3    H149946   4.516   8.831   5.775
16687TIP3    H249947   4.539   8.744   5.653
16688TIP3   OH249948   4.641   8.005   4.739
16688TIP3    H149949   4.568   8.009   4.673
16688TIP3    H249950   4.613   8.079   4.797
16689TIP3   OH249951   4.519   7.673   4.687
16689TIP3    H149952   4.461   7.718   4.624
16689TIP3    H249953   4.488   7.580   4.678
16690TIP3   OH249954   4.553   7.944   5.247
16690TIP3    H149955   4.514   7.856   5.236
16690TIP3    H249956   4.500   7.980   5.320
16691TIP3   OH249957   3.140   8.030   5.987
16691TIP3    H149958   3.139   7.996   5.895
16691TIP3    H249959   3.237   8.031   6.004
16692TIP3   OH249960   4.805   8.379   6.099
16692TIP3    H149961   4.877   8.312   6.089
16692TIP3    H249962   4.830   8.446   6.033
16693TIP3   OH249963   4.991   8.184   6.111
16693TIP3    H149964   4.915   8.134   6.150
16693TIP3    H249965   5.063   8.119   6.127
16694TIP3   OH249966   4.456   7.406   4.672
16694TIP3    H149967   4.524   7.381   4.738
16694TIP3    H249968   4.377   7.356   4.702
16695TIP3   OH249969   4.508   7.666   5.139
16695TIP3    H149970   4.552   7.578   5.151
16695TIP3    H249971   4.568   7.707   5.075
16696TIP3   OH249972   4.673   7.839   5.630
16696TIP3    H149973   4.758   7.866   5.589
16696TIP3    H249974   4.685   7.878   5.719
16697TIP3   OH249975   4.742   7.988   5.861
16697TIP3    H149976   4.664   8.021   5.910
16697TIP3    H249977   4.774   8.070   5.817
16698TIP3   OH249978   3.360   7.716   6.666
16698TIP3    H149979   3.457   7.708   6.665
16698TIP3    H249980   3.335   7.629   6.703
16699TIP3   OH249981   5.190   7.578   6.417
16699TIP3    H149982   5.252   7.514   6.376
16699TIP3    H249983   5.165   7.633   6.340
16700TIP3   OH249984   4.627   7.417   5.168
16700TIP3    H149985   4.669   7.404   5.256
16700TIP3    H249986   4.561   7.344   5.169
16701TIP3   OH249987   3.322   7.407   5.998
16701TIP3    H149988   3.383   7.331   6.005
16701TIP3    H249989   3.386   7.480   5.987
16702TIP3   OH249990   3.122   7.682   6.065
16702TIP3    H149991   3.170   7.669   5.981
16702TIP3    H249992   3.159   7.765   6.096
16703TIP3   OH249993   5.065   7.720   6.220
16703TIP3    H149994   4.978   7.759   6.242
16703TIP3    H249995   5.035   7.645   6.165
16704TIP3   OH249996   4.698   7.355   4.807
16704TIP3    H149997   4.734   7.283   4.752
16704TIP3    H249998   4.764   7.426   4.799
16705TIP3   OH249999   3.100   7.211   5.586
16705TIP3    H150000   3.014   7.171   5.568
16705TIP3    H250001   3.120   7.253   5.500
16706TIP3   OH250002   4.265   8.890   5.071
16706TIP3    H150003   4.316   8.874   4.990
16706TIP3    H250004   4.322   8.951   5.120
16707TIP3   OH250005   3.327   7.269   6.384
16707TIP3    H150006   3.274   7.257   6.464
16707TIP3    H250007   3.259   7.302   6.321
16708TIP3   OH250008   3.365   8.695   6.458
16708TIP3    H150009   3.274   8.664   6.441
16708TIP3    H250010   3.377   8.670   6.551
16709TIP3   OH250011   3.544   8.725   6.006
16709TIP3    H150012   3.498   8.801   5.966
16709TIP3    H250013   3.631   8.737   5.962
16710TIP3   OH250014   3.988   8.969   6.144
16710TIP3    H150015   4.031   8.967   6.232
16710TIP3    H250016   4.055   9.019   6.092
16711TIP3   OH250017   4.167   9.122   6.002
16711TIP3    H150018   4.236   9.068   5.960
16711TIP3    H250019   4.221   9.177   6.063
16712TIP3   OH250020   4.964   7.481   6.102
16712TIP3    H150021   4.873   7.471   6.069
16712TIP3    H250022   4.996   7.388   6.092
16713TIP3   OH250023   3.221   8.983   6.026
16713TIP3    H150024   3.131   9.017   6.006
16713TIP3    H250025   3.231   9.014   6.117
16714TIP3   OH250026   3.458   8.961   5.888
16714TIP3    H150027   3.371   8.973   5.932
16714TIP3    H250028   3.439   8.991   5.797
16715TIP3   OH250029   3.883   8.988   5.685
16715TIP3    H150030   3.814   9.007   5.619
16715TIP3    H250031   3.894   9.076   5.727
16716TIP3   OH250032   4.152   8.930   5.739
16716TIP3    H150033   4.058   8.943   5.717
16716TIP3    H250034   4.194   9.003   5.692
16717TIP3   OH250035   4.361   9.121   5.652
16717TIP3    H150036   4.346   9.204   5.601
16717TIP3    H250037   4.386   9.058   5.580
16718TIP3   OH250038   3.132   8.774   5.775
16718TIP3    H150039   3.160   8.747   5.865
16718TIP3    H250040   3.204   8.730   5.724
16719TIP3   OH250041   3.326   8.646   5.632
16719TIP3    H150042   3.342   8.561   5.680
16719TIP3    H250043   3.418   8.681   5.627
16720TIP3   OH250044   3.594   8.741   5.634
16720TIP3    H150045   3.624   8.649   5.619
16720TIP3    H250046   3.640   8.759   5.718
16721TIP3   OH250047   4.169   7.396   5.723
16721TIP3    H150048   4.125   7.327   5.776
16721TIP3    H250049   4.241   7.347   5.680
16722TIP3   OH250050   4.691   7.273   5.624
16722TIP3    H150051   4.726   7.329   5.551
16722TIP3    H250052   4.596   7.294   5.620
16723TIP3   OH250053   4.786   7.380   5.390
16723TIP3    H150054   4.860   7.327   5.353
16723TIP3    H250055   4.819   7.471   5.375
16724TIP3   OH250056   3.419   7.106   5.737
16724TIP3    H150057   3.325   7.076   5.735
16724TIP3    H250058   3.465   7.020   5.732
16725TIP3   OH250059   3.217   6.963   5.377
16725TIP3    H150060   3.236   7.029   5.308
16725TIP3    H250061   3.132   6.997   5.410
16726TIP3   OH250062   3.863   7.135   5.618
16726TIP3    H150063   3.921   7.188   5.561
16726TIP3    H250064   3.880   7.172   5.705
16727TIP3   OH250065   4.409   7.285   5.602
16727TIP3    H150066   4.402   7.248   5.514
16727TIP3    H250067   4.395   7.205   5.658
16728TIP3   OH250068   4.437   7.208   5.163
16728TIP3    H150069   4.353   7.254   5.180
16728TIP3    H250070   4.421   7.123   5.210
16729TIP3   OH250071   2.921   8.544   5.162
16729TIP3    H150072   2.836   8.511   5.129
16729TIP3    H250073   2.908   8.640   5.149
16730TIP3   OH250074   3.323   7.140   5.139
16730TIP3    H150075   3.374   7.076   5.086
16730TIP3    H250076   3.393   7.191   5.184
16731TIP3   OH250077   3.835   7.308   5.247
16731TIP3    H150078   3.893   7.263   5.310
16731TIP3    H250079   3.854   7.402   5.272
16732TIP3   OH250080   3.691   8.734   4.745
16732TIP3    H150081   3.780   8.755   4.710
16732TIP3    H250082   3.670   8.657   4.688
16733TIP3   OH250083   4.413   8.853   4.840
16733TIP3    H150084   4.405   8.755   4.829
16733TIP3    H250085   4.367   8.884   4.759
16734TIP3   OH250086   3.625   7.390   6.632
16734TIP3    H150087   3.591   7.316   6.685
16734TIP3    H250088   3.720   7.388   6.657
16735TIP3   OH250089   3.877   7.388   6.748
16735TIP3    H150090   3.956   7.357   6.699
16735TIP3    H250091   3.864   7.315   6.813
16736TIP3   OH250092   2.998   8.574   4.805
16736TIP3    H150093   2.999   8.587   4.900
16736TIP3    H250094   3.085   8.530   4.789
16737TIP3   OH250095   4.700   7.448   6.538
16737TIP3    H150096   4.714   7.412   6.628
16737TIP3    H250097   4.789   7.440   6.498
16738TIP3   OH250098   4.638   8.997   6.028
16738TIP3    H150099   4.559   8.965   5.979
16738TIP3    H250100   4.616   9.093   6.033
16739TIP3   OH250101   5.889   8.370   5.180
16739TIP3    H150102   5.936   8.344   5.261
16739TIP3    H250103   5.855   8.285   5.149
16740TIP3   OH250104   5.203   8.263   5.538
16740TIP3    H150105   5.232   8.194   5.601
16740TIP3    H250106   5.280   8.322   5.539
16741TIP3   OH250107   5.174   8.675   5.264
16741TIP3    H150108   5.165   8.578   5.266
16741TIP3    H250109   5.271   8.683   5.259
16742TIP3   OH250110   4.885   7.882   5.047
16742TIP3    H150111   4.835   7.963   5.067
16742TIP3    H250112   4.812   7.824   5.020
16743TIP3   OH250113   4.943   8.168   5.225
16743TIP3    H150114   4.990   8.089   5.260
16743TIP3    H250115   5.001   8.197   5.154
16744TIP3   OH250116   5.799   9.134   4.873
16744TIP3    H150117   5.841   9.061   4.823
16744TIP3    H250118   5.788   9.093   4.960
16745TIP3   OH250119   5.701   8.596   5.223
16745TIP3    H150120   5.741   8.517   5.183
16745TIP3    H250121   5.784   8.643   5.245
16746TIP3   OH250122   6.719   7.922   5.221
16746TIP3    H150123   6.736   8.014   5.246
16746TIP3    H250124   6.730   7.926   5.125
16747TIP3   OH250125   6.110   8.093   5.260
16747TIP3    H150126   6.153   8.007   5.276
16747TIP3    H250127   6.086   8.085   5.166
16748TIP3   OH250128   5.447   7.751   5.221
16748TIP3    H150129   5.431   7.825   5.160
16748TIP3    H250130   5.401   7.679   5.175
16749TIP3   OH250131   6.146   7.845   4.844
16749TIP3    H150132   6.219   7.830   4.908
16749TIP3    H250133   6.197   7.878   4.767
16750TIP3   OH250134   5.086   7.958   5.325
16750TIP3    H150135   5.168   7.938   5.375
16750TIP3    H250136   5.098   7.899   5.249
16751TIP3   OH250137   5.529   8.159   5.120
16751TIP3    H150138   5.623   8.134   5.135
16751TIP3    H250139   5.490   8.073   5.096
16752TIP3   OH250140   6.784   8.153   5.396
16752TIP3    H150141   6.698   8.190   5.364
16752TIP3    H250142   6.747   8.101   5.471
16753TIP3   OH250143   5.449   7.739   5.655
16753TIP3    H150144   5.388   7.777   5.589
16753TIP3    H250145   5.398   7.754   5.737
16754TIP3   OH250146   5.810   8.628   4.624
16754TIP3    H150147   5.752   8.553   4.609
16754TIP3    H250148   5.750   8.693   4.666
16755TIP3   OH250149   5.556   8.515   5.449
16755TIP3    H150150   5.493   8.582   5.486
16755TIP3    H250151   5.597   8.565   5.375
16756TIP3   OH250152   6.357   7.848   5.016
16756TIP3    H150153   6.338   7.804   5.100
16756TIP3    H250154   6.407   7.927   5.045
16757TIP3   OH250155   5.319   7.856   5.440
16757TIP3    H150156   5.382   7.928   5.464
16757TIP3    H250157   5.370   7.813   5.367
16758TIP3   OH250158   5.384   8.709   5.548
16758TIP3    H150159   5.357   8.796   5.509
16758TIP3    H250160   5.305   8.692   5.604
16759TIP3   OH250161   4.781   8.400   4.783
16759TIP3    H150162   4.734   8.427   4.703
16759TIP3    H250163   4.810   8.485   4.820
16760TIP3   OH250164   6.230   8.926   5.042
16760TIP3    H150165   6.139   8.896   5.066
16760TIP3    H250166   6.209   9.003   4.986
16761TIP3   OH250167   6.507   7.829   5.391
16761TIP3    H150168   6.417   7.845   5.358
16761TIP3    H250169   6.562   7.852   5.313
16762TIP3   OH250170   5.802   7.456   5.367
16762TIP3    H150171   5.791   7.361   5.390
16762TIP3    H250172   5.725   7.494   5.414
16763TIP3   OH250173   5.915   8.958   4.693
16763TIP3    H150174   5.968   8.875   4.681
16763TIP3    H250175   5.978   9.022   4.654
16764TIP3   OH250176   6.062   8.739   4.611
16764TIP3    H150177   5.978   8.688   4.604
16764TIP3    H250178   6.120   8.671   4.651
16765TIP3   OH250179   6.438   8.829   5.367
16765TIP3    H150180   6.429   8.752   5.307
16765TIP3    H250181   6.424   8.904   5.306
16766TIP3   OH250182   5.720   8.193   4.604
16766TIP3    H150183   5.651   8.262   4.601
16766TIP3    H250184   5.785   8.226   4.540
16767TIP3   OH250185   5.691   8.009   4.334
16767TIP3    H150186   5.742   8.051   4.405
16767TIP3    H250187   5.758   7.951   4.293
16768TIP3   OH250188   6.644   8.479   5.221
16768TIP3    H150189   6.556   8.525   5.223
16768TIP3    H250190   6.668   8.495   5.127
16769TIP3   OH250191   6.317   8.345   5.504
16769TIP3    H150192   6.307   8.431   5.548
16769TIP3    H250193   6.233   8.342   5.455
16770TIP3   OH250194   5.314   8.298   5.012
16770TIP3    H150195   5.279   8.239   4.943
16770TIP3    H250196   5.393   8.249   5.044
16771TIP3   OH250197   5.445   8.714   5.161
16771TIP3    H150198   5.424   8.673   5.076
16771TIP3    H250199   5.535   8.679   5.179
16772TIP3   OH250200   5.454   8.272   5.367
16772TIP3    H150201   5.487   8.252   5.278
16772TIP3    H250202   5.495   8.359   5.387
16773TIP3   OH250203   5.973   8.910   5.140
16773TIP3    H150204   5.967   8.987   5.198
16773TIP3    H250205   5.962   8.835   5.202
16774TIP3   OH250206   5.588   8.827   5.693
16774TIP3    H150207   5.527   8.890   5.737
16774TIP3    H250208   5.524   8.774   5.642
16775TIP3   OH250209   5.948   8.172   4.430
16775TIP3    H150210   5.996   8.249   4.466
16775TIP3    H250211   5.960   8.187   4.334
16776TIP3   OH250212   5.342   8.386   5.790
16776TIP3    H150213   5.346   8.472   5.836
16776TIP3    H250214   5.247   8.364   5.805
16777TIP3   OH250215   5.658   8.847   4.705
16777TIP3    H150216   5.744   8.893   4.712
16777TIP3    H250217   5.603   8.912   4.659
16778TIP3   OH250218   5.384   8.995   5.778
16778TIP3    H150219   5.348   8.995   5.687
16778TIP3    H250220   5.304   8.975   5.831
16779TIP3   OH250221   6.435   7.401   4.469
16779TIP3    H150222   6.355   7.420   4.523
16779TIP3    H250223   6.448   7.488   4.425
16780TIP3   OH250224   5.183   8.133   4.807
16780TIP3    H150225   5.121   8.186   4.753
16780TIP3    H250226   5.122   8.071   4.849
16781TIP3   OH250227   6.235   8.769   4.015
16781TIP3    H150228   6.243   8.866   4.006
16781TIP3    H250229   6.329   8.741   4.004
16782TIP3   OH250230   4.962   8.528   5.725
16782TIP3    H150231   4.894   8.508   5.657
16782TIP3    H250232   4.998   8.440   5.747
16783TIP3   OH250233   4.816   8.726   5.350
16783TIP3    H150234   4.911   8.714   5.348
16783TIP3    H250235   4.806   8.800   5.411
16784TIP3   OH250236   5.787   8.957   5.550
16784TIP3    H150237   5.785   9.050   5.580
16784TIP3    H250238   5.714   8.918   5.605
16785TIP3   OH250239   5.549   9.088   4.500
16785TIP3    H150240   5.500   9.069   4.417
16785TIP3    H250241   5.514   9.176   4.525
16786TIP3   OH250242   4.985   8.936   4.885
16786TIP3    H150243   5.032   8.927   4.970
16786TIP3    H250244   4.930   8.855   4.886
16787TIP3   OH250245   5.749   8.989   4.139
16787TIP3    H150246   5.807   8.918   4.105
16787TIP3    H250247   5.781   8.998   4.232
16788TIP3   OH250248   5.799   9.036   4.409
16788TIP3    H150249   5.711   9.046   4.451
16788TIP3    H250250   5.848   8.993   4.481
16789TIP3   OH250251   6.575   8.308   5.681
16789TIP3    H150252   6.488   8.320   5.640
16789TIP3    H250253   6.584   8.212   5.678
16790TIP3   OH250254   5.166   8.711   5.712
16790TIP3    H150255   5.216   8.694   5.795
16790TIP3    H250256   5.093   8.647   5.719
16791TIP3   OH250257   5.565   7.536   5.497
16791TIP3    H150258   5.476   7.504   5.471
16791TIP3    H250259   5.539   7.615   5.548
16792TIP3   OH250260   6.100   7.650   5.693
16792TIP3    H150261   6.170   7.621   5.755
16792TIP3    H250262   6.018   7.628   5.741
16793TIP3   OH250263   6.353   8.089   5.622
16793TIP3    H150264   6.296   8.076   5.701
16793TIP3    H250265   6.311   8.166   5.579
16794TIP3   OH250266   5.996   8.199   4.164
16794TIP3    H150267   5.966   8.180   4.073
16794TIP3    H250268   6.071   8.259   4.148
16795TIP3   OH250269   5.700   7.587   4.463
16795TIP3    H150270   5.672   7.590   4.557
16795TIP3    H250271   5.663   7.501   4.437
16796TIP3   OH250272   5.498   8.050   5.517
16796TIP3    H150273   5.447   8.070   5.598
16796TIP3    H250274   5.482   8.132   5.464
16797TIP3   OH250275   5.383   7.939   5.034
16797TIP3    H150276   5.291   7.907   5.048
16797TIP3    H250277   5.397   7.919   4.941
16798TIP3   OH250278   5.870   8.024   4.760
16798TIP3    H150279   5.812   8.090   4.716
16798TIP3    H250280   5.923   7.993   4.684
16799TIP3   OH250281   6.048   8.303   5.847
16799TIP3    H150282   6.023   8.229   5.907
16799TIP3    H250283   6.143   8.309   5.867
16800TIP3   OH250284   6.030   8.049   4.997
16800TIP3    H150285   5.969   8.079   4.926
16800TIP3    H250286   6.061   7.966   4.955
16801TIP3   OH250287   5.317   8.078   5.725
16801TIP3    H150288   5.342   8.140   5.795
16801TIP3    H250289   5.305   7.995   5.775
16802TIP3   OH250290   4.912   7.602   5.298
16802TIP3    H150291   4.984   7.631   5.358
16802TIP3    H250292   4.959   7.558   5.226
16803TIP3   OH250293   4.886   7.582   4.819
16803TIP3    H150294   4.920   7.631   4.742
16803TIP3    H250295   4.821   7.647   4.851
16804TIP3   OH250296   6.042   8.296   5.421
16804TIP3    H150297   6.072   8.225   5.361
16804TIP3    H250298   6.011   8.242   5.497
16805TIP3   OH250299   5.708   7.763   5.097
16805TIP3    H150300   5.629   7.755   5.153
16805TIP3    H250301   5.780   7.754   5.161
16806TIP3   OH250302   5.144   7.814   5.089
16806TIP3    H150303   5.048   7.827   5.070
16806TIP3    H250304   5.154   7.718   5.079
16807TIP3   OH250305   6.205   7.832   5.293
16807TIP3    H150306   6.171   7.845   5.385
16807TIP3    H250307   6.137   7.772   5.258
16808TIP3   OH250308   6.374   9.523   5.511
16808TIP3    H150309   6.366   9.548   5.417
16808TIP3    H250310   6.450   9.577   5.540
16809TIP3   OH250311   5.328   8.634   5.933
16809TIP3    H150312   5.407   8.663   5.983
16809TIP3    H250313   5.263   8.629   6.005
16810TIP3   OH250314   5.791   8.087   5.189
16810TIP3    H150315   5.866   8.046   5.141
16810TIP3    H250316   5.797   8.044   5.276
16811TIP3   OH250317   5.326   7.561   5.057
16811TIP3    H150318   5.279   7.492   5.110
16811TIP3    H250319   5.408   7.514   5.036
16812TIP3   OH250320   5.768   7.986   5.474
16812TIP3    H150321   5.678   8.019   5.492
16812TIP3    H250322   5.825   8.045   5.528
16813TIP3   OH250323   5.508   8.376   4.575
16813TIP3    H150324   5.436   8.310   4.560
16813TIP3    H250325   5.486   8.408   4.665
16814TIP3   OH250326   6.406   8.608   5.205
16814TIP3    H150327   6.418   8.657   5.122
16814TIP3    H250328   6.320   8.561   5.188
16815TIP3   OH250329   5.955   7.690   4.421
16815TIP3    H150330   5.861   7.674   4.442
16815TIP3    H250331   5.971   7.781   4.457
16816TIP3   OH250332   5.914   8.697   5.570
16816TIP3    H150333   5.915   8.666   5.661
16816TIP3    H250334   5.867   8.782   5.576
16817TIP3   OH250335   6.029   7.929   4.533
16817TIP3    H150336   6.124   7.932   4.556
16817TIP3    H250337   6.014   8.017   4.492
16818TIP3   OH250338   5.199   8.398   5.250
16818TIP3    H150339   5.237   8.366   5.166
16818TIP3    H250340   5.235   8.335   5.314
16819TIP3   OH250341   5.641   8.518   4.381
16819TIP3    H150342   5.604   8.607   4.397
16819TIP3    H250343   5.594   8.466   4.450
16820TIP3   OH250344   5.079   8.315   5.862
16820TIP3    H150345   5.096   8.300   5.957
16820TIP3    H250346   5.008   8.250   5.844
16821TIP3   OH250347   5.803   8.433   5.880
16821TIP3    H150348   5.741   8.371   5.837
16821TIP3    H250349   5.889   8.395   5.853
16822TIP3   OH250350   6.065   8.955   5.456
16822TIP3    H150351   5.969   8.947   5.472
16822TIP3    H250352   6.093   9.002   5.538
16823TIP3   OH250353   6.483   8.023   4.368
16823TIP3    H150354   6.416   7.980   4.311
16823TIP3    H250355   6.473   8.114   4.336
16824TIP3   OH250356   6.692   8.850   5.459
16824TIP3    H150357   6.598   8.870   5.440
16824TIP3    H250358   6.728   8.848   5.368
16825TIP3   OH250359   6.178   8.843   4.286
16825TIP3    H150360   6.149   8.780   4.353
16825TIP3    H250361   6.185   8.789   4.206
16826TIP3   OH250362   6.177   8.468   5.145
16826TIP3    H150363   6.082   8.454   5.134
16826TIP3    H250364   6.212   8.396   5.087
16827TIP3   OH250365   5.298   8.700   4.874
16827TIP3    H150366   5.298   8.781   4.820
16827TIP3    H250367   5.203   8.686   4.886
16828TIP3   OH250368   4.865   8.002   4.580
16828TIP3    H150369   4.907   8.089   4.600
16828TIP3    H250370   4.786   8.008   4.639
16829TIP3   OH250371   5.432   8.465   4.817
16829TIP3    H150372   5.398   8.555   4.836
16829TIP3    H250373   5.399   8.416   4.894
16830TIP3   OH250374   5.567   9.044   5.343
16830TIP3    H150375   5.609   9.116   5.292
16830TIP3    H250376   5.644   9.008   5.391
16831TIP3   OH250377   5.217   8.939   4.726
16831TIP3    H150378   5.131   8.947   4.773
16831TIP3    H250379   5.249   9.031   4.729
16832TIP3   OH250380   5.956   8.678   5.300
16832TIP3    H150381   5.951   8.675   5.398
16832TIP3    H250382   6.032   8.620   5.283
16833TIP3   OH250383   5.934   8.566   4.188
16833TIP3    H150384   5.985   8.537   4.268
16833TIP3    H250385   5.844   8.547   4.219
16834TIP3   OH250386   6.208   9.212   5.354
16834TIP3    H150387   6.131   9.153   5.349
16834TIP3    H250388   6.189   9.274   5.281
16835TIP3   OH250389   6.271   9.045   4.005
16835TIP3    H150390   6.304   9.120   3.951
16835TIP3    H250391   6.191   9.088   4.042
16836TIP3   OH250392   5.289   7.822   5.869
16836TIP3    H150393   5.193   7.825   5.884
16836TIP3    H250394   5.318   7.764   5.942
16837TIP3   OH250395   6.089   8.482   4.400
16837TIP3    H150396   6.089   8.481   4.499
16837TIP3    H250397   6.186   8.484   4.389
16838TIP3   OH250398   5.006   8.905   5.503
16838TIP3    H150399   5.058   8.830   5.535
16838TIP3    H250400   5.034   8.975   5.563
16839TIP3   OH250401   5.296   8.552   4.185
16839TIP3    H150402   5.310   8.460   4.157
16839TIP3    H250403   5.278   8.540   4.281
16840TIP3   OH250404   5.242   8.556   4.458
16840TIP3    H150405   5.315   8.530   4.516
16840TIP3    H250406   5.244   8.654   4.464
16841TIP3   OH250407   4.979   8.250   4.661
16841TIP3    H150408   4.912   8.294   4.718
16841TIP3    H250409   4.991   8.319   4.593
16842TIP3   OH250410   6.132   7.884   5.553
16842TIP3    H150411   6.208   7.917   5.602
16842TIP3    H250412   6.110   7.802   5.604
16843TIP3   OH250413   6.012   7.637   4.715
16843TIP3    H150414   5.996   7.668   4.624
16843TIP3    H250415   6.048   7.717   4.758
16844TIP3   OH250416   5.508   8.754   4.406
16844TIP3    H150417   5.421   8.779   4.443
16844TIP3    H250418   5.524   8.828   4.346
16845TIP3   OH250419   5.700   7.814   4.827
16845TIP3    H150420   5.758   7.891   4.809
16845TIP3    H250421   5.703   7.810   4.925
16846TIP3   OH250422   5.966   8.134   5.628
16846TIP3    H150423   5.985   8.186   5.708
16846TIP3    H250424   6.018   8.053   5.643
16847TIP3   OH250425   5.840   7.544   4.923
16847TIP3    H150426   5.836   7.621   4.982
16847TIP3    H250427   5.897   7.579   4.851
16848TIP3   OH250428   5.251   8.828   4.473
16848TIP3    H150429   5.221   8.899   4.411
16848TIP3    H250430   5.235   8.871   4.560
16849TIP3   OH250431   6.611   8.033   5.573
16849TIP3    H150432   6.518   8.048   5.602
16849TIP3    H250433   6.594   7.955   5.516
16850TIP3   OH250434   6.255   8.232   5.023
16850TIP3    H150435   6.182   8.171   5.005
16850TIP3    H250436   6.330   8.173   5.043
16851TIP3   OH250437   4.969   8.457   4.466
16851TIP3    H150438   5.035   8.528   4.476
16851TIP3    H250439   5.014   8.402   4.399
16852TIP3   OH250440   4.918   7.733   4.595
16852TIP3    H150441   4.916   7.831   4.597
16852TIP3    H250442   4.830   7.714   4.561
16853TIP3   OH250443   6.224   9.195   4.947
16853TIP3    H150444   6.182   9.239   4.870
16853TIP3    H250445   6.319   9.206   4.922
16854TIP3   OH250446   5.301   7.453   5.472
16854TIP3    H150447   5.270   7.416   5.386
16854TIP3    H250448   5.292   7.375   5.531
16855TIP3   OH250449   4.840   8.674   4.852
16855TIP3    H150450   4.772   8.702   4.915
16855TIP3    H250451   4.808   8.715   4.769
16856TIP3   OH250452   4.997   9.216   5.925
16856TIP3    H150453   5.083   9.216   5.972
16856TIP3    H250454   4.976   9.121   5.923
16857TIP3   OH250455   5.471   9.176   5.976
16857TIP3    H150456   5.567   9.184   5.974
16857TIP3    H250457   5.454   9.116   5.900
16858TIP3   OH250458   5.460   8.754   4.097
16858TIP3    H150459   5.402   8.685   4.136
16858TIP3    H250460   5.534   8.699   4.068
16859TIP3   OH250461   6.122   9.079   5.693
16859TIP3    H150462   6.110   9.010   5.762
16859TIP3    H250463   6.188   9.137   5.735
16860TIP3   OH250464   5.896   8.793   4.011
16860TIP3    H150465   5.938   8.729   4.071
16860TIP3    H250466   5.956   8.792   3.933
16861TIP3   OH250467   5.127   8.623   6.124
16861TIP3    H150468   5.144   8.527   6.132
16861TIP3    H250469   5.040   8.624   6.080
16862TIP3   OH250470   5.105   8.270   4.319
16862TIP3    H150471   5.162   8.240   4.392
16862TIP3    H250472   5.172   8.277   4.247
16863TIP3   OH250473   5.734   8.706   5.899
16863TIP3    H150474   5.690   8.724   5.813
16863TIP3    H250475   5.763   8.613   5.890
16864TIP3   OH250476   5.615   8.468   4.118
16864TIP3    H150477   5.617   8.484   4.215
16864TIP3    H250478   5.611   8.370   4.116
16865TIP3   OH250479   6.230   8.713   5.513
16865TIP3    H150480   6.299   8.760   5.462
16865TIP3    H250481   6.153   8.769   5.496
16866TIP3   OH250482   5.248   8.358   6.105
16866TIP3    H150483   5.319   8.295   6.087
16866TIP3    H250484   5.273   8.388   6.195
16867TIP3   OH250485   5.312   8.174   4.537
16867TIP3    H150486   5.287   8.141   4.625
16867TIP3    H250487   5.349   8.094   4.494
16868TIP3   OH250488   5.583   8.243   5.769
16868TIP3    H150489   5.503   8.300   5.769
16868TIP3    H250490   5.632   8.277   5.690
16869TIP3   OH250491   5.417   7.959   4.391
16869TIP3    H150492   5.384   7.967   4.299
16869TIP3    H250493   5.513   7.973   4.378
16870TIP3   OH250494   6.108   8.644   5.908
16870TIP3    H150495   6.166   8.599   5.844
16870TIP3    H250496   6.096   8.574   5.975
16871TIP3   OH250497   6.238   8.300   4.040
16871TIP3    H150498   6.210   8.255   3.959
16871TIP3    H250499   6.204   8.391   4.022
16872TIP3   OH250500   5.704   8.029   5.895
16872TIP3    H150501   5.705   7.948   5.839
16872TIP3    H250502   5.660   8.094   5.836
16873TIP3   OH250503   5.707   7.817   5.702
16873TIP3    H150504   5.734   7.854   5.616
16873TIP3    H250505   5.613   7.791   5.684
16874TIP3   OH250506   5.735   8.352   5.575
16874TIP3    H150507   5.817   8.357   5.524
16874TIP3    H250508   5.678   8.417   5.529
16875TIP3   OH250509   6.314   8.313   5.954
16875TIP3    H150510   6.352   8.232   5.992
16875TIP3    H250511   6.391   8.355   5.913
16876TIP3   OH250512   6.355   8.579   5.710
16876TIP3    H150513   6.299   8.629   5.646
16876TIP3    H250514   6.442   8.589   5.666
16877TIP3   OH250515   5.581   8.141   6.124
16877TIP3    H150516   5.513   8.071   6.141
16877TIP3    H250517   5.617   8.111   6.038
16878TIP3   OH250518   5.840   7.577   5.766
16878TIP3    H150519   5.789   7.659   5.747
16878TIP3    H250520   5.771   7.509   5.758
16879TIP3   OH250521   5.964   8.085   5.985
16879TIP3    H150522   5.956   8.067   6.080
16879TIP3    H250523   5.874   8.058   5.957
16880TIP3   OH250524   6.205   8.030   5.840
16880TIP3    H150525   6.130   8.030   5.903
16880TIP3    H250526   6.278   7.997   5.896
16881TIP3   OH250527   6.443   7.969   5.986
16881TIP3    H150528   6.452   7.874   6.007
16881TIP3    H250529   6.430   8.009   6.074
16882TIP3   OH250530   5.423   7.919   6.179
16882TIP3    H150531   5.428   7.827   6.146
16882TIP3    H250532   5.461   7.907   6.269
16883TIP3   OH250533   5.932   7.591   6.026
16883TIP3    H150534   6.001   7.522   6.025
16883TIP3    H250535   5.894   7.580   5.937
16884TIP3   OH250536   6.003   7.807   6.181
16884TIP3    H150537   5.981   7.732   6.121
16884TIP3    H250538   5.922   7.861   6.179
16885TIP3   OH250539   5.221   9.032   4.286
16885TIP3    H150540   5.316   9.026   4.266
16885TIP3    H250541   5.191   9.081   4.207
16886TIP3   OH250542   4.699   8.415   4.499
16886TIP3    H150543   4.795   8.435   4.488
16886TIP3    H250544   4.694   8.325   4.460
16887TIP3   OH250545   4.615   9.025   4.917
16887TIP3    H150546   4.549   8.963   4.880
16887TIP3    H250547   4.660   8.967   4.983
16888TIP3   OH250548   4.750   8.875   5.103
16888TIP3    H150549   4.740   8.802   5.167
16888TIP3    H250550   4.802   8.937   5.158
16889TIP3   OH250551   6.483   9.270   4.901
16889TIP3    H150552   6.501   9.306   4.989
16889TIP3    H250553   6.536   9.327   4.843
16890TIP3   OH250554   6.503   9.303   5.181
16890TIP3    H150555   6.458   9.215   5.178
16890TIP3    H250556   6.574   9.281   5.242
16891TIP3   OH250557   6.373   8.485   4.370
16891TIP3    H150558   6.444   8.549   4.355
16891TIP3    H250559   6.395   8.452   4.460
16892TIP3   OH250560   6.511   8.356   4.576
16892TIP3    H150561   6.437   8.309   4.623
16892TIP3    H250562   6.542   8.412   4.648
16893TIP3   OH250563   6.563   8.753   5.019
16893TIP3    H150564   6.598   8.683   4.962
16893TIP3    H250565   6.531   8.819   4.956
16894TIP3   OH250566   6.391   9.056   5.213
16894TIP3    H150567   6.317   9.093   5.266
16894TIP3    H250568   6.340   9.005   5.145
16895TIP3   OH250569   6.437   8.260   4.226
16895TIP3    H150570   6.363   8.267   4.161
16895TIP3    H250571   6.412   8.335   4.285
16896TIP3   OH250572   6.313   7.930   4.175
16896TIP3    H150573   6.257   7.976   4.112
16896TIP3    H250574   6.285   7.837   4.164
16897TIP3   OH250575   6.355   8.191   4.728
16897TIP3    H150576   6.302   8.118   4.758
16897TIP3    H250577   6.295   8.268   4.744
16898TIP3   OH250578   4.937   8.284   5.475
16898TIP3    H150579   4.934   8.252   5.383
16898TIP3    H250580   5.035   8.285   5.491
16899TIP3   OH250581   6.596   8.626   5.589
16899TIP3    H150582   6.672   8.566   5.576
16899TIP3    H250583   6.619   8.700   5.529
16900TIP3   OH250584   6.796   8.437   5.592
16900TIP3    H150585   6.715   8.394   5.629
16900TIP3    H250586   6.864   8.375   5.624
16901TIP3   OH250587   6.252   7.662   4.155
16901TIP3    H150588   6.326   7.641   4.217
16901TIP3    H250589   6.178   7.611   4.192
16902TIP3   OH250590   6.294   7.913   4.620
16902TIP3    H150591   6.346   7.829   4.629
16902TIP3    H250592   6.360   7.971   4.580
16903TIP3   OH250593   6.478   8.087   5.119
16903TIP3    H150594   6.560   8.121   5.079
16903TIP3    H250595   6.482   8.132   5.205
16904TIP3   OH250596   6.539   8.249   5.342
16904TIP3    H150597   6.461   8.274   5.396
16904TIP3    H250598   6.562   8.335   5.301
16905TIP3   OH250599   5.157   7.973   6.152
16905TIP3    H150600   5.255   7.964   6.153
16905TIP3    H250601   5.132   7.886   6.189
16906TIP3   OH250602   6.992   7.844   5.905
16906TIP3    H150603   7.050   7.775   5.865
16906TIP3    H250604   6.968   7.896   5.825
16907TIP3   OH250605   6.422   7.671   4.655
16907TIP3    H150606   6.466   7.659   4.742
16907TIP3    H250607   6.357   7.598   4.657
16908TIP3   OH250608   5.117   7.661   5.471
16908TIP3    H150609   5.179   7.586   5.486
16908TIP3    H250610   5.179   7.736   5.473
16909TIP3   OH250611   4.920   7.934   5.554
16909TIP3    H150612   4.967   7.932   5.468
16909TIP3    H250613   4.945   8.021   5.587
16910TIP3   OH250614   6.864   7.986   5.701
16910TIP3    H150615   6.779   8.012   5.742
16910TIP3    H250616   6.836   7.906   5.653
16911TIP3   OH250617   6.495   7.615   4.289
16911TIP3    H150618   6.540   7.540   4.245
16911TIP3    H250619   6.564   7.684   4.289
16912TIP3   OH250620   4.900   7.433   5.049
16912TIP3    H150621   4.810   7.433   5.086
16912TIP3    H250622   4.894   7.498   4.977
16913TIP3   OH250623   6.062   9.143   4.559
16913TIP3    H150624   6.115   9.130   4.478
16913TIP3    H250625   6.115   9.210   4.606
16914TIP3   OH250626   5.123   7.521   5.868
16914TIP3    H150627   5.072   7.514   5.951
16914TIP3    H250628   5.056   7.558   5.808
16915TIP3   OH250629   5.162   8.949   5.943
16915TIP3    H150630   5.071   8.921   5.925
16915TIP3    H250631   5.171   8.928   6.037
16916TIP3   OH250632   5.341   8.980   5.492
16916TIP3    H150633   5.293   9.056   5.453
16916TIP3    H250634   5.427   8.994   5.447
16917TIP3   OH250635   5.782   9.226   5.627
16917TIP3    H150636   5.825   9.226   5.716
16917TIP3    H250637   5.848   9.278   5.576
16918TIP3   OH250638   5.961   9.380   5.487
16918TIP3    H150639   6.031   9.326   5.446
16918TIP3    H250640   6.014   9.433   5.550
16919TIP3   OH250641   6.761   7.736   5.588
16919TIP3    H150642   6.669   7.720   5.564
16919TIP3    H250643   6.797   7.644   5.579
16920TIP3   OH250644   5.017   9.238   5.515
16920TIP3    H150645   4.928   9.272   5.492
16920TIP3    H250646   5.027   9.274   5.604
16921TIP3   OH250647   5.254   9.216   5.374
16921TIP3    H150648   5.167   9.228   5.418
16921TIP3    H250649   5.234   9.248   5.284
16922TIP3   OH250650   5.680   9.244   5.172
16922TIP3    H150651   5.610   9.263   5.106
16922TIP3    H250652   5.691   9.332   5.214
16923TIP3   OH250653   5.949   9.186   5.227
16923TIP3    H150654   5.854   9.198   5.206
16923TIP3    H250655   5.989   9.261   5.180
16924TIP3   OH250656   6.161   9.379   5.140
16924TIP3    H150657   6.143   9.461   5.089
16924TIP3    H250658   6.182   9.315   5.068
16925TIP3   OH250659   4.929   9.031   5.261
16925TIP3    H150660   4.955   9.003   5.351
16925TIP3    H250661   5.000   8.987   5.210
16926TIP3   OH250662   5.123   8.902   5.118
16926TIP3    H150663   5.138   8.818   5.168
16926TIP3    H250664   5.214   8.938   5.114
16927TIP3   OH250665   5.389   8.996   5.122
16927TIP3    H150666   5.420   8.905   5.109
16927TIP3    H250667   5.434   9.018   5.205
16928TIP3   OH250668   5.960   7.650   5.205
16928TIP3    H150669   5.918   7.582   5.260
16928TIP3    H250670   6.035   7.602   5.165
16929TIP3   OH250671   6.486   7.534   5.110
16929TIP3    H150672   6.521   7.586   5.035
16929TIP3    H250673   6.390   7.551   5.105
16930TIP3   OH250674   6.583   7.634   4.875
16930TIP3    H150675   6.658   7.583   4.838
16930TIP3    H250676   6.616   7.726   4.860
16931TIP3   OH250677   5.211   7.365   5.218
16931TIP3    H150678   5.120   7.329   5.225
16931TIP3    H250679   5.262   7.281   5.218
16932TIP3   OH250680   4.991   7.226   4.885
16932TIP3    H150681   4.990   7.291   4.814
16932TIP3    H250682   4.962   7.280   4.961
16933TIP3   OH250683   5.639   7.417   5.097
16933TIP3    H150684   5.711   7.455   5.043
16933TIP3    H250685   5.674   7.426   5.187
16934TIP3   OH250686   6.205   7.541   5.089
16934TIP3    H150687   6.200   7.499   5.002
16934TIP3    H250688   6.192   7.462   5.148
16935TIP3   OH250689   6.233   7.463   4.651
16935TIP3    H150690   6.147   7.508   4.668
16935TIP3    H250691   6.219   7.379   4.698
16936TIP3   OH250692   4.718   8.802   4.650
16936TIP3    H150693   4.632   8.769   4.617
16936TIP3    H250694   4.706   8.897   4.633
16937TIP3   OH250695   5.195   7.436   4.620
16937TIP3    H150696   5.201   7.354   4.566
16937TIP3    H250697   5.175   7.398   4.707
16938TIP3   OH250698   5.597   7.587   4.717
16938TIP3    H150699   5.636   7.517   4.770
16938TIP3    H250700   5.636   7.667   4.759
16939TIP3   OH250701   5.488   8.991   4.233
16939TIP3    H150702   5.577   9.013   4.197
16939TIP3    H250703   5.467   8.915   4.174
16940TIP3   OH250704   6.211   9.111   4.327
16940TIP3    H150705   6.203   9.013   4.315
16940TIP3    H250706   6.162   9.142   4.247
16941TIP3   OH250707   5.421   7.644   6.116
16941TIP3    H150708   5.387   7.573   6.172
16941TIP3    H250709   5.516   7.643   6.143
16942TIP3   OH250710   5.670   7.639   6.234
16942TIP3    H150711   5.756   7.613   6.196
16942TIP3    H250712   5.658   7.569   6.302
16943TIP3   OH250713   4.792   8.828   4.290
16943TIP3    H150714   4.793   8.850   4.384
16943TIP3    H250715   4.880   8.786   4.277
16944TIP3   OH250716   6.493   7.698   6.029
16944TIP3    H150717   6.504   7.653   6.115
16944TIP3    H250718   6.583   7.691   5.991
16945TIP3   OH250719   6.423   9.257   5.538
16945TIP3    H150720   6.358   9.218   5.477
16945TIP3    H250721   6.405   9.352   5.523
16946TIP3   OH250722   7.699   8.630   4.273
16946TIP3    H150723   7.664   8.718   4.291
16946TIP3    H250724   7.621   8.583   4.238
16947TIP3   OH250725   7.696   8.626   4.663
16947TIP3    H150726   7.731   8.599   4.750
16947TIP3    H250727   7.657   8.542   4.632
16948TIP3   OH250728   7.008   8.528   5.024
16948TIP3    H150729   7.039   8.529   5.115
16948TIP3    H250730   7.082   8.568   4.977
16949TIP3   OH250731   7.937   8.922   4.342
16949TIP3    H150732   7.935   8.858   4.414
16949TIP3    H250733   7.964   9.003   4.389
16950TIP3   OH250734   6.976   8.935   4.754
16950TIP3    H150735   6.966   8.838   4.757
16950TIP3    H250736   7.071   8.941   4.734
16951TIP3   OH250737   6.681   8.140   4.537
16951TIP3    H150738   6.627   8.220   4.557
16951TIP3    H250739   6.610   8.081   4.507
16952TIP3   OH250740   6.756   8.434   4.713
16952TIP3    H150741   6.791   8.348   4.743
16952TIP3    H250742   6.778   8.433   4.619
16953TIP3   OH250743   7.593   9.392   4.360
16953TIP3    H150744   7.633   9.323   4.302
16953TIP3    H250745   7.586   9.343   4.443
16954TIP3   OH250746   7.497   8.850   4.714
16954TIP3    H150747   7.535   8.773   4.669
16954TIP3    H250748   7.581   8.896   4.738
16955TIP3   OH250749   7.911   8.355   4.741
16955TIP3    H150750   7.951   8.268   4.763
16955TIP3    H250751   7.878   8.337   4.651
16956TIP3   OH250752   7.248   8.012   4.707
16956TIP3    H150753   7.227   8.084   4.644
16956TIP3    H250754   7.200   7.938   4.664
16957TIP3   OH250755   7.943   8.103   4.328
16957TIP3    H150756   8.015   8.089   4.394
16957TIP3    H250757   7.996   8.138   4.253
16958TIP3   OH250758   6.880   8.211   4.814
16958TIP3    H150759   6.964   8.191   4.860
16958TIP3    H250760   6.890   8.156   4.734
16959TIP3   OH250761   7.321   8.412   4.610
16959TIP3    H150762   7.415   8.386   4.622
16959TIP3    H250763   7.282   8.329   4.578
16960TIP3   OH250764   8.595   8.372   4.888
16960TIP3    H150765   8.515   8.413   4.851
16960TIP3    H250766   8.602   8.416   4.975
16961TIP3   OH250767   7.240   8.000   5.156
16961TIP3    H150768   7.174   8.032   5.092
16961TIP3    H250769   7.190   7.935   5.208
16962TIP3   OH250770   7.353   8.780   4.936
16962TIP3    H150771   7.277   8.839   4.947
16962TIP3    H250772   7.401   8.822   4.861
16963TIP3   OH250773   8.150   8.110   4.503
16963TIP3    H150774   8.133   8.067   4.588
16963TIP3    H250775   8.203   8.187   4.532
16964TIP3   OH250776   7.116   8.107   4.929
16964TIP3    H150777   7.178   8.180   4.953
16964TIP3    H250778   7.164   8.068   4.852
16965TIP3   OH250779   6.581   8.657   4.270
16965TIP3    H150780   6.527   8.684   4.193
16965TIP3    H250781   6.607   8.743   4.307
16966TIP3   OH250782   8.012   9.168   4.510
16966TIP3    H150783   7.922   9.158   4.551
16966TIP3    H250784   7.999   9.253   4.464
16967TIP3   OH250785   7.601   7.711   4.854
16967TIP3    H150786   7.590   7.616   4.875
16967TIP3    H250787   7.523   7.748   4.901
16968TIP3   OH250788   7.735   9.224   4.202
16968TIP3    H150789   7.767   9.138   4.169
16968TIP3    H250790   7.786   9.285   4.146
16969TIP3   OH250791   7.859   9.002   4.086
16969TIP3    H150792   7.820   8.925   4.044
16969TIP3    H250793   7.893   8.966   4.171
16970TIP3   OH250794   8.234   9.084   4.854
16970TIP3    H150795   8.227   9.007   4.793
16970TIP3    H250796   8.220   9.159   4.792
16971TIP3   OH250797   7.530   8.480   4.110
16971TIP3    H150798   7.449   8.530   4.089
16971TIP3    H250799   7.576   8.477   4.024
16972TIP3   OH250800   7.489   8.264   3.826
16972TIP3    H150801   7.556   8.313   3.877
16972TIP3    H250802   7.546   8.201   3.778
16973TIP3   OH250803   8.435   8.723   4.703
16973TIP3    H150804   8.350   8.773   4.707
16973TIP3    H250805   8.461   8.743   4.610
16974TIP3   OH250806   7.880   8.559   4.081
16974TIP3    H150807   7.824   8.584   4.159
16974TIP3    H250808   7.963   8.533   4.126
16975TIP3   OH250809   8.114   8.599   4.996
16975TIP3    H150810   8.111   8.681   5.048
16975TIP3    H250811   8.028   8.604   4.949
16976TIP3   OH250812   7.108   8.557   4.500
16976TIP3    H150813   7.066   8.500   4.433
16976TIP3    H250814   7.184   8.503   4.529
16977TIP3   OH250815   7.242   8.960   4.649
16977TIP3    H150816   7.221   8.913   4.566
16977TIP3    H250817   7.333   8.931   4.666
16978TIP3   OH250818   7.258   8.530   4.857
16978TIP3    H150819   7.281   8.508   4.764
16978TIP3    H250820   7.299   8.618   4.869
16979TIP3   OH250821   7.773   9.166   4.635
16979TIP3    H150822   7.756   9.248   4.684
16979TIP3    H250823   7.755   9.095   4.701
16980TIP3   OH250824   7.719   8.418   3.909
16980TIP3    H150825   7.778   8.477   3.960
16980TIP3    H250826   7.744   8.442   3.816
16981TIP3   OH250827   7.124   8.646   5.276
16981TIP3    H150828   7.138   8.684   5.364
16981TIP3    H250829   7.030   8.620   5.286
16982TIP3   OH250830   7.139   9.193   5.290
16982TIP3    H150831   7.150   9.196   5.192
16982TIP3    H250832   7.088   9.274   5.301
16983TIP3   OH250833   8.236   7.657   3.938
16983TIP3    H150834   8.178   7.648   4.016
16983TIP3    H250835   8.229   7.752   3.919
16984TIP3   OH250836   6.978   8.401   4.301
16984TIP3    H150837   6.909   8.445   4.248
16984TIP3    H250838   6.936   8.316   4.322
16985TIP3   OH250839   8.032   9.023   3.502
16985TIP3    H150840   8.032   9.120   3.484
16985TIP3    H250841   8.125   8.999   3.483
16986TIP3   OH250842   6.763   8.782   5.207
16986TIP3    H150843   6.689   8.779   5.143
16986TIP3    H250844   6.788   8.689   5.213
16987TIP3   OH250845   6.608   8.986   4.832
16987TIP3    H150846   6.704   8.980   4.836
16987TIP3    H250847   6.589   9.062   4.890
16988TIP3   OH250848   8.464   9.420   4.893
16988TIP3    H150849   8.474   9.325   4.915
16988TIP3    H250850   8.383   9.444   4.942
16989TIP3   OH250851   7.588   9.224   5.032
16989TIP3    H150852   7.592   9.319   5.058
16989TIP3    H250853   7.517   9.194   5.090
16990TIP3   OH250854   7.250   9.354   3.970
16990TIP3    H150855   7.296   9.332   3.886
16990TIP3    H250856   7.298   9.435   3.996
16991TIP3   OH250857   6.779   9.190   4.364
16991TIP3    H150858   6.833   9.183   4.445
16991TIP3    H250859   6.723   9.111   4.371
16992TIP3   OH250860   7.543   9.247   3.629
16992TIP3    H150861   7.601   9.175   3.595
16992TIP3    H250862   7.569   9.252   3.723
16993TIP3   OH250863   7.570   9.290   3.910
16993TIP3    H150864   7.488   9.261   3.953
16993TIP3    H250865   7.632   9.235   3.961
16994TIP3   OH250866   8.367   8.560   5.174
16994TIP3    H150867   8.285   8.566   5.122
16994TIP3    H250868   8.381   8.464   5.177
16995TIP3   OH250869   7.364   7.791   4.979
16995TIP3    H150870   7.273   7.760   4.958
16995TIP3    H250871   7.344   7.879   5.013
16996TIP3   OH250872   7.898   7.907   5.179
16996TIP3    H150873   7.965   7.879   5.245
16996TIP3    H250874   7.814   7.886   5.225
16997TIP3   OH250875   8.135   8.335   5.096
16997TIP3    H150876   8.087   8.331   5.182
16997TIP3    H250877   8.110   8.423   5.062
16998TIP3   OH250878   7.791   8.461   3.650
16998TIP3    H150879   7.762   8.436   3.561
16998TIP3    H250880   7.872   8.512   3.630
16999TIP3   OH250881   7.504   7.843   3.953
16999TIP3    H150882   7.476   7.840   4.047
16999TIP3    H250883   7.468   7.756   3.923
17000TIP3   OH250884   7.295   8.306   5.004
17000TIP3    H150885   7.304   8.354   5.089
17000TIP3    H250886   7.276   8.382   4.943
17001TIP3   OH250887   7.177   8.194   4.518
17001TIP3    H150888   7.085   8.166   4.536
17001TIP3    H250889   7.190   8.153   4.429
17002TIP3   OH250890   7.669   8.280   4.246
17002TIP3    H150891   7.616   8.350   4.202
17002TIP3    H250892   7.722   8.246   4.171
17003TIP3   OH250893   7.846   8.556   5.331
17003TIP3    H150894   7.823   8.483   5.393
17003TIP3    H250895   7.940   8.570   5.355
17004TIP3   OH250896   7.825   8.307   4.482
17004TIP3    H150897   7.764   8.332   4.410
17004TIP3    H250898   7.860   8.224   4.442
17005TIP3   OH250899   7.155   7.810   3.920
17005TIP3    H150900   7.159   7.803   4.018
17005TIP3    H250901   7.080   7.871   3.911
17006TIP3   OH250902   6.708   7.857   4.789
17006TIP3    H150903   6.783   7.888   4.844
17006TIP3    H250904   6.750   7.822   4.709
17007TIP3   OH250905   6.678   7.837   4.307
17007TIP3    H150906   6.727   7.877   4.233
17007TIP3    H250907   6.617   7.910   4.331
17008TIP3   OH250908   7.833   8.552   4.906
17008TIP3    H150909   7.867   8.481   4.847
17008TIP3    H250910   7.807   8.499   4.984
17009TIP3   OH250911   7.508   8.020   4.579
17009TIP3    H150912   7.425   8.012   4.630
17009TIP3    H250913   7.576   8.010   4.648
17010TIP3   OH250914   6.941   8.070   4.584
17010TIP3    H150915   6.846   8.080   4.558
17010TIP3    H250916   6.961   7.978   4.562
17011TIP3   OH250917   7.208   8.067   4.277
17011TIP3    H150918   7.302   8.080   4.256
17011TIP3    H250919   7.162   8.088   4.193
17012TIP3   OH250920   7.979   8.089   4.773
17012TIP3    H150921   7.957   8.101   4.868
17012TIP3    H250922   7.910   8.026   4.746
17013TIP3   OH250923   7.051   8.096   4.054
17013TIP3    H150924   6.972   8.062   4.008
17013TIP3    H250925   7.102   8.134   3.979
17014TIP3   OH250926   8.163   9.776   4.992
17014TIP3    H150927   8.161   9.790   4.894
17014TIP3    H250928   8.219   9.849   5.019
17015TIP3   OH250929   7.590   8.346   4.676
17015TIP3    H150930   7.659   8.303   4.623
17015TIP3    H250931   7.598   8.299   4.761
17016TIP3   OH250932   7.111   7.828   4.556
17016TIP3    H150933   7.075   7.751   4.605
17016TIP3    H250934   7.169   7.785   4.491
17017TIP3   OH250935   7.568   8.239   4.960
17017TIP3    H150936   7.478   8.274   4.974
17017TIP3    H250937   7.625   8.297   5.015
17018TIP3   OH250938   7.301   8.625   4.059
17018TIP3    H150939   7.227   8.562   4.054
17018TIP3    H250940   7.286   8.666   4.147
17019TIP3   OH250941   8.200   8.867   4.689
17019TIP3    H150942   8.226   8.916   4.607
17019TIP3    H250943   8.116   8.825   4.662
17020TIP3   OH250944   7.756   7.947   3.914
17020TIP3    H150945   7.661   7.928   3.931
17020TIP3    H250946   7.768   8.038   3.949
17021TIP3   OH250947   7.678   8.944   5.079
17021TIP3    H150948   7.748   8.930   5.144
17021TIP3    H250949   7.680   9.040   5.065
17022TIP3   OH250950   7.828   8.189   4.026
17022TIP3    H150951   7.925   8.194   4.043
17022TIP3    H250952   7.811   8.270   3.975
17023TIP3   OH250953   7.010   8.661   4.740
17023TIP3    H150954   7.033   8.632   4.649
17023TIP3    H250955   7.013   8.577   4.787
17024TIP3   OH250956   7.442   8.769   3.863
17024TIP3    H150957   7.442   8.857   3.907
17024TIP3    H250958   7.392   8.719   3.930
17025TIP3   OH250959   6.886   8.526   5.344
17025TIP3    H150960   6.875   8.536   5.440
17025TIP3    H250961   6.794   8.506   5.316
17026TIP3   OH250962   7.607   8.683   5.367
17026TIP3    H150963   7.559   8.636   5.297
17026TIP3    H250964   7.698   8.653   5.348
17027TIP3   OH250965   7.859   9.194   4.964
17027TIP3    H150966   7.763   9.210   4.965
17027TIP3    H250967   7.889   9.255   5.034
17028TIP3   OH250968   8.271   8.280   3.862
17028TIP3    H150969   8.209   8.235   3.801
17028TIP3    H250970   8.267   8.370   3.821
17029TIP3   OH250971   8.484   9.134   4.944
17029TIP3    H150972   8.387   9.129   4.932
17029TIP3    H250973   8.513   9.107   4.854
17030TIP3   OH250974   7.971   9.097   3.769
17030TIP3    H150975   7.943   9.032   3.835
17030TIP3    H250976   7.981   9.045   3.687
17031TIP3   OH250977   7.965   8.729   4.606
17031TIP3    H150978   7.873   8.702   4.620
17031TIP3    H250979   8.002   8.649   4.564
17032TIP3   OH250980   7.092   8.947   4.369
17032TIP3    H150981   7.121   9.032   4.334
17032TIP3    H250982   6.996   8.959   4.375
17033TIP3   OH250983   6.657   8.261   4.064
17033TIP3    H150984   6.702   8.345   4.088
17033TIP3    H250985   6.580   8.264   4.126
17034TIP3   OH250986   7.235   8.715   4.306
17034TIP3    H150987   7.197   8.805   4.315
17034TIP3    H250988   7.192   8.670   4.381
17035TIP3   OH250989   7.364   9.300   4.830
17035TIP3    H150990   7.399   9.374   4.776
17035TIP3    H250991   7.446   9.267   4.870
17036TIP3   OH250992   7.748   8.933   4.795
17036TIP3    H150993   7.742   8.921   4.892
17036TIP3    H250994   7.829   8.885   4.774
17037TIP3   OH250995   7.726   8.825   3.673
17037TIP3    H150996   7.779   8.799   3.751
17037TIP3    H250997   7.636   8.807   3.706
17038TIP3   OH250998   7.999   9.469   4.837
17038TIP3    H150999   7.916   9.419   4.822
17038TIP3    H251000   7.991   9.537   4.767
17039TIP3   OH251001   8.046   9.298   3.479
17039TIP3    H151002   8.087   9.367   3.424
17039TIP3    H251003   7.971   9.349   3.517
17040TIP3   OH251004   7.888   8.758   3.886
17040TIP3    H151005   7.879   8.691   3.958
17040TIP3    H251006   7.986   8.757   3.875
17041TIP3   OH251007   6.799   9.168   4.979
17041TIP3    H151008   6.848   9.091   5.012
17041TIP3    H251009   6.824   9.237   5.042
17042TIP3   OH251010   7.089   8.807   3.673
17042TIP3    H151011   7.111   8.719   3.639
17042TIP3    H251012   7.068   8.788   3.766
17043TIP3   OH251013   7.062   8.836   3.953
17043TIP3    H151014   7.092   8.775   4.021
17043TIP3    H251015   7.140   8.893   3.944
17044TIP3   OH251016   6.773   8.505   4.147
17044TIP3    H151017   6.707   8.549   4.205
17044TIP3    H251018   6.785   8.576   4.081
17045TIP3   OH251019   7.920   8.145   5.040
17045TIP3    H151020   8.002   8.182   5.078
17045TIP3    H251021   7.907   8.064   5.094
17046TIP3   OH251022   7.786   7.905   4.206
17046TIP3    H151023   7.791   7.920   4.110
17046TIP3    H251024   7.837   7.980   4.242
17047TIP3   OH251025   7.490   8.075   4.307
17047TIP3    H151026   7.556   8.145   4.289
17047TIP3    H251027   7.495   8.067   4.405
17048TIP3   OH251028   7.761   8.392   5.115
17048TIP3    H151029   7.787   8.441   5.195
17048TIP3    H251030   7.814   8.311   5.123
17049TIP3   OH251031   7.638   7.802   4.412
17049TIP3    H151032   7.628   7.880   4.469
17049TIP3    H251033   7.693   7.840   4.339
17050TIP3   OH251034   7.150   7.799   4.195
17050TIP3    H151035   7.146   7.887   4.236
17050TIP3    H251036   7.246   7.780   4.207
17051TIP3   OH251037   8.402   8.290   5.096
17051TIP3    H151038   8.303   8.288   5.096
17051TIP3    H251039   8.422   8.283   5.002
17052TIP3   OH251040   8.053   8.487   4.485
17052TIP3    H151041   7.978   8.426   4.496
17052TIP3    H251042   8.126   8.439   4.532
17053TIP3   OH251043   6.770   8.714   3.954
17053TIP3    H151044   6.837   8.785   3.961
17053TIP3    H251045   6.810   8.658   3.885
17054TIP3   OH251046   6.711   7.991   4.076
17054TIP3    H151047   6.709   8.089   4.079
17054TIP3    H251048   6.618   7.971   4.062
17055TIP3   OH251049   7.994   9.436   4.435
17055TIP3    H151050   7.950   9.481   4.359
17055TIP3    H251051   8.087   9.456   4.412
17056TIP3   OH251052   7.098   7.714   4.962
17056TIP3    H151053   7.068   7.677   4.876
17056TIP3    H251054   7.089   7.635   5.021
17057TIP3   OH251055   6.630   8.926   4.340
17057TIP3    H151056   6.567   8.957   4.407
17057TIP3    H251057   6.597   8.971   4.259
17058TIP3   OH251058   6.800   9.467   5.427
17058TIP3    H151059   6.890   9.487   5.462
17058TIP3    H251060   6.799   9.371   5.418
17059TIP3   OH251061   7.277   9.419   5.455
17059TIP3    H151062   7.369   9.417   5.488
17059TIP3    H251063   7.292   9.404   5.361
17060TIP3   OH251064   7.253   9.012   3.588
17060TIP3    H151065   7.200   8.938   3.625
17060TIP3    H251066   7.334   8.965   3.561
17061TIP3   OH251067   7.910   9.344   5.189
17061TIP3    H151068   7.901   9.270   5.253
17061TIP3    H251069   7.987   9.393   5.221
17062TIP3   OH251070   7.691   9.052   3.497
17062TIP3    H151071   7.735   8.988   3.556
17062TIP3    H251072   7.746   9.050   3.417
17063TIP3   OH251073   6.896   8.832   5.646
17063TIP3    H151074   6.944   8.766   5.595
17063TIP3    H251075   6.845   8.880   5.577
17064TIP3   OH251076   6.903   8.529   3.807
17064TIP3    H151077   6.956   8.491   3.880
17064TIP3    H251078   6.971   8.533   3.736
17065TIP3   OH251079   7.525   8.950   5.368
17065TIP3    H151080   7.529   8.940   5.272
17065TIP3    H251081   7.570   8.867   5.394
17066TIP3   OH251082   7.400   8.722   3.600
17066TIP3    H151083   7.406   8.741   3.696
17066TIP3    H251084   7.404   8.624   3.602
17067TIP3   OH251085   8.020   8.974   4.992
17067TIP3    H151086   8.100   9.009   4.947
17067TIP3    H251087   7.958   9.048   4.975
17068TIP3   OH251088   7.070   8.617   5.582
17068TIP3    H151089   7.132   8.544   5.590
17068TIP3    H251090   7.072   8.653   5.674
17069TIP3   OH251091   7.101   8.432   4.026
17069TIP3    H151092   7.076   8.394   4.112
17069TIP3    H251093   7.142   8.355   3.981
17070TIP3   OH251094   7.353   8.466   5.220
17070TIP3    H151095   7.291   8.536   5.244
17070TIP3    H251096   7.419   8.517   5.166
17071TIP3   OH251097   7.212   8.225   3.872
17071TIP3    H151098   7.187   8.235   3.778
17071TIP3    H251099   7.309   8.231   3.866
17072TIP3   OH251100   7.892   8.894   5.386
17072TIP3    H151101   7.975   8.869   5.343
17072TIP3    H251102   7.890   8.832   5.461
17073TIP3   OH251103   8.031   8.556   3.531
17073TIP3    H151104   8.009   8.510   3.447
17073TIP3    H251105   7.997   8.646   3.509
17074TIP3   OH251106   7.498   8.285   5.382
17074TIP3    H151107   7.505   8.200   5.334
17074TIP3    H251108   7.450   8.340   5.316
17075TIP3   OH251109   7.502   8.075   5.191
17075TIP3    H151110   7.530   8.108   5.104
17075TIP3    H251111   7.407   8.056   5.178
17076TIP3   OH251112   7.527   8.612   5.075
17076TIP3    H151113   7.610   8.607   5.026
17076TIP3    H251114   7.477   8.679   5.025
17077TIP3   OH251115   8.113   8.574   5.442
17077TIP3    H151116   8.155   8.490   5.466
17077TIP3    H251117   8.187   8.624   5.407
17078TIP3   OH251118   8.152   8.829   5.179
17078TIP3    H151119   8.096   8.883   5.119
17078TIP3    H251120   8.240   8.846   5.138
17079TIP3   OH251121   7.363   8.403   5.600
17079TIP3    H151122   7.306   8.327   5.624
17079TIP3    H251123   7.410   8.368   5.522
17080TIP3   OH251124   7.637   7.834   5.251
17080TIP3    H151125   7.585   7.915   5.234
17080TIP3    H251126   7.568   7.765   5.245
17081TIP3   OH251127   7.761   8.342   5.474
17081TIP3    H151128   7.756   8.325   5.570
17081TIP3    H251129   7.671   8.314   5.448
17082TIP3   OH251130   8.001   8.289   5.326
17082TIP3    H151131   7.926   8.287   5.390
17082TIP3    H251132   8.075   8.257   5.381
17083TIP3   OH251133   8.226   8.224   5.475
17083TIP3    H151134   8.240   8.130   5.495
17083TIP3    H251135   8.222   8.265   5.564
17084TIP3   OH251136   7.227   8.172   5.662
17084TIP3    H151137   7.226   8.077   5.634
17084TIP3    H251138   7.266   8.161   5.752
17085TIP3   OH251139   7.736   7.850   5.508
17085TIP3    H151140   7.797   7.774   5.510
17085TIP3    H251141   7.692   7.837   5.422
17086TIP3   OH251142   7.800   8.063   5.667
17086TIP3    H151143   7.778   7.988   5.607
17086TIP3    H251144   7.717   8.115   5.665
17087TIP3   OH251145   7.025   9.274   3.801
17087TIP3    H151146   7.115   9.275   3.759
17087TIP3    H251147   6.975   9.316   3.729
17088TIP3   OH251148   6.496   8.674   3.981
17088TIP3    H151149   6.592   8.693   3.975
17088TIP3    H251150   6.491   8.583   3.945
17089TIP3   OH251151   6.414   9.281   4.402
17089TIP3    H151152   6.346   9.221   4.366
17089TIP3    H251153   6.457   9.221   4.467
17090TIP3   OH251154   6.548   9.129   4.587
17090TIP3    H151155   6.534   9.059   4.654
17090TIP3    H251156   6.598   9.193   4.641
17091TIP3   OH251157   8.238   9.532   4.385
17091TIP3    H151158   8.279   9.553   4.471
17091TIP3    H251159   8.295   9.586   4.328
17092TIP3   OH251160   8.311   9.548   4.668
17092TIP3    H151161   8.267   9.461   4.666
17092TIP3    H251162   8.389   9.525   4.722
17093TIP3   OH251163   8.348   9.237   5.243
17093TIP3    H151164   8.276   9.241   5.310
17093TIP3    H251165   8.386   9.325   5.245
17094TIP3   OH251166   8.167   8.742   3.865
17094TIP3    H151167   8.237   8.805   3.837
17094TIP3    H251168   8.209   8.703   3.945
17095TIP3   OH251169   8.294   8.611   4.069
17095TIP3    H151170   8.228   8.568   4.128
17095TIP3    H251171   8.358   8.649   4.132
17096TIP3   OH251172   8.346   9.002   4.499
17096TIP3    H151173   8.401   8.937   4.449
17096TIP3    H251174   8.341   9.077   4.436
17097TIP3   OH251175   8.177   9.303   4.693
17097TIP3    H151176   8.106   9.347   4.742
17097TIP3    H251177   8.128   9.255   4.623
17098TIP3   OH251178   8.232   8.518   3.714
17098TIP3    H151179   8.159   8.521   3.648
17098TIP3    H251180   8.205   8.594   3.770
17099TIP3   OH251181   8.102   8.191   3.669
17099TIP3    H151182   8.058   8.228   3.591
17099TIP3    H251183   8.078   8.096   3.660
17100TIP3   OH251184   8.107   8.467   4.215
17100TIP3    H151185   8.116   8.371   4.209
17100TIP3    H251186   8.094   8.481   4.311
17101TIP3   OH251187   6.737   8.524   4.968
17101TIP3    H151188   6.732   8.502   4.872
17101TIP3    H251189   6.834   8.530   4.979
17102TIP3   OH251190   8.395   8.891   5.067
17102TIP3    H151191   8.468   8.825   5.060
17102TIP3    H251192   8.426   8.962   5.009
17103TIP3   OH251193   8.582   8.698   5.087
17103TIP3    H151194   8.507   8.646   5.124
17103TIP3    H251195   8.655   8.634   5.102
17104TIP3   OH251196   8.045   7.925   3.649
17104TIP3    H151197   8.124   7.900   3.702
17104TIP3    H251198   7.976   7.867   3.684
17105TIP3   OH251199   8.104   8.184   4.108
17105TIP3    H151200   8.146   8.096   4.124
17105TIP3    H251201   8.162   8.216   4.037
17106TIP3   OH251202   8.267   8.354   4.604
17106TIP3    H151203   8.352   8.382   4.563
17106TIP3    H251204   8.281   8.388   4.694
17107TIP3   OH251205   8.338   8.498   4.838
17107TIP3    H151206   8.259   8.533   4.884
17107TIP3    H251207   8.371   8.578   4.792
17108TIP3   OH251208   6.974   8.223   5.603
17108TIP3    H151209   7.066   8.215   5.640
17108TIP3    H251210   6.932   8.147   5.649
17109TIP3   OH251211   8.784   8.088   5.389
17109TIP3    H151212   8.845   8.022   5.349
17109TIP3    H251213   8.758   8.141   5.311
17110TIP3   OH251214   8.223   7.940   4.143
17110TIP3    H151215   8.263   7.917   4.229
17110TIP3    H251216   8.152   7.872   4.136
17111TIP3   OH251217   6.911   7.919   4.965
17111TIP3    H151218   6.970   7.842   4.974
17111TIP3    H251219   6.976   7.991   4.954
17112TIP3   OH251220   6.727   8.199   5.051
17112TIP3    H151221   6.769   8.181   4.965
17112TIP3    H251222   6.725   8.296   5.050
17113TIP3   OH251223   8.659   8.233   5.194
17113TIP3    H151224   8.572   8.270   5.219
17113TIP3    H251225   8.630   8.162   5.133
17114TIP3   OH251226   8.291   7.881   3.767
17114TIP3    H151227   8.331   7.798   3.735
17114TIP3    H251228   8.366   7.943   3.769
17115TIP3   OH251229   6.699   7.695   4.538
17115TIP3    H151230   6.606   7.692   4.570
17115TIP3    H251231   6.692   7.755   4.461
17116TIP3   OH251232   7.857   9.405   4.043
17116TIP3    H151233   7.908   9.388   3.960
17116TIP3    H251234   7.916   9.465   4.091
17117TIP3   OH251235   6.921   7.785   5.355
17117TIP3    H151236   6.871   7.767   5.436
17117TIP3    H251237   6.849   7.817   5.297
17118TIP3   OH251238   7.149   9.251   5.010
17118TIP3    H151239   7.094   9.315   4.960
17118TIP3    H251240   7.226   9.251   4.949
17119TIP3   OH251241   7.582   9.484   5.118
17119TIP3    H151242   7.626   9.484   5.206
17119TIP3    H251243   7.647   9.535   5.065
17120TIP3   OH251244   7.760   9.633   4.978
17120TIP3    H151245   7.830   9.587   4.929
17120TIP3    H251246   7.812   9.692   5.036
17121TIP3   OH251247   8.560   7.993   5.086
17121TIP3    H151248   8.466   7.983   5.070
17121TIP3    H251249   8.596   7.906   5.061
17122TIP3   OH251250   6.815   9.492   5.010
17122TIP3    H151251   6.726   9.521   4.978
17122TIP3    H251252   6.820   9.543   5.091
17123TIP3   OH251253   7.050   9.469   4.862
17123TIP3    H151254   6.962   9.482   4.905
17123TIP3    H251255   7.031   9.503   4.772
17124TIP3   OH251256   7.473   9.498   4.663
17124TIP3    H151257   7.409   9.517   4.592
17124TIP3    H251258   7.487   9.588   4.700
17125TIP3   OH251259   7.743   9.438   4.716
17125TIP3    H151260   7.650   9.454   4.693
17125TIP3    H251261   7.788   9.507   4.664
17126TIP3   OH251262   7.949   9.633   4.624
17126TIP3    H151263   7.939   9.718   4.576
17126TIP3    H251264   7.970   9.571   4.550
17127TIP3   OH251265   6.727   9.291   4.741
17127TIP3    H151266   6.749   9.260   4.831
17127TIP3    H251267   6.796   9.244   4.690
17128TIP3   OH251268   6.919   9.156   4.600
17128TIP3    H151269   6.933   9.075   4.653
17128TIP3    H251270   7.009   9.195   4.600
17129TIP3   OH251271   7.184   9.250   4.609
17129TIP3    H151272   7.221   9.160   4.601
17129TIP3    H251273   7.225   9.279   4.692
17130TIP3   OH251274   7.759   7.906   4.698
17130TIP3    H151275   7.713   7.839   4.751
17130TIP3    H251276   7.825   7.853   4.650
17131TIP3   OH251277   8.293   7.853   4.611
17131TIP3    H151278   8.313   7.872   4.516
17131TIP3    H251279   8.196   7.835   4.603
17132TIP3   OH251280   8.384   7.892   4.363
17132TIP3    H151281   8.452   7.838   4.318
17132TIP3    H251282   8.417   7.983   4.343
17133TIP3   OH251283   7.010   7.619   4.713
17133TIP3    H151284   6.918   7.584   4.716
17133TIP3    H251285   7.059   7.534   4.710
17134TIP3   OH251286   6.786   7.490   4.357
17134TIP3    H151287   6.821   7.549   4.288
17134TIP3    H251288   6.763   7.553   4.428
17135TIP3   OH251289   7.446   7.658   4.592
17135TIP3    H151290   7.512   7.692   4.530
17135TIP3    H251291   7.482   7.685   4.678
17136TIP3   OH251292   8.024   7.792   4.575
17136TIP3    H151293   8.004   7.758   4.487
17136TIP3    H251294   8.002   7.714   4.631
17137TIP3   OH251295   8.026   7.756   4.125
17137TIP3    H151296   7.932   7.759   4.149
17137TIP3    H251297   8.051   7.669   4.166
17138TIP3   OH251298   6.517   9.060   4.134
17138TIP3    H151299   6.432   9.027   4.101
17138TIP3    H251300   6.504   9.155   4.119
17139TIP3   OH251301   6.915   7.652   4.117
17139TIP3    H151302   6.964   7.586   4.066
17139TIP3    H251303   6.988   7.704   4.157
17140TIP3   OH251304   7.427   7.823   4.219
17140TIP3    H151305   7.483   7.771   4.280
17140TIP3    H251306   7.451   7.914   4.248
17141TIP3   OH251307   7.279   9.257   3.713
17141TIP3    H151308   7.370   9.274   3.682
17141TIP3    H251309   7.266   9.168   3.673
17142TIP3   OH251310   7.998   9.362   3.811
17142TIP3    H151311   7.991   9.264   3.799
17142TIP3    H251312   7.954   9.394   3.730
17143TIP3   OH251313   7.221   7.902   5.618
17143TIP3    H151314   7.185   7.823   5.665
17143TIP3    H251315   7.316   7.895   5.641
17144TIP3   OH251316   7.477   7.899   5.720
17144TIP3    H151317   7.557   7.858   5.684
17144TIP3    H251318   7.461   7.839   5.797
17145TIP3   OH251319   6.587   9.083   3.773
17145TIP3    H151320   6.576   9.108   3.866
17145TIP3    H251321   6.674   9.039   3.772
17146TIP3   OH251322   8.291   7.956   5.509
17146TIP3    H151323   8.309   7.925   5.600
17146TIP3    H251324   8.381   7.952   5.470
17147TIP3   OH251325   8.222   9.506   5.011
17147TIP3    H151326   8.148   9.475   4.954
17147TIP3    H251327   8.210   9.603   5.003
17148TIP3   OH251328   8.799   8.769   4.508
17148TIP3    H151329   8.824   8.704   4.577
17148TIP3    H251330   8.856   8.844   4.532
17149TIP3   OH251331   8.755   9.157   4.214
17149TIP3    H151332   8.769   9.061   4.230
17149TIP3    H251333   8.826   9.199   4.264
17150TIP3   OH251334   8.473   8.392   4.021
17150TIP3    H151335   8.423   8.473   4.038
17150TIP3    H251336   8.404   8.336   3.983
17151TIP3   OH251337   8.533   8.679   4.197
17151TIP3    H151338   8.580   8.600   4.232
17151TIP3    H251339   8.589   8.704   4.122
17152TIP3   OH251340   9.037   8.270   4.196
17152TIP3    H151341   9.023   8.342   4.131
17152TIP3    H251342   8.993   8.196   4.150
17153TIP3   OH251343   8.681   8.473   4.299
17153TIP3    H151344   8.761   8.448   4.349
17153TIP3    H251345   8.693   8.415   4.221
17154TIP3   OH251346   9.115   8.681   4.093
17154TIP3    H151347   9.210   8.660   4.083
17154TIP3    H251348   9.074   8.596   4.064
17155TIP3   OH251349   9.036   8.249   4.629
17155TIP3    H151350   8.978   8.288   4.561
17155TIP3    H251351   8.985   8.272   4.710
17156TIP3   OH251352   8.912   8.369   4.415
17156TIP3    H151353   8.978   8.440   4.435
17156TIP3    H251354   8.957   8.326   4.338
17157TIP3   OH251355   8.370   8.907   3.753
17157TIP3    H151356   8.313   8.945   3.685
17157TIP3    H251357   8.394   8.987   3.804
17158TIP3   OH251358   9.389   7.958   4.349
17158TIP3    H151359   9.379   7.863   4.372
17158TIP3    H251360   9.312   7.996   4.396
17159TIP3   OH251361   8.877   8.791   3.999
17159TIP3    H151362   8.849   8.754   3.913
17159TIP3    H251363   8.969   8.758   4.003
17160TIP3   OH251364   9.059   8.798   4.337
17160TIP3    H151365   9.055   8.758   4.247
17160TIP3    H251366   9.026   8.888   4.319
17161TIP3   OH251367   8.932   8.897   4.756
17161TIP3    H151368   8.938   8.982   4.805
17161TIP3    H251369   8.839   8.875   4.777
17162TIP3   OH251370   8.776   8.657   3.777
17162TIP3    H151371   8.702   8.696   3.727
17162TIP3    H251372   8.740   8.572   3.804
17163TIP3   OH251373   8.546   9.034   4.699
17163TIP3    H151374   8.479   9.013   4.630
17163TIP3    H251375   8.582   8.947   4.722
17164TIP3   OH251376   8.412   9.232   4.333
17164TIP3    H151377   8.505   9.223   4.310
17164TIP3    H251378   8.412   9.306   4.395
17165TIP3   OH251379   8.750   9.213   4.684
17165TIP3    H151380   8.787   9.205   4.774
17165TIP3    H251381   8.682   9.142   4.685
17166TIP3   OH251382   9.156   8.045   4.473
17166TIP3    H151383   9.067   8.016   4.446
17166TIP3    H251384   9.134   8.129   4.517
17167TIP3   OH251385   9.695   8.152   4.657
17167TIP3    H151386   9.764   8.141   4.725
17167TIP3    H251387   9.612   8.146   4.708
17168TIP3   OH251388   9.292   8.081   3.440
17168TIP3    H151389   9.258   8.087   3.531
17168TIP3    H251390   9.248   7.998   3.411
17169TIP3   OH251391   9.085   8.571   4.489
17169TIP3    H151392   9.031   8.582   4.571
17169TIP3    H251393   9.064   8.653   4.440
17170TIP3   OH251394   8.974   8.455   4.006
17170TIP3    H151395   8.882   8.425   4.022
17170TIP3    H251396   8.990   8.415   3.918
17171TIP3   OH251397   8.908   8.590   4.701
17171TIP3    H151398   8.934   8.650   4.772
17171TIP3    H251399   8.895   8.506   4.749
17172TIP3   OH251400   8.946   8.057   3.415
17172TIP3    H151401   8.942   8.060   3.513
17172TIP3    H251402   8.871   8.115   3.390
17173TIP3   OH251403   8.501   8.117   4.276
17173TIP3    H151404   8.576   8.146   4.332
17173TIP3    H251405   8.544   8.084   4.196
17174TIP3   OH251406   8.476   8.095   3.799
17174TIP3    H151407   8.522   8.134   3.721
17174TIP3    H251408   8.413   8.167   3.819
17175TIP3   OH251409   9.283   8.288   4.066
17175TIP3    H151410   9.209   8.276   4.128
17175TIP3    H251411   9.359   8.257   4.120
17176TIP3   OH251412   8.737   8.328   4.071
17176TIP3    H151413   8.642   8.334   4.045
17176TIP3    H251414   8.760   8.236   4.050
17177TIP3   OH251415   9.002   8.323   3.764
17177TIP3    H151416   9.096   8.345   3.748
17177TIP3    H251417   8.958   8.345   3.679
17178TIP3   OH251418   8.840   8.352   3.541
17178TIP3    H151419   8.761   8.305   3.512
17178TIP3    H251420   8.875   8.380   3.455
17179TIP3   OH251421   8.915   9.130   4.905
17179TIP3    H151422   8.978   9.201   4.925
17179TIP3    H251423   8.852   9.140   4.979
17180TIP3   OH251424   8.905   8.087   4.041
17180TIP3    H151425   8.873   8.007   4.088
17180TIP3    H251426   8.956   8.049   3.969
17181TIP3   OH251427   9.356   8.474   4.470
17181TIP3    H151428   9.272   8.522   4.461
17181TIP3    H251429   9.422   8.544   4.475
17182TIP3   OH251430   8.806   8.892   4.239
17182TIP3    H151431   8.821   8.854   4.149
17182TIP3    H251432   8.806   8.814   4.296
17183TIP3   OH251433   8.673   8.825   4.833
17183TIP3    H151434   8.694   8.811   4.928
17183TIP3    H251435   8.601   8.762   4.820
17184TIP3   OH251436   8.453   8.519   3.550
17184TIP3    H151437   8.499   8.603   3.570
17184TIP3    H251438   8.377   8.523   3.613
17185TIP3   OH251439   8.877   8.332   4.842
17185TIP3    H151440   8.780   8.337   4.858
17185TIP3    H251441   8.908   8.289   4.923
17186TIP3   OH251442   8.594   9.408   4.550
17186TIP3    H151443   8.617   9.324   4.594
17186TIP3    H251444   8.654   9.467   4.599
17187TIP3   OH251445   8.573   8.764   3.626
17187TIP3    H151446   8.509   8.817   3.678
17187TIP3    H251447   8.637   8.832   3.597
17188TIP3   OH251448   9.286   8.324   3.797
17188TIP3    H151449   9.372   8.367   3.788
17188TIP3    H251450   9.279   8.320   3.896
17189TIP3   OH251451   9.425   8.063   3.902
17189TIP3    H151452   9.412   8.122   3.979
17189TIP3    H251453   9.492   8.116   3.854
17190TIP3   OH251454   8.941   8.055   3.691
17190TIP3    H151455   8.944   8.146   3.727
17190TIP3    H251456   9.037   8.034   3.696
17191TIP3   OH251457   8.510   8.250   3.573
17191TIP3    H151458   8.504   8.348   3.570
17191TIP3    H251459   8.426   8.223   3.533
17192TIP3   OH251460   8.894   7.962   4.449
17192TIP3    H151461   8.863   7.931   4.360
17192TIP3    H251462   8.883   7.882   4.503
17193TIP3   OH251463   8.401   9.161   3.844
17193TIP3    H151464   8.340   9.221   3.889
17193TIP3    H251465   8.404   9.201   3.755
17194TIP3   OH251466   8.718   9.116   5.094
17194TIP3    H151467   8.728   9.020   5.084
17194TIP3    H251468   8.631   9.134   5.054
17195TIP3   OH251469   8.840   8.854   5.078
17195TIP3    H151470   8.926   8.812   5.063
17195TIP3    H251471   8.847   8.882   5.169
17196TIP3   OH251472   8.894   8.654   3.491
17196TIP3    H151473   8.856   8.618   3.572
17196TIP3    H251474   8.962   8.587   3.468
17197TIP3   OH251475   9.167   8.748   4.735
17197TIP3    H151476   9.094   8.810   4.755
17197TIP3    H251477   9.176   8.758   4.640
17198TIP3   OH251478   9.287   8.536   4.873
17198TIP3    H151479   9.294   8.457   4.815
17198TIP3    H251480   9.256   8.605   4.811
17199TIP3   OH251481   9.293   8.322   4.687
17199TIP3    H151482   9.325   8.365   4.605
17199TIP3    H251483   9.201   8.299   4.663
17200TIP3   OH251484   9.157   8.658   5.085
17200TIP3    H151485   9.097   8.584   5.105
17200TIP3    H251486   9.202   8.625   5.005
17201TIP3   OH251487   9.432   8.089   4.739
17201TIP3    H151488   9.381   8.172   4.723
17201TIP3    H251489   9.362   8.021   4.730
17202TIP3   OH251490   9.546   8.615   4.948
17202TIP3    H151491   9.539   8.605   5.044
17202TIP3    H251492   9.458   8.585   4.921
17203TIP3   OH251493   9.013   8.429   5.146
17203TIP3    H151494   9.023   8.338   5.114
17203TIP3    H251495   9.048   8.420   5.237
17204TIP3   OH251496   9.524   8.095   4.995
17204TIP3    H151497   9.594   8.027   4.991
17204TIP3    H251498   9.489   8.088   4.904
17205TIP3   OH251499   9.555   8.298   5.171
17205TIP3    H151500   9.553   8.234   5.096
17205TIP3    H251501   9.525   8.380   5.129
17206TIP3   OH251502   8.290   8.927   3.458
17206TIP3    H151503   8.385   8.943   3.469
17206TIP3    H251504   8.288   8.834   3.428
17207TIP3   OH251505   8.191   9.536   3.893
17207TIP3    H151506   8.131   9.469   3.857
17207TIP3    H251507   8.250   9.481   3.949
17208TIP3   OH251508   8.336   9.380   4.070
17208TIP3    H151509   8.334   9.312   4.138
17208TIP3    H251510   8.374   9.455   4.118
17209TIP3   OH251511   8.530   8.796   4.449
17209TIP3    H151512   8.525   8.764   4.356
17209TIP3    H251513   8.627   8.796   4.463
17210TIP3   OH251514   8.747   8.486   5.124
17210TIP3    H151515   8.845   8.479   5.126
17210TIP3    H251516   8.723   8.400   5.163
17211TIP3   OH251517   8.714   8.171   4.438
17211TIP3    H151518   8.777   8.099   4.454
17211TIP3    H251519   8.772   8.249   4.446
17212TIP3   OH251520   8.503   8.462   4.519
17212TIP3    H151521   8.556   8.444   4.439
17212TIP3    H251522   8.545   8.542   4.552
17213TIP3   OH251523   8.496   7.953   4.028
17213TIP3    H151524   8.403   7.951   4.057
17213TIP3    H251525   8.492   8.012   3.950
17214TIP3   OH251526   8.745   9.411   4.930
17214TIP3    H151527   8.655   9.434   4.902
17214TIP3    H251528   8.749   9.446   5.019
17215TIP3   OH251529   9.491   8.157   4.173
17215TIP3    H151530   9.479   8.087   4.241
17215TIP3    H251531   9.587   8.156   4.157
17216TIP3   OH251532   8.804   7.873   4.200
17216TIP3    H151533   8.712   7.842   4.195
17216TIP3    H251534   8.853   7.788   4.196
17217TIP3   OH251535   8.592   7.745   3.846
17217TIP3    H151536   8.623   7.802   3.774
17217TIP3    H251537   8.563   7.809   3.913
17218TIP3   OH251538   9.246   7.908   4.083
17218TIP3    H151539   9.306   7.954   4.022
17218TIP3    H251540   9.278   7.939   4.169
17219TIP3   OH251541   9.871   7.958   4.025
17219TIP3    H151542   9.799   7.988   3.968
17219TIP3    H251543   9.821   7.915   4.098
17220TIP3   OH251544   8.279   9.307   3.633
17220TIP3    H151545   8.201   9.257   3.604
17220TIP3    H251546   8.255   9.394   3.595
17221TIP3   OH251547   8.710   7.906   3.607
17221TIP3    H151548   8.759   7.842   3.551
17221TIP3    H251549   8.783   7.957   3.646
17222TIP3   OH251550   9.216   8.077   3.709
17222TIP3    H151551   9.278   8.032   3.768
17222TIP3    H251552   9.236   8.170   3.734
17223TIP3   OH251553   9.014   8.150   5.084
17223TIP3    H151554   8.979   8.083   5.146
17223TIP3    H251555   9.108   8.152   5.112
17224TIP3   OH251556   9.261   8.156   5.209
17224TIP3    H151557   9.349   8.138   5.172
17224TIP3    H251558   9.252   8.083   5.274
17225TIP3   OH251559   0.985   8.977   6.397
17225TIP3    H151560   0.944   9.063   6.414
17225TIP3    H251561   0.994   8.981   6.301
17226TIP3   OH251562   1.240   8.878   7.087
17226TIP3    H151563   1.298   8.813   7.041
17226TIP3    H251564   1.203   8.928   7.011
17227TIP3   OH251565   1.106   9.017   6.889
17227TIP3    H151566   1.016   9.050   6.897
17227TIP3    H251567   1.093   8.941   6.829
17228TIP3   OH251568   0.739   8.666   5.471
17228TIP3    H151569   0.779   8.589   5.425
17228TIP3    H251570   0.810   8.732   5.464
17229TIP3   OH251571   1.012   8.781   6.759
17229TIP3    H151572   0.920   8.782   6.730
17229TIP3    H251573   1.035   8.687   6.750
17230TIP3   OH251574   0.819   8.665   6.020
17230TIP3    H151575   0.906   8.627   5.999
17230TIP3    H251576   0.842   8.759   6.032
17231TIP3   OH251577   0.909   9.176   5.711
17231TIP3    H151578   0.895   9.266   5.744
17231TIP3    H251579   0.858   9.123   5.773
17232TIP3   OH251580   2.758   9.216   5.883
17232TIP3    H151581   2.792   9.296   5.926
17232TIP3    H251582   2.782   9.233   5.790
17233TIP3   OH251583   2.160   9.401   5.910
17233TIP3    H151584   2.200   9.315   5.934
17233TIP3    H251585   2.121   9.378   5.824
17234TIP3   OH251586   1.498   9.057   5.883
17234TIP3    H151587   1.479   9.130   5.821
17234TIP3    H251588   1.449   8.984   5.839
17235TIP3   OH251589   2.192   9.143   5.506
17235TIP3    H151590   2.264   9.129   5.572
17235TIP3    H251591   2.244   9.181   5.433
17236TIP3   OH251592   1.119   9.243   5.994
17236TIP3    H151593   1.202   9.234   6.043
17236TIP3    H251594   1.143   9.202   5.909
17237TIP3   OH251595   1.586   9.462   5.762
17237TIP3    H151596   1.670   9.424   5.797
17237TIP3    H251597   1.535   9.382   5.739
17238TIP3   OH251598   2.845   9.417   6.054
17238TIP3    H151599   2.764   9.464   6.025
17238TIP3    H251600   2.847   9.442   6.147
17239TIP3   OH251601   1.494   9.041   6.318
17239TIP3    H151602   1.431   9.072   6.251
17239TIP3    H251603   1.443   9.058   6.400
17240TIP3   OH251604   2.400   9.153   5.678
17240TIP3    H151605   2.393   9.103   5.760
17240TIP3    H251606   2.450   9.232   5.706
17241TIP3   OH251607   1.362   9.150   6.102
17241TIP3    H151608   1.422   9.226   6.119
17241TIP3    H251609   1.410   9.107   6.027
17242TIP3   OH251610   2.553   9.119   6.051
17242TIP3    H151611   2.466   9.146   6.018
17242TIP3    H251612   2.613   9.149   5.979
17243TIP3   OH251613   1.849   8.760   6.032
17243TIP3    H151614   1.836   8.665   6.051
17243TIP3    H251615   1.772   8.798   6.079
17244TIP3   OH251616   1.747   9.268   5.038
17244TIP3    H151617   1.792   9.343   5.079
17244TIP3    H251618   1.809   9.242   4.969
17245TIP3   OH251619   2.389   9.644   6.158
17245TIP3    H151620   2.399   9.727   6.110
17245TIP3    H251621   2.298   9.617   6.129
17246TIP3   OH251622   2.482   8.704   5.133
17246TIP3    H151623   2.401   8.722   5.185
17246TIP3    H251624   2.493   8.789   5.086
17247TIP3   OH251625   2.610   9.608   6.345
17247TIP3    H151626   2.528   9.600   6.294
17247TIP3    H251627   2.637   9.514   6.350
17248TIP3   OH251628   1.612   8.836   6.162
17248TIP3    H151629   1.522   8.805   6.136
17248TIP3    H251630   1.587   8.918   6.208
17249TIP3   OH251631   2.145   8.952   6.355
17249TIP3    H151632   2.213   8.923   6.419
17249TIP3    H251633   2.062   8.930   6.402
17250TIP3   OH251634   2.385   9.369   6.280
17250TIP3    H151635   2.337   9.363   6.365
17250TIP3    H251636   2.353   9.452   6.243
17251TIP3   OH251637   1.761   8.882   5.133
17251TIP3    H151638   1.726   8.881   5.224
17251TIP3    H251639   1.719   8.800   5.099
17252TIP3   OH251640   1.531   9.361   6.164
17252TIP3    H151641   1.479   9.367   6.247
17252TIP3    H251642   1.506   9.441   6.117
17253TIP3   OH251643   1.427   9.237   5.694
17253TIP3    H151644   1.334   9.212   5.709
17253TIP3    H251645   1.441   9.200   5.605
17254TIP3   OH251646   1.928   9.325   5.424
17254TIP3    H151647   1.847   9.375   5.402
17254TIP3    H251648   1.967   9.306   5.337
17255TIP3   OH251649   2.094   9.595   6.510
17255TIP3    H151650   2.075   9.518   6.569
17255TIP3    H251651   2.190   9.607   6.527
17256TIP3   OH251652   2.065   9.339   5.662
17256TIP3    H151653   2.005   9.353   5.585
17256TIP3    H251654   2.111   9.260   5.625
17257TIP3   OH251655   1.380   9.378   6.408
17257TIP3    H151656   1.340   9.422   6.484
17257TIP3    H251657   1.357   9.285   6.429
17258TIP3   OH251658   1.412   8.859   5.100
17258TIP3    H151659   1.404   8.857   5.198
17258TIP3    H251660   1.334   8.912   5.076
17259TIP3   OH251661   0.959   8.907   5.944
17259TIP3    H151662   1.018   8.939   6.016
17259TIP3    H251663   1.020   8.854   5.892
17260TIP3   OH251664   0.925   8.899   5.496
17260TIP3    H151665   0.964   8.919   5.408
17260TIP3    H251666   0.896   8.988   5.520
17261TIP3   OH251667   2.135   9.586   6.103
17261TIP3    H151668   2.137   9.518   6.031
17261TIP3    H251669   2.065   9.546   6.159
17262TIP3   OH251670   1.754   9.053   5.753
17262TIP3    H151671   1.671   9.057   5.806
17262TIP3    H251672   1.821   9.063   5.823
17263TIP3   OH251673   1.185   9.119   5.753
17263TIP3    H151674   1.092   9.113   5.724
17263TIP3    H251675   1.218   9.028   5.740
17264TIP3   OH251676   1.459   9.111   5.452
17264TIP3    H151677   1.550   9.133   5.426
17264TIP3    H251678   1.406   9.133   5.372
17265TIP3   OH251679   2.241   9.138   5.958
17265TIP3    H151680   2.207   9.148   6.050
17265TIP3    H251681   2.177   9.074   5.922
17266TIP3   OH251682   1.293   9.129   5.233
17266TIP3    H151683   1.233   9.093   5.165
17266TIP3    H251684   1.343   9.196   5.180
17267TIP3   OH251685   1.830   9.367   5.848
17267TIP3    H151686   1.914   9.345   5.805
17267TIP3    H251687   1.847   9.349   5.942
17268TIP3   OH251688   1.354   8.878   5.733
17268TIP3    H151689   1.322   8.798   5.780
17268TIP3    H251690   1.405   8.840   5.660
17269TIP3   OH251691   1.810   9.278   6.146
17269TIP3    H151692   1.721   9.318   6.144
17269TIP3    H251693   1.864   9.345   6.192
17270TIP3   OH251694   2.003   9.001   5.094
17270TIP3    H151695   1.909   8.975   5.110
17270TIP3    H251696   2.006   9.095   5.121
17271TIP3   OH251697   2.076   9.258   5.186
17271TIP3    H151698   2.167   9.241   5.219
17271TIP3    H251699   2.086   9.347   5.147
17272TIP3   OH251700   1.827   9.614   6.604
17272TIP3    H151701   1.787   9.698   6.576
17272TIP3    H251702   1.895   9.597   6.537
17273TIP3   OH251703   2.515   9.314   5.044
17273TIP3    H151704   2.451   9.278   4.978
17273TIP3    H251705   2.518   9.406   5.016
17274TIP3   OH251706   1.344   9.123   6.538
17274TIP3    H151707   1.249   9.119   6.558
17274TIP3    H251708   1.374   9.053   6.599
17275TIP3   OH251709   2.167   9.191   6.220
17275TIP3    H151710   2.253   9.221   6.255
17275TIP3    H251711   2.153   9.108   6.270
17276TIP3   OH251712   2.053   8.936   5.380
17276TIP3    H151713   2.039   8.964   5.288
17276TIP3    H251714   2.093   9.017   5.420
17277TIP3   OH251715   1.747   9.117   5.484
17277TIP3    H151716   1.815   9.187   5.473
17277TIP3    H251717   1.745   9.108   5.582
17278TIP3   OH251718   2.002   9.432   6.286
17278TIP3    H151719   2.029   9.476   6.368
17278TIP3    H251720   2.052   9.348   6.289
17279TIP3   OH251721   1.883   8.843   5.586
17279TIP3    H151722   1.873   8.920   5.645
17279TIP3    H251723   1.945   8.879   5.518
17280TIP3   OH251724   1.396   8.843   5.376
17280TIP3    H151725   1.392   8.935   5.408
17280TIP3    H251726   1.493   8.827   5.385
17281TIP3   OH251727   2.654   9.341   6.270
17281TIP3    H151728   2.557   9.334   6.282
17281TIP3    H251729   2.664   9.291   6.188
17282TIP3   OH251730   2.292   9.515   5.639
17282TIP3    H151731   2.222   9.457   5.672
17282TIP3    H251732   2.368   9.490   5.696
17283TIP3   OH251733   0.948   9.037   5.264
17283TIP3    H151734   0.969   9.130   5.246
17283TIP3    H251735   0.877   9.017   5.202
17284TIP3   OH251736   1.349   8.753   6.135
17284TIP3    H151737   1.315   8.723   6.048
17284TIP3    H251738   1.336   8.674   6.191
17285TIP3   OH251739   1.310   9.648   6.770
17285TIP3    H151740   1.337   9.556   6.765
17285TIP3    H251741   1.296   9.660   6.864
17286TIP3   OH251742   1.654   9.482   6.385
17286TIP3    H151743   1.561   9.484   6.413
17286TIP3    H251744   1.648   9.485   6.289
17287TIP3   OH251745   1.469   9.270   5.078
17287TIP3    H151746   1.438   9.221   4.998
17287TIP3    H251747   1.566   9.257   5.074
17288TIP3   OH251748   1.756   9.306   6.570
17288TIP3    H151749   1.759   9.223   6.518
17288TIP3    H251750   1.725   9.370   6.503
17289TIP3   OH251751   1.754   9.109   6.366
17289TIP3    H151752   1.780   9.156   6.284
17289TIP3    H251753   1.659   9.090   6.349
17290TIP3   OH251754   2.369   9.623   6.613
17290TIP3    H151755   2.384   9.532   6.643
17290TIP3    H251756   2.460   9.651   6.594
17291TIP3   OH251757   1.613   9.444   6.781
17291TIP3    H151758   1.558   9.364   6.793
17291TIP3    H251759   1.665   9.420   6.702
17292TIP3   OH251760   1.886   8.876   6.431
17292TIP3    H151761   1.837   8.958   6.409
17292TIP3    H251762   1.816   8.808   6.421
17293TIP3   OH251763   2.014   9.377   6.651
17293TIP3    H151764   2.005   9.368   6.747
17293TIP3    H251765   1.922   9.354   6.626
17294TIP3   OH251766   2.253   9.336   6.511
17294TIP3    H151767   2.175   9.326   6.571
17294TIP3    H251768   2.325   9.299   6.566
17295TIP3   OH251769   2.484   9.273   6.653
17295TIP3    H151770   2.495   9.177   6.672
17295TIP3    H251771   2.476   9.311   6.743
17296TIP3   OH251772   1.468   9.218   6.845
17296TIP3    H151773   1.470   9.130   6.805
17296TIP3    H251774   1.506   9.199   6.934
17297TIP3   OH251775   1.977   8.889   6.690
17297TIP3    H151776   2.045   8.819   6.686
17297TIP3    H251777   1.939   8.881   6.601
17298TIP3   OH251778   2.047   9.105   6.846
17298TIP3    H151779   2.023   9.033   6.785
17298TIP3    H251780   1.967   9.163   6.843
17299TIP3   OH251781   2.345   9.244   4.838
17299TIP3    H151782   2.320   9.254   4.745
17299TIP3    H251783   2.326   9.148   4.849
17300TIP3   OH251784   2.385   9.492   5.386
17300TIP3    H151785   2.387   9.396   5.397
17300TIP3    H251786   2.361   9.519   5.478
17301TIP3   OH251787   2.819   9.765   6.271
17301TIP3    H151788   2.745   9.707   6.298
17301TIP3    H251789   2.894   9.703   6.277
17302TIP3   OH251790   2.293   8.979   4.834
17302TIP3    H151791   2.370   8.942   4.882
17302TIP3    H251792   2.221   8.916   4.855
17303TIP3   OH251793   2.343   9.217   5.282
17303TIP3    H151794   2.385   9.129   5.297
17303TIP3    H251795   2.406   9.253   5.217
17304TIP3   OH251796   2.512   9.398   5.769
17304TIP3    H151797   2.596   9.426   5.728
17304TIP3    H251798   2.529   9.433   5.859
17305TIP3   OH251799   2.592   9.527   6.000
17305TIP3    H151800   2.518   9.557   6.057
17305TIP3    H251801   2.642   9.611   5.988
17306TIP3   OH251802   1.204   9.276   6.804
17306TIP3    H151803   1.301   9.268   6.816
17306TIP3    H251804   1.174   9.191   6.840
17307TIP3   OH251805   3.032   9.136   6.567
17307TIP3    H151806   3.093   9.071   6.527
17307TIP3    H251807   3.008   9.192   6.490
17308TIP3   OH251808   2.462   8.975   5.322
17308TIP3    H151809   2.510   8.961   5.406
17308TIP3    H251810   2.401   8.898   5.323
17309TIP3   OH251811   1.156   8.955   6.129
17309TIP3    H151812   1.220   8.885   6.151
17309TIP3    H251813   1.212   9.034   6.132
17310TIP3   OH251814   0.989   9.239   6.240
17310TIP3    H151815   1.022   9.232   6.148
17310TIP3    H251816   0.961   9.331   6.243
17311TIP3   OH251817   2.908   9.280   6.369
17311TIP3    H151818   2.819   9.315   6.389
17311TIP3    H251819   2.883   9.203   6.314
17312TIP3   OH251820   2.540   8.915   4.950
17312TIP3    H151821   2.580   8.838   4.904
17312TIP3    H251822   2.612   8.980   4.950
17313TIP3   OH251823   0.955   8.728   5.702
17313TIP3    H151824   0.880   8.756   5.757
17313TIP3    H251825   0.952   8.794   5.630
17314TIP3   OH251826   1.187   8.883   6.563
17314TIP3    H151827   1.126   8.837   6.624
17314TIP3    H251828   1.126   8.900   6.488
17315TIP3   OH251829   2.805   9.038   6.252
17315TIP3    H151830   2.713   9.026   6.221
17315TIP3    H251831   2.839   8.946   6.243
17316TIP3   OH251832   2.013   8.955   5.873
17316TIP3    H151833   1.966   8.886   5.924
17316TIP3    H251834   2.083   8.904   5.828
17317TIP3   OH251835   2.532   8.835   5.775
17317TIP3    H151836   2.567   8.887   5.700
17317TIP3    H251837   2.436   8.852   5.768
17318TIP3   OH251838   2.627   8.938   5.539
17318TIP3    H151839   2.701   8.885   5.502
17318TIP3    H251840   2.662   9.029   5.524
17319TIP3   OH251841   1.258   8.662   5.885
17319TIP3    H151842   1.167   8.625   5.888
17319TIP3    H251843   1.310   8.579   5.884
17320TIP3   OH251844   1.045   8.526   5.534
17320TIP3    H151845   1.075   8.584   5.462
17320TIP3    H251846   1.017   8.593   5.601
17321TIP3   OH251847   1.701   8.695   5.769
17321TIP3    H151848   1.760   8.745   5.709
17321TIP3    H251849   1.723   8.733   5.855
17322TIP3   OH251850   2.249   8.841   5.751
17322TIP3    H151851   2.248   8.799   5.664
17322TIP3    H251852   2.236   8.763   5.809
17323TIP3   OH251853   2.278   8.765   5.314
17323TIP3    H151854   2.191   8.806   5.330
17323TIP3    H251855   2.265   8.679   5.361
17324TIP3   OH251856   1.162   8.691   5.302
17324TIP3    H151857   1.211   8.629   5.244
17324TIP3    H251858   1.235   8.746   5.337
17325TIP3   OH251859   1.674   8.869   5.396
17325TIP3    H151860   1.733   8.823   5.458
17325TIP3    H251861   1.694   8.962   5.422
17326TIP3   OH251862   1.467   8.944   6.776
17326TIP3    H151863   1.430   8.876   6.835
17326TIP3    H251864   1.561   8.944   6.806
17327TIP3   OH251865   1.713   8.937   6.897
17327TIP3    H151866   1.801   8.919   6.859
17327TIP3    H251867   1.705   8.866   6.963
17328TIP3   OH251868   2.540   9.002   6.685
17328TIP3    H151869   2.558   8.972   6.777
17328TIP3    H251870   2.629   8.997   6.645
17329TIP3   OH251871   2.721   9.453   5.196
17329TIP3    H151872   2.681   9.519   5.256
17329TIP3    H251873   2.650   9.387   5.188
17330TIP3   OH251874   4.554   9.472   5.369
17330TIP3    H151875   4.588   9.553   5.411
17330TIP3    H251876   4.579   9.488   5.276
17331TIP3   OH251877   3.954   9.656   5.397
17331TIP3    H151878   3.996   9.570   5.420
17331TIP3    H251879   3.916   9.633   5.310
17332TIP3   OH251880   3.294   9.313   5.369
17332TIP3    H151881   3.275   9.386   5.307
17332TIP3    H251882   3.246   9.240   5.325
17333TIP3   OH251883   3.988   9.402   4.992
17333TIP3    H151884   4.060   9.387   5.058
17333TIP3    H251885   4.040   9.438   4.918
17334TIP3   OH251886   2.918   9.502   5.484
17334TIP3    H151887   3.003   9.485   5.529
17334TIP3    H251888   2.936   9.461   5.397
17335TIP3   OH251889   3.378   9.718   5.247
17335TIP3    H151890   3.462   9.684   5.283
17335TIP3    H251891   3.329   9.636   5.227
17336TIP3   OH251892   4.642   9.674   5.542
17336TIP3    H151893   4.561   9.720   5.511
17336TIP3    H251894   4.647   9.704   5.634
17337TIP3   OH251895   3.290   9.298   5.805
17337TIP3    H151896   3.228   9.330   5.737
17337TIP3    H251897   3.238   9.314   5.887
17338TIP3   OH251898   4.195   9.410   5.165
17338TIP3    H151899   4.194   9.357   5.245
17338TIP3    H251900   4.247   9.489   5.192
17339TIP3   OH251901   3.157   9.404   5.588
17339TIP3    H151902   3.217   9.480   5.606
17339TIP3    H251903   3.208   9.363   5.514
17340TIP3   OH251904   4.349   9.376   5.537
17340TIP3    H151905   4.262   9.402   5.504
17340TIP3    H251906   4.409   9.406   5.466
17341TIP3   OH251907   3.644   9.015   5.517
17341TIP3    H151908   3.633   8.920   5.538
17341TIP3    H251909   3.567   9.052   5.565
17342TIP3   OH251910   3.529   9.537   4.516
17342TIP3    H151911   3.588   9.599   4.559
17342TIP3    H251912   3.591   9.493   4.453
17343TIP3   OH251913   4.184   9.901   5.647
17343TIP3    H151914   4.196   9.982   5.594
17343TIP3    H251915   4.092   9.875   5.618
17344TIP3   OH251916   4.279   8.960   4.621
17344TIP3    H151917   4.197   8.979   4.672
17344TIP3    H251918   4.291   9.044   4.572
17345TIP3   OH251919   4.406   9.863   5.833
17345TIP3    H151920   4.325   9.857   5.780
17345TIP3    H251921   4.433   9.769   5.836
17346TIP3   OH251922   3.406   9.092   5.648
17346TIP3    H151923   3.317   9.062   5.622
17346TIP3    H251924   3.382   9.174   5.696
17347TIP3   OH251925   3.941   9.210   5.843
17347TIP3    H151926   4.010   9.179   5.905
17347TIP3    H251927   3.858   9.186   5.889
17348TIP3   OH251928   4.181   9.625   5.765
17348TIP3    H151929   4.132   9.621   5.851
17348TIP3    H251930   4.151   9.709   5.728
17349TIP3   OH251931   3.550   9.141   4.617
17349TIP3    H151932   3.521   9.139   4.710
17349TIP3    H251933   3.515   9.056   4.586
17350TIP3   OH251934   3.324   9.613   5.644
17350TIP3    H151935   3.286   9.624   5.733
17350TIP3    H251936   3.315   9.701   5.606
17351TIP3   OH251937   3.222   9.494   5.180
17351TIP3    H151938   3.130   9.466   5.197
17351TIP3    H251939   3.236   9.454   5.092
17352TIP3   OH251940   3.722   9.582   4.909
17352TIP3    H151941   3.642   9.630   4.878
17352TIP3    H251942   3.769   9.563   4.826
17353TIP3   OH251943   3.889   9.852   6.000
17353TIP3    H151944   3.874   9.772   6.056
17353TIP3    H251945   3.985   9.864   6.013
17354TIP3   OH251946   3.860   9.595   5.147
17354TIP3    H151947   3.800   9.610   5.070
17354TIP3    H251948   3.907   9.517   5.111
17355TIP3   OH251949   3.163   9.634   5.892
17355TIP3    H151950   3.139   9.680   5.974
17355TIP3    H251951   3.143   9.542   5.918
17356TIP3   OH251952   3.207   9.115   4.587
17356TIP3    H151953   3.204   9.111   4.685
17356TIP3    H251954   3.123   9.157   4.568
17357TIP3   OH251955   2.751   9.163   5.448
17357TIP3    H151956   2.823   9.192   5.509
17357TIP3    H251957   2.798   9.119   5.376
17358TIP3   OH251958   2.724   9.134   4.972
17358TIP3    H151959   2.775   9.172   4.897
17358TIP3    H251960   2.666   9.209   4.994
17359TIP3   OH251961   3.931   9.841   5.589
17359TIP3    H151962   3.932   9.773   5.517
17359TIP3    H251963   3.860   9.802   5.645
17360TIP3   OH251964   3.550   9.314   5.240
17360TIP3    H151965   3.469   9.314   5.295
17360TIP3    H251966   3.620   9.317   5.308
17361TIP3   OH251967   2.984   9.375   5.244
17361TIP3    H151968   2.889   9.377   5.218
17361TIP3    H251969   3.011   9.283   5.228
17362TIP3   OH251970   3.253   9.368   4.939
17362TIP3    H151971   3.348   9.384   4.919
17362TIP3    H251972   3.207   9.391   4.856
17363TIP3   OH251973   4.038   9.395   5.447
17363TIP3    H151974   4.001   9.404   5.538
17363TIP3    H251975   3.977   9.330   5.409
17364TIP3   OH251976   3.083   9.395   4.716
17364TIP3    H151977   3.022   9.353   4.653
17364TIP3    H251978   3.136   9.452   4.657
17365TIP3   OH251979   3.624   9.629   5.333
17365TIP3    H151980   3.707   9.605   5.288
17365TIP3    H251981   3.643   9.606   5.426
17366TIP3   OH251982   3.151   9.133   5.219
17366TIP3    H151983   3.118   9.054   5.268
17366TIP3    H251984   3.209   9.092   5.153
17367TIP3   OH251985   3.606   9.533   5.633
17367TIP3    H151986   3.518   9.574   5.631
17367TIP3    H251987   3.661   9.600   5.679
17368TIP3   OH251988   3.804   9.249   4.594
17368TIP3    H151989   3.707   9.230   4.594
17368TIP3    H251990   3.807   9.346   4.605
17369TIP3   OH251991   3.872   9.515   4.677
17369TIP3    H151992   3.963   9.497   4.708
17369TIP3    H251993   3.886   9.590   4.618
17370TIP3   OH251994   3.615   9.877   6.079
17370TIP3    H151995   3.611   9.972   6.061
17370TIP3    H251996   3.694   9.850   6.028
17371TIP3   OH251997   4.310   9.573   4.534
17371TIP3    H151998   4.250   9.533   4.467
17371TIP3    H251999   4.320   9.662   4.497
17372TIP3   OH252000   3.126   9.376   6.019
17372TIP3    H152001   3.029   9.377   6.033
17372TIP3    H252002   3.156   9.319   6.091
17373TIP3   OH252003   3.961   9.450   5.709
17373TIP3    H152004   4.049   9.479   5.739
17373TIP3    H252005   3.948   9.366   5.759
17374TIP3   OH252006   3.845   9.195   4.869
17374TIP3    H152007   3.835   9.218   4.774
17374TIP3    H252008   3.888   9.276   4.905
17375TIP3   OH252009   3.537   9.377   4.971
17375TIP3    H152010   3.610   9.441   4.958
17375TIP3    H252011   3.540   9.365   5.069
17376TIP3   OH252012   3.797   9.688   5.773
17376TIP3    H152013   3.827   9.733   5.854
17376TIP3    H252014   3.849   9.605   5.773
17377TIP3   OH252015   3.679   9.100   5.072
17377TIP3    H152016   3.676   9.175   5.134
17377TIP3    H252017   3.741   9.136   5.003
17378TIP3   OH252018   3.193   9.100   4.861
17378TIP3    H152019   3.192   9.190   4.900
17378TIP3    H252020   3.289   9.080   4.872
17379TIP3   OH252021   4.450   9.597   5.759
17379TIP3    H152022   4.352   9.588   5.768
17379TIP3    H252023   4.463   9.551   5.675
17380TIP3   OH252024   4.085   9.774   5.128
17380TIP3    H152025   4.018   9.711   5.159
17380TIP3    H252026   4.163   9.749   5.183
17381TIP3   OH252027   2.752   9.294   4.746
17381TIP3    H152028   2.757   9.390   4.746
17381TIP3    H252029   2.663   9.274   4.715
17382TIP3   OH252030   3.141   9.012   5.623
17382TIP3    H152031   3.112   8.976   5.537
17382TIP3    H252032   3.133   8.934   5.681
17383TIP3   OH252033   3.123   9.896   6.229
17383TIP3    H152034   3.173   9.820   6.262
17383TIP3    H252035   3.108   9.950   6.310
17384TIP3   OH252036   3.446   9.724   5.873
17384TIP3    H152037   3.361   9.761   5.902
17384TIP3    H252038   3.453   9.756   5.782
17385TIP3   OH252039   3.256   9.524   4.549
17385TIP3    H152040   3.233   9.464   4.476
17385TIP3    H252041   3.353   9.511   4.557
17386TIP3   OH252042   3.552   9.561   6.060
17386TIP3    H152043   3.556   9.478   6.008
17386TIP3    H252044   3.517   9.622   5.991
17387TIP3   OH252045   3.550   9.366   5.854
17387TIP3    H152046   3.577   9.412   5.772
17387TIP3    H252047   3.456   9.347   5.836
17388TIP3   OH252048   4.167   9.882   6.102
17388TIP3    H152049   4.183   9.789   6.126
17388TIP3    H252050   4.256   9.909   6.077
17389TIP3   OH252051   3.408   9.701   6.271
17389TIP3    H152052   3.350   9.623   6.282
17389TIP3    H252053   3.456   9.679   6.189
17390TIP3   OH252054   3.682   9.133   5.919
17390TIP3    H152055   3.632   9.215   5.897
17390TIP3    H252056   3.613   9.065   5.909
17391TIP3   OH252057   3.807   9.635   6.138
17391TIP3    H152058   3.797   9.622   6.235
17391TIP3    H252059   3.716   9.609   6.111
17392TIP3   OH252060   4.050   9.596   5.999
17392TIP3    H152061   3.972   9.582   6.057
17392TIP3    H252062   4.123   9.558   6.053
17393TIP3   OH252063   4.278   9.531   6.143
17393TIP3    H152064   4.290   9.435   6.160
17393TIP3    H252065   4.273   9.569   6.234
17394TIP3   OH252066   3.259   9.476   6.329
17394TIP3    H152067   3.265   9.385   6.295
17394TIP3    H252068   3.298   9.465   6.418
17395TIP3   OH252069   3.775   9.147   6.177
17395TIP3    H152070   3.842   9.075   6.173
17395TIP3    H252071   3.735   9.139   6.088
17396TIP3   OH252072   3.842   9.362   6.334
17396TIP3    H152073   3.820   9.289   6.272
17396TIP3    H252074   3.762   9.418   6.329
17397TIP3   OH252075   4.148   9.496   4.328
17397TIP3    H152076   4.106   9.523   4.246
17397TIP3    H252077   4.125   9.400   4.327
17398TIP3   OH252078   4.180   9.749   4.875
17398TIP3    H152079   4.184   9.653   4.883
17398TIP3    H252080   4.156   9.775   4.967
17399TIP3   OH252081   4.614  10.022   5.762
17399TIP3    H152082   4.541   9.963   5.788
17399TIP3    H252083   4.690   9.961   5.766
17400TIP3   OH252084   4.091   9.230   4.321
17400TIP3    H152085   4.167   9.197   4.372
17400TIP3    H252086   4.019   9.169   4.344
17401TIP3   OH252087   4.140   9.474   4.769
17401TIP3    H152088   4.183   9.386   4.783
17401TIP3    H252089   4.200   9.511   4.702
17402TIP3   OH252090   4.307   9.656   5.255
17402TIP3    H152091   4.392   9.684   5.214
17402TIP3    H252092   4.325   9.690   5.345
17403TIP3   OH252093   4.387   9.782   5.489
17403TIP3    H152094   4.313   9.813   5.543
17403TIP3    H252095   4.438   9.866   5.476
17404TIP3   OH252096   2.992   9.543   6.307
17404TIP3    H152097   3.089   9.531   6.304
17404TIP3    H252098   2.967   9.455   6.342
17405TIP3   OH252099   4.829   9.394   6.054
17405TIP3    H152100   4.890   9.328   6.014
17405TIP3    H252101   4.804   9.449   5.977
17406TIP3   OH252102   4.258   9.231   4.810
17406TIP3    H152103   4.307   9.216   4.894
17406TIP3    H252104   4.198   9.154   4.810
17407TIP3   OH252105   2.952   9.215   5.631
17407TIP3    H152106   3.016   9.142   5.641
17407TIP3    H252107   3.013   9.291   5.622
17408TIP3   OH252108   2.758   9.501   5.706
17408TIP3    H152109   2.807   9.494   5.622
17408TIP3    H252110   2.782   9.590   5.734
17409TIP3   OH252111   4.703   9.535   5.857
17409TIP3    H152112   4.614   9.571   5.874
17409TIP3    H252113   4.679   9.459   5.800
17410TIP3   OH252114   4.337   9.170   4.441
17410TIP3    H152115   4.378   9.096   4.391
17410TIP3    H252116   4.407   9.238   4.438
17411TIP3   OH252117   2.744   8.995   5.203
17411TIP3    H152118   2.651   8.992   5.232
17411TIP3    H252119   2.739   9.053   5.124
17412TIP3   OH252120   2.964   9.081   6.019
17412TIP3    H152121   2.912   9.072   6.101
17412TIP3    H252122   2.897   9.115   5.958
17413TIP3   OH252123   4.600   9.294   5.739
17413TIP3    H152124   4.509   9.283   5.707
17413TIP3    H252125   4.635   9.202   5.729
17414TIP3   OH252126   3.805   9.209   5.356
17414TIP3    H152127   3.762   9.140   5.409
17414TIP3    H252128   3.879   9.161   5.314
17415TIP3   OH252129   4.327   9.094   5.263
17415TIP3    H152130   4.363   9.144   5.187
17415TIP3    H252131   4.231   9.109   5.254
17416TIP3   OH252132   4.423   9.192   5.027
17416TIP3    H152133   4.497   9.140   4.988
17416TIP3    H252134   4.458   9.283   5.011
17417TIP3   OH252135   3.053   8.919   5.373
17417TIP3    H152136   2.962   8.883   5.378
17417TIP3    H252137   3.104   8.834   5.372
17418TIP3   OH252138   2.831   8.790   5.021
17418TIP3    H152139   2.869   8.847   4.952
17418TIP3    H252140   2.811   8.855   5.091
17419TIP3   OH252141   3.494   8.956   5.256
17419TIP3    H152142   3.555   9.002   5.195
17419TIP3    H252143   3.524   8.988   5.342
17420TIP3   OH252144   4.044   9.098   5.238
17420TIP3    H152145   4.046   9.055   5.151
17420TIP3    H252146   4.032   9.020   5.297
17421TIP3   OH252147   4.074   9.020   4.802
17421TIP3    H152148   3.986   9.060   4.815
17421TIP3    H252149   4.062   8.935   4.849
17422TIP3   OH252150   2.960   8.954   4.781
17422TIP3    H152151   3.007   8.886   4.729
17422TIP3    H252152   3.034   9.004   4.820
17423TIP3   OH252153   3.470   9.127   4.883
17423TIP3    H152154   3.529   9.078   4.943
17423TIP3    H252155   3.493   9.219   4.910
17424TIP3   OH252156   3.261   9.202   6.267
17424TIP3    H152157   3.228   9.129   6.323
17424TIP3    H252158   3.356   9.201   6.294
17425TIP3   OH252159   3.511   9.198   6.384
17425TIP3    H152160   3.596   9.170   6.346
17425TIP3    H252161   3.498   9.128   6.452
17426TIP3   OH252162   4.336   9.261   6.172
17426TIP3    H152163   4.354   9.228   6.263
17426TIP3    H252164   4.425   9.254   6.131
17427TIP3   OH252165   4.519   9.704   4.685
17427TIP3    H152166   4.477   9.777   4.734
17427TIP3    H252167   4.443   9.646   4.668
17428TIP3   OH252168   6.354   9.728   4.857
17428TIP3    H152169   6.384   9.811   4.898
17428TIP3    H252170   6.372   9.745   4.763
17429TIP3   OH252171   5.752   9.912   4.884
17429TIP3    H152172   5.792   9.826   4.907
17429TIP3    H252173   5.713   9.891   4.797
17430TIP3   OH252174   5.091   9.570   4.856
17430TIP3    H152175   5.072   9.643   4.794
17430TIP3    H252176   5.042   9.497   4.812
17431TIP3   OH252177   5.785   9.657   4.481
17431TIP3    H152178   5.858   9.643   4.545
17431TIP3    H252179   5.834   9.695   4.406
17432TIP3   OH252180   4.713   9.755   4.974
17432TIP3    H152181   4.801   9.744   5.014
17432TIP3    H252182   4.728   9.719   4.885
17433TIP3   OH252183   5.174   9.973   4.747
17433TIP3    H152184   5.261   9.935   4.773
17433TIP3    H252185   5.125   9.895   4.715
17434TIP3   OH252186   6.439   9.932   5.029
17434TIP3    H152187   6.359   9.977   4.996
17434TIP3    H252188   6.440   9.963   5.121
17435TIP3   OH252189   5.087   9.555   5.293
17435TIP3    H152190   5.025   9.586   5.224
17435TIP3    H252191   5.033   9.571   5.373
17436TIP3   OH252192   5.994   9.665   4.652
17436TIP3    H152193   5.982   9.618   4.736
17436TIP3    H252194   6.043   9.745   4.679
17437TIP3   OH252195   4.957   9.661   5.075
17437TIP3    H152196   5.016   9.738   5.092
17437TIP3    H252197   5.005   9.620   5.000
17438TIP3   OH252198   6.146   9.633   5.025
17438TIP3    H152199   6.058   9.657   4.992
17438TIP3    H252200   6.204   9.663   4.952
17439TIP3   OH252201   5.442   9.273   5.007
17439TIP3    H152202   5.428   9.178   5.024
17439TIP3    H252203   5.365   9.311   5.053
17440TIP3   OH252204   5.335   9.783   4.008
17440TIP3    H152205   5.378   9.860   4.047
17440TIP3    H252206   5.400   9.755   3.942
17441TIP3   OH252207   5.982  10.159   5.131
17441TIP3    H152208   5.991  10.241   5.080
17441TIP3    H252209   5.891  10.131   5.104
17442TIP3   OH252210   6.075   9.215   4.108
17442TIP3    H152211   5.994   9.235   4.159
17442TIP3    H252212   6.088   9.300   4.060
17443TIP3   OH252213   6.203  10.120   5.319
17443TIP3    H152214   6.121  10.116   5.267
17443TIP3    H252215   6.228  10.025   5.321
17444TIP3   OH252216   5.203   9.349   5.135
17444TIP3    H152217   5.114   9.318   5.109
17444TIP3    H252218   5.179   9.431   5.181
17445TIP3   OH252219   5.737   9.466   5.329
17445TIP3    H152220   5.805   9.436   5.392
17445TIP3    H252221   5.653   9.443   5.375
17446TIP3   OH252222   5.981   9.884   5.255
17446TIP3    H152223   5.930   9.878   5.339
17446TIP3    H252224   5.945   9.964   5.215
17447TIP3   OH252225   5.352   9.394   4.106
17447TIP3    H152226   5.317   9.394   4.197
17447TIP3    H252227   5.311   9.312   4.073
17448TIP3   OH252228   5.124   9.873   5.138
17448TIP3    H152229   5.070   9.882   5.219
17448TIP3    H252230   5.101   9.953   5.088
17449TIP3   OH252231   5.021   9.750   4.667
17449TIP3    H152232   4.927   9.724   4.683
17449TIP3    H252233   5.033   9.713   4.577
17450TIP3   OH252234   5.520   9.837   4.398
17450TIP3    H152235   5.439   9.888   4.375
17450TIP3    H252236   5.561   9.821   4.310
17451TIP3   OH252237   5.687  10.107   5.481
17451TIP3    H152238   5.669  10.031   5.541
17451TIP3    H252239   5.781  10.122   5.500
17452TIP3   OH252240   5.657   9.851   4.636
17452TIP3    H152241   5.597   9.868   4.560
17452TIP3    H252242   5.702   9.773   4.598
17453TIP3   OH252243   4.970   9.891   5.382
17453TIP3    H152244   4.932   9.937   5.458
17453TIP3    H252245   4.944   9.799   5.404
17454TIP3   OH252246   5.004   9.372   4.075
17454TIP3    H152247   4.997   9.369   4.172
17454TIP3    H252248   4.925   9.425   4.052
17455TIP3   OH252249   4.546   9.417   4.939
17455TIP3    H152250   4.619   9.449   4.997
17455TIP3    H252251   4.592   9.380   4.863
17456TIP3   OH252252   4.519   9.392   4.462
17456TIP3    H152253   4.564   9.431   4.383
17456TIP3    H252254   4.460   9.466   4.485
17457TIP3   OH252255   5.729  10.096   5.079
17457TIP3    H152256   5.730  10.030   5.006
17457TIP3    H252257   5.656  10.060   5.133
17458TIP3   OH252258   5.347   9.564   4.727
17458TIP3    H152259   5.264   9.568   4.778
17458TIP3    H252260   5.412   9.580   4.798
17459TIP3   OH252261   4.780   9.633   4.732
17459TIP3    H152262   4.686   9.638   4.705
17459TIP3    H252263   4.805   9.541   4.713
17460TIP3   OH252264   5.052   9.624   4.425
17460TIP3    H152265   5.143   9.647   4.400
17460TIP3    H252266   4.999   9.647   4.345
17461TIP3   OH252267   5.835   9.650   4.932
17461TIP3    H152268   5.800   9.661   5.023
17461TIP3    H252269   5.770   9.586   4.896
17462TIP3   OH252270   4.886   9.642   4.204
17462TIP3    H152271   4.822   9.608   4.139
17462TIP3    H252272   4.933   9.709   4.151
17463TIP3   OH252273   5.423   9.878   4.820
17463TIP3    H152274   5.507   9.860   4.776
17463TIP3    H252275   5.442   9.862   4.913
17464TIP3   OH252276   4.949   9.389   4.706
17464TIP3    H152277   4.916   9.309   4.753
17464TIP3    H252278   4.997   9.351   4.632
17465TIP3   OH252279   5.402   9.789   5.122
17465TIP3    H152280   5.314   9.831   5.116
17465TIP3    H252281   5.456   9.858   5.166
17466TIP3   OH252282   5.597   9.512   4.072
17466TIP3    H152283   5.502   9.489   4.083
17466TIP3    H252284   5.601   9.607   4.094
17467TIP3   OH252285   5.669   9.772   4.160
17467TIP3    H152286   5.760   9.756   4.191
17467TIP3    H252287   5.677   9.858   4.117
17468TIP3   OH252288   5.424  10.132   5.584
17468TIP3    H152289   5.368  10.202   5.547
17468TIP3    H252290   5.483  10.111   5.510
17469TIP3   OH252291   6.108   9.831   4.019
17469TIP3    H152292   6.045   9.792   3.953
17469TIP3    H252293   6.114   9.921   3.984
17470TIP3   OH252294   4.922   9.633   5.506
17470TIP3    H152295   4.825   9.633   5.519
17470TIP3    H252296   4.952   9.575   5.578
17471TIP3   OH252297   5.760   9.706   5.194
17471TIP3    H152298   5.846   9.734   5.230
17471TIP3    H252299   5.744   9.622   5.243
17472TIP3   OH252300   5.647   9.449   4.353
17472TIP3    H152301   5.631   9.475   4.261
17472TIP3    H252302   5.685   9.531   4.392
17473TIP3   OH252303   5.340   9.630   4.458
17473TIP3    H152304   5.406   9.700   4.444
17473TIP3    H252305   5.339   9.622   4.555
17474TIP3   OH252306   5.592   9.944   5.260
17474TIP3    H152307   5.623   9.991   5.340
17474TIP3    H252308   5.644   9.862   5.262
17475TIP3   OH252309   5.476   9.357   4.560
17475TIP3    H152310   5.462   9.435   4.617
17475TIP3    H252311   5.538   9.394   4.492
17476TIP3   OH252312   4.989   9.356   4.350
17476TIP3    H152313   4.985   9.449   4.382
17476TIP3    H252314   5.086   9.340   4.359
17477TIP3   OH252315   6.249   9.852   5.246
17477TIP3    H152316   6.151   9.846   5.258
17477TIP3    H252317   6.256   9.809   5.159
17478TIP3   OH252318   5.884  10.027   4.614
17478TIP3    H152319   5.813   9.969   4.645
17478TIP3    H252320   5.959  10.001   4.671
17479TIP3   OH252321   4.542   9.552   4.239
17479TIP3    H152322   4.562   9.646   4.227
17479TIP3    H252323   4.457   9.540   4.194
17480TIP3   OH252324   4.939   9.269   5.109
17480TIP3    H152325   4.908   9.235   5.023
17480TIP3    H252326   4.929   9.190   5.167
17481TIP3   OH252327   4.920  10.151   5.717
17481TIP3    H152328   4.973  10.079   5.750
17481TIP3    H252329   4.904  10.207   5.796
17482TIP3   OH252330   5.246   9.997   5.360
17482TIP3    H152331   5.152  10.001   5.384
17482TIP3    H252332   5.243   9.997   5.263
17483TIP3   OH252333   5.058   9.779   4.039
17483TIP3    H152334   5.029   9.722   3.966
17483TIP3    H252335   5.155   9.764   4.043
17484TIP3   OH252336   5.347   9.820   5.545
17484TIP3    H152337   5.351   9.737   5.493
17484TIP3    H252338   5.316   9.883   5.476
17485TIP3   OH252339   5.346   9.623   5.342
17485TIP3    H152340   5.372   9.670   5.260
17485TIP3    H252341   5.252   9.603   5.323
17486TIP3   OH252342   5.962  10.139   5.588
17486TIP3    H152343   5.978  10.048   5.617
17486TIP3    H252344   6.051  10.166   5.562
17487TIP3   OH252345   5.204   9.958   5.759
17487TIP3    H152346   5.147   9.878   5.769
17487TIP3    H252347   5.253   9.937   5.677
17488TIP3   OH252348   5.478   9.389   5.406
17488TIP3    H152349   5.429   9.471   5.383
17488TIP3    H252350   5.409   9.321   5.395
17489TIP3   OH252351   5.606   9.888   5.624
17489TIP3    H152352   5.595   9.880   5.720
17489TIP3    H252353   5.514   9.866   5.597
17490TIP3   OH252354   5.846   9.848   5.485
17490TIP3    H152355   5.767   9.839   5.543
17490TIP3    H252356   5.917   9.811   5.541
17491TIP3   OH252357   6.080   9.789   5.631
17491TIP3    H152358   6.086   9.692   5.648
17491TIP3    H252359   6.069   9.826   5.721
17492TIP3   OH252360   5.054   9.733   5.816
17492TIP3    H152361   5.061   9.641   5.782
17492TIP3    H252362   5.093   9.721   5.905
17493TIP3   OH252363   5.569   9.403   5.665
17493TIP3    H152364   5.637   9.333   5.660
17493TIP3    H252365   5.530   9.396   5.576
17494TIP3   OH252366   5.642   9.619   5.821
17494TIP3    H152367   5.618   9.546   5.760
17494TIP3    H252368   5.562   9.675   5.819
17495TIP3   OH252369   5.944   9.752   3.815
17495TIP3    H152370   5.916   9.780   3.728
17495TIP3    H252371   5.918   9.657   3.813
17496TIP3   OH252372   5.981  10.004   4.362
17496TIP3    H152373   5.979   9.908   4.370
17496TIP3    H252374   5.955  10.031   4.453
17497TIP3   OH252375   6.413  10.278   5.248
17497TIP3    H152376   6.337  10.221   5.273
17497TIP3    H252377   6.486  10.213   5.252
17498TIP3   OH252378   5.887   9.486   3.805
17498TIP3    H152379   5.961   9.453   3.860
17498TIP3    H252380   5.813   9.428   3.828
17499TIP3   OH252381   5.936   9.731   4.257
17499TIP3    H152382   5.980   9.643   4.270
17499TIP3    H252383   5.995   9.770   4.191
17500TIP3   OH252384   6.105   9.909   4.745
17500TIP3    H152385   6.188   9.938   4.702
17500TIP3    H252386   6.122   9.946   4.834
17501TIP3   OH252387   6.185  10.039   4.976
17501TIP3    H152388   6.110  10.070   5.029
17501TIP3    H252389   6.234  10.124   4.961
17502TIP3   OH252390   4.787   9.798   5.792
17502TIP3    H152391   4.884   9.787   5.790
17502TIP3    H252392   4.762   9.711   5.829
17503TIP3   OH252393   6.631   9.647   5.542
17503TIP3    H152394   6.686   9.584   5.491
17503TIP3    H252395   6.597   9.705   5.470
17504TIP3   OH252396   6.056   9.488   4.295
17504TIP3    H152397   6.103   9.473   4.380
17504TIP3    H252398   5.994   9.412   4.296
17505TIP3   OH252399   4.749   9.473   5.121
17505TIP3    H152400   4.815   9.400   5.128
17505TIP3    H252401   4.808   9.549   5.109
17506TIP3   OH252402   4.554   9.759   5.196
17506TIP3    H152403   4.602   9.749   5.111
17506TIP3    H252404   4.576   9.850   5.218
17507TIP3   OH252405   6.499   9.788   5.350
17507TIP3    H152406   6.412   9.830   5.366
17507TIP3    H252407   6.471   9.718   5.288
17508TIP3   OH252408   6.133   9.426   3.929
17508TIP3    H152409   6.175   9.354   3.877
17508TIP3    H252410   6.201   9.496   3.926
17509TIP3   OH252411   4.540   9.251   4.691
17509TIP3    H152412   4.447   9.249   4.718
17509TIP3    H252413   4.537   9.310   4.612
17510TIP3   OH252414   4.761   9.337   5.506
17510TIP3    H152415   4.708   9.328   5.587
17510TIP3    H252416   4.694   9.372   5.444
17511TIP3   OH252417   6.395   9.554   5.225
17511TIP3    H152418   6.303   9.549   5.192
17511TIP3    H252419   6.424   9.461   5.211
17512TIP3   OH252420   5.609   9.469   4.852
17512TIP3    H152421   5.559   9.401   4.899
17512TIP3    H252422   5.675   9.417   4.802
17513TIP3   OH252423   6.125   9.350   4.748
17513TIP3    H152424   6.159   9.401   4.671
17513TIP3    H252425   6.028   9.365   4.741
17514TIP3   OH252426   6.221   9.447   4.512
17514TIP3    H152427   6.295   9.396   4.472
17514TIP3    H252428   6.253   9.539   4.497
17515TIP3   OH252429   4.850   9.175   4.861
17515TIP3    H152430   4.758   9.141   4.864
17515TIP3    H252431   4.899   9.090   4.858
17516TIP3   OH252432   4.633   9.046   4.508
17516TIP3    H152433   4.666   9.104   4.437
17516TIP3    H252434   4.608   9.111   4.577
17517TIP3   OH252435   5.294   9.207   4.742
17517TIP3    H152436   5.352   9.258   4.683
17517TIP3    H252437   5.315   9.247   4.828
17518TIP3   OH252438   5.844   9.354   4.725
17518TIP3    H152439   5.837   9.315   4.637
17518TIP3    H252440   5.831   9.276   4.783
17519TIP3   OH252441   5.871   9.278   4.288
17519TIP3    H152442   5.785   9.321   4.303
17519TIP3    H252443   5.856   9.192   4.335
17520TIP3   OH252444   4.754   9.207   4.271
17520TIP3    H152445   4.803   9.144   4.216
17520TIP3    H252446   4.828   9.261   4.308
17521TIP3   OH252447   5.267   9.382   4.370
17521TIP3    H152448   5.325   9.335   4.432
17521TIP3    H252449   5.287   9.475   4.396
17522TIP3   OH252450   5.057   9.457   5.754
17522TIP3    H152451   5.023   9.385   5.810
17522TIP3    H252452   5.151   9.458   5.780
17523TIP3   OH252453   5.306   9.455   5.871
17523TIP3    H152454   5.393   9.432   5.833
17523TIP3    H252455   5.295   9.384   5.937
17524TIP3   OH252456   6.131   9.518   5.655
17524TIP3    H152457   6.148   9.495   5.750
17524TIP3    H252458   6.221   9.512   5.618
17525TIP3   OH252459   6.315   9.959   4.174
17525TIP3    H152460   6.273  10.034   4.219
17525TIP3    H252461   6.239   9.904   4.152
17526TIP3   OH252462   7.546  10.179   4.378
17526TIP3    H152463   7.585  10.093   4.397
17526TIP3    H252464   7.520  10.167   4.284
17527TIP3   OH252465   6.887   9.826   4.344
17527TIP3    H152466   6.869   9.900   4.282
17527TIP3    H252467   6.837   9.755   4.299
17528TIP3   OH252468   7.580   9.910   3.976
17528TIP3    H152469   7.651   9.893   4.041
17528TIP3    H252470   7.632   9.952   3.907
17529TIP3   OH252471   6.509  10.010   4.463
17529TIP3    H152472   6.598  10.002   4.500
17529TIP3    H252473   6.523   9.977   4.372
17530TIP3   OH252474   6.969  10.226   4.241
17530TIP3    H152475   7.057  10.188   4.261
17530TIP3    H252476   6.921  10.151   4.203
17531TIP3   OH252477   6.882   9.811   4.782
17531TIP3    H152478   6.823   9.842   4.711
17531TIP3    H252479   6.826   9.829   4.860
17532TIP3   OH252480   7.798   9.917   4.141
17532TIP3    H152481   7.773   9.866   4.219
17532TIP3    H252482   7.879   9.963   4.169
17533TIP3   OH252483   6.755   9.919   4.563
17533TIP3    H152484   6.814   9.996   4.578
17533TIP3    H252485   6.801   9.877   4.486
17534TIP3   OH252486   7.939   9.889   4.503
17534TIP3    H152487   7.845   9.911   4.492
17534TIP3    H252488   7.975   9.914   4.417
17535TIP3   OH252489   7.242   9.531   4.494
17535TIP3    H152490   7.223   9.436   4.506
17535TIP3    H252491   7.163   9.570   4.537
17536TIP3   OH252492   7.139  10.029   3.507
17536TIP3    H152493   7.163  10.120   3.528
17536TIP3    H252494   7.194  10.009   3.429
17537TIP3   OH252495   7.862   9.470   3.590
17537TIP3    H152496   7.784   9.482   3.648
17537TIP3    H252497   7.875   9.560   3.558
17538TIP3   OH252498   7.001   9.604   4.624
17538TIP3    H152499   6.912   9.574   4.596
17538TIP3    H252500   6.977   9.688   4.665
17539TIP3   OH252501   7.532   9.722   4.815
17539TIP3    H152502   7.600   9.694   4.880
17539TIP3    H252503   7.448   9.701   4.860
17540TIP3   OH252504   7.783  10.149   4.737
17540TIP3    H152505   7.735  10.140   4.822
17540TIP3    H252506   7.737  10.222   4.694
17541TIP3   OH252507   7.149   9.647   3.594
17541TIP3    H152508   7.113   9.651   3.684
17541TIP3    H252509   7.107   9.564   3.563
17542TIP3   OH252510   6.919  10.132   4.628
17542TIP3    H152511   6.857  10.143   4.703
17542TIP3    H252512   6.896  10.208   4.572
17543TIP3   OH252513   6.817  10.005   4.154
17543TIP3    H152514   6.724   9.982   4.170
17543TIP3    H252515   6.829   9.968   4.064
17544TIP3   OH252516   7.319  10.093   3.885
17544TIP3    H152517   7.237  10.144   3.865
17544TIP3    H252518   7.355  10.074   3.796
17545TIP3   OH252519   7.482  10.366   4.966
17545TIP3    H152520   7.460  10.289   5.023
17545TIP3    H252521   7.579  10.366   4.970
17546TIP3   OH252522   7.447  10.112   4.127
17546TIP3    H152523   7.391  10.125   4.048
17546TIP3    H252524   7.497  10.035   4.094
17547TIP3   OH252525   6.773  10.150   4.872
17547TIP3    H152526   6.721  10.198   4.939
17547TIP3    H252527   6.746  10.059   4.892
17548TIP3   OH252528   6.800   9.628   3.562
17548TIP3    H152529   6.791   9.628   3.659
17548TIP3    H252530   6.725   9.684   3.536
17549TIP3   OH252531   6.343   9.672   4.427
17549TIP3    H152532   6.415   9.706   4.484
17549TIP3    H252533   6.389   9.640   4.349
17550TIP3   OH252534   6.315   9.650   3.948
17550TIP3    H152535   6.358   9.690   3.870
17550TIP3    H252536   6.254   9.723   3.973
17551TIP3   OH252537   7.492  10.367   4.573
17551TIP3    H152538   7.518  10.306   4.501
17551TIP3    H252539   7.434  10.308   4.625
17552TIP3   OH252540   7.144   9.819   4.214
17552TIP3    H152541   7.059   9.823   4.263
17552TIP3    H252542   7.206   9.849   4.282
17553TIP3   OH252543   6.576   9.891   4.219
17553TIP3    H152544   6.481   9.896   4.193
17553TIP3    H252545   6.600   9.799   4.198
17554TIP3   OH252546   6.849   9.879   3.912
17554TIP3    H152547   6.939   9.906   3.885
17554TIP3    H252548   6.795   9.902   3.833
17555TIP3   OH252549   7.634   9.905   4.421
17555TIP3    H152550   7.596   9.920   4.510
17555TIP3    H252551   7.566   9.845   4.383
17556TIP3   OH252552   6.681   9.893   3.695
17556TIP3    H152553   6.618   9.862   3.627
17556TIP3    H252554   6.732   9.959   3.643
17557TIP3   OH252555   7.220  10.126   4.304
17557TIP3    H152556   7.305  10.125   4.258
17557TIP3    H252557   7.246  10.125   4.397
17558TIP3   OH252558   6.744   9.647   4.194
17558TIP3    H152559   6.713   9.566   4.239
17558TIP3    H252560   6.799   9.612   4.122
17559TIP3   OH252561   7.195  10.042   4.617
17559TIP3    H152562   7.111  10.089   4.601
17559TIP3    H252563   7.253  10.111   4.655
17560TIP3   OH252564   7.391   9.766   3.567
17560TIP3    H152565   7.297   9.736   3.572
17560TIP3    H252566   7.384   9.862   3.583
17561TIP3   OH252567   7.468  10.029   3.645
17561TIP3    H152568   7.558   9.995   3.652
17561TIP3    H252569   7.475  10.089   3.570
17562TIP3   OH252570   7.223  10.419   5.072
17562TIP3    H152571   7.136  10.446   5.034
17562TIP3    H252572   7.265  10.377   4.995
17563TIP3   OH252573   6.717   9.889   4.993
17563TIP3    H152574   6.620   9.893   5.005
17563TIP3    H252575   6.743   9.831   5.066
17564TIP3   OH252576   7.559   9.963   4.682
17564TIP3    H152577   7.642   9.993   4.721
17564TIP3    H252578   7.542   9.879   4.729
17565TIP3   OH252579   7.445   9.702   3.841
17565TIP3    H152580   7.427   9.730   3.749
17565TIP3    H252581   7.483   9.784   3.880
17566TIP3   OH252582   7.138   9.885   3.944
17566TIP3    H152583   7.203   9.957   3.933
17566TIP3    H252584   7.134   9.878   4.042
17567TIP3   OH252585   7.384  10.192   4.753
17567TIP3    H152586   7.420  10.248   4.825
17567TIP3    H252587   7.444  10.116   4.752
17568TIP3   OH252588   7.277   9.620   4.049
17568TIP3    H152589   7.256   9.698   4.104
17568TIP3    H252590   7.336   9.660   3.981
17569TIP3   OH252591   6.788   9.611   3.838
17569TIP3    H152592   6.776   9.703   3.868
17569TIP3    H252593   6.886   9.604   3.846
17570TIP3   OH252594   8.060  10.113   4.710
17570TIP3    H152595   7.968  10.131   4.736
17570TIP3    H252596   8.046  10.056   4.633
17571TIP3   OH252597   6.338   9.809   3.723
17571TIP3    H152598   6.359   9.903   3.716
17571TIP3    H252599   6.252   9.802   3.681
17572TIP3   OH252600   6.737   9.527   4.594
17572TIP3    H152601   6.705   9.494   4.507
17572TIP3    H252602   6.725   9.448   4.651
17573TIP3   OH252603   6.718  10.408   5.202
17573TIP3    H152604   6.762  10.332   5.242
17573TIP3    H252605   6.698  10.465   5.279
17574TIP3   OH252606   7.037  10.255   4.847
17574TIP3    H152607   6.943  10.237   4.863
17574TIP3    H252608   7.042  10.243   4.750
17575TIP3   OH252609   6.857  10.031   3.542
17575TIP3    H152610   6.827   9.991   3.458
17575TIP3    H252611   6.954  10.023   3.535
17576TIP3   OH252612   7.144  10.079   5.027
17576TIP3    H152613   7.146   9.996   4.975
17576TIP3    H252614   7.113  10.141   4.958
17577TIP3   OH252615   7.142   9.877   4.831
17577TIP3    H152616   7.168   9.927   4.750
17577TIP3    H252617   7.048   9.858   4.811
17578TIP3   OH252618   7.010  10.209   5.243
17578TIP3    H152619   6.943  10.139   5.257
17578TIP3    H252620   7.049  10.182   5.158
17579TIP3   OH252621   7.274   9.647   4.898
17579TIP3    H152622   7.226   9.729   4.871
17579TIP3    H252623   7.205   9.579   4.881
17580TIP3   OH252624   7.400  10.147   5.107
17580TIP3    H152625   7.385  10.140   5.203
17580TIP3    H252626   7.311  10.121   5.076
17581TIP3   OH252627   7.639  10.105   4.964
17581TIP3    H152628   7.563  10.097   5.024
17581TIP3    H252629   7.714  10.081   5.024
17582TIP3   OH252630   7.844  10.041   5.132
17582TIP3    H152631   7.871   9.948   5.136
17582TIP3    H252632   7.820  10.061   5.223
17583TIP3   OH252633   6.850   9.990   5.300
17583TIP3    H152634   6.856   9.899   5.265
17583TIP3    H252635   6.885   9.978   5.390
17584TIP3   OH252636   7.362   9.650   5.157
17584TIP3    H152637   7.436   9.588   5.142
17584TIP3    H252638   7.324   9.652   5.066
17585TIP3   OH252639   7.428   9.871   5.314
17585TIP3    H152640   7.408   9.801   5.247
17585TIP3    H252641   7.352   9.932   5.303
17586TIP3   OH252642   7.669   9.773   3.306
17586TIP3    H152643   7.756   9.742   3.337
17586TIP3    H252644   7.612   9.696   3.313
17587TIP3   OH252645   6.582  10.052   5.279
17587TIP3    H152646   6.680  10.044   5.276
17587TIP3    H252647   6.559   9.966   5.317
17588TIP3   OH252648   7.816   9.757   3.802
17588TIP3    H152649   7.880   9.740   3.874
17588TIP3    H252650   7.768   9.673   3.798
17589TIP3   OH252651   6.547   9.730   4.608
17589TIP3    H152652   6.613   9.658   4.613
17589TIP3    H252653   6.603   9.808   4.595
17590TIP3   OH252654   6.352  10.014   4.686
17590TIP3    H152655   6.399  10.004   4.600
17590TIP3    H252656   6.366  10.108   4.703
17591TIP3   OH252657   6.336   9.505   4.175
17591TIP3    H152658   6.244   9.504   4.205
17591TIP3    H252659   6.333   9.565   4.098
17592TIP3   OH252660   6.557   9.589   4.991
17592TIP3    H152661   6.503   9.585   5.072
17592TIP3    H252662   6.493   9.629   4.929
17593TIP3   OH252663   8.196   9.804   4.719
17593TIP3    H152664   8.113   9.812   4.670
17593TIP3    H252665   8.228   9.716   4.691
17594TIP3   OH252666   7.412   9.726   4.342
17594TIP3    H152667   7.356   9.659   4.384
17594TIP3    H252668   7.472   9.673   4.287
17595TIP3   OH252669   7.920   9.611   4.236
17595TIP3    H152670   7.955   9.660   4.159
17595TIP3    H252671   7.823   9.621   4.224
17596TIP3   OH252672   8.020   9.718   3.997
17596TIP3    H152673   8.084   9.653   3.958
17596TIP3    H252674   8.071   9.799   3.989
17597TIP3   OH252675   6.648   9.431   4.348
17597TIP3    H152676   6.556   9.397   4.351
17597TIP3    H252677   6.698   9.346   4.341
17598TIP3   OH252678   6.437   9.304   3.994
17598TIP3    H152679   6.464   9.364   3.922
17598TIP3    H252680   6.407   9.367   4.062
17599TIP3   OH252681   7.077   9.475   4.205
17599TIP3    H152682   7.151   9.516   4.157
17599TIP3    H252683   7.097   9.500   4.296
17600TIP3   OH252684   7.643   9.609   4.207
17600TIP3    H152685   7.635   9.567   4.121
17600TIP3    H252686   7.628   9.533   4.268
17601TIP3   OH252687   7.662   9.523   3.777
17601TIP3    H152688   7.578   9.572   3.789
17601TIP3    H252689   7.644   9.442   3.829
17602TIP3   OH252690   6.550   9.462   3.760
17602TIP3    H152691   6.599   9.403   3.700
17602TIP3    H252692   6.621   9.518   3.796
17603TIP3   OH252693   7.064   9.635   3.861
17603TIP3    H152694   7.127   9.595   3.922
17603TIP3    H252695   7.080   9.730   3.882
17604TIP3   OH252696   6.852   9.711   5.237
17604TIP3    H152697   6.818   9.643   5.297
17604TIP3    H252698   6.946   9.715   5.264
17605TIP3   OH252699   7.101   9.712   5.356
17605TIP3    H152700   7.188   9.693   5.318
17605TIP3    H252701   7.094   9.645   5.426
17606TIP3   OH252702   7.928   9.774   5.146
17606TIP3    H152703   7.950   9.745   5.237
17606TIP3    H252704   8.015   9.767   5.101
17607TIP3   OH252705   2.737   1.191   8.790
17607TIP3    H152706   2.749   1.285   8.771
17607TIP3    H252707   2.826   1.155   8.769
17608TIP3   OH252708   2.763   1.471   8.771
17608TIP3    H152709   2.806   1.545   8.723
17608TIP3    H252710   2.675   1.510   8.786
17609TIP3   OH252711   2.423   1.250   8.768
17609TIP3    H152712   2.468   1.190   8.828
17609TIP3    H252713   2.466   1.227   8.684
17610TIP3   OH252714   4.074   1.023   9.069
17610TIP3    H152715   4.079   1.109   9.022
17610TIP3    H252716   4.059   0.966   8.990
17611TIP3   OH252717   4.430   1.325   9.116
17611TIP3    H152718   4.438   1.275   9.200
17611TIP3    H252719   4.457   1.413   9.144
17612TIP3   OH252720   4.093   1.794   9.135
17612TIP3    H152721   4.146   1.733   9.080
17612TIP3    H252722   4.139   1.790   9.220
17613TIP3   OH252723   4.075   1.248   8.929
17613TIP3    H152724   4.061   1.240   8.833
17613TIP3    H252725   4.049   1.342   8.942
17614TIP3   OH252726   4.230   1.635   8.964
17614TIP3    H152727   4.271   1.551   8.933
17614TIP3    H252728   4.287   1.699   8.916
17615TIP3   OH252729   4.353   1.412   8.859
17615TIP3    H152730   4.352   1.337   8.797
17615TIP3    H252731   4.390   1.372   8.940
17616TIP3   OH252732   4.032   0.888   8.843
17616TIP3    H152733   3.943   0.916   8.815
17616TIP3    H252734   4.077   0.879   8.757
17617TIP3   OH252735   3.994   0.685   8.597
17617TIP3    H152736   4.077   0.720   8.633
17617TIP3    H252737   4.029   0.608   8.547
17618TIP3   OH252738   4.387   0.972   8.852
17618TIP3    H152739   4.354   0.992   8.942
17618TIP3    H252740   4.476   0.941   8.876
17619TIP3   OH252741   4.238   0.818   8.672
17619TIP3    H152742   4.292   0.880   8.726
17619TIP3    H252743   4.263   0.847   8.580
17620TIP3   OH252744   3.982   1.501   8.950
17620TIP3    H152745   4.050   1.568   8.968
17620TIP3    H252746   3.907   1.554   8.921
17621TIP3   OH252747   4.541   1.443   8.275
17621TIP3    H152748   4.549   1.540   8.259
17621TIP3    H252749   4.634   1.414   8.262
17622TIP3   OH252750   3.853   1.763   8.755
17622TIP3    H152751   3.803   1.742   8.674
17622TIP3    H252752   3.818   1.851   8.779
17623TIP3   OH252753   4.052   1.662   8.394
17623TIP3    H152754   4.110   1.592   8.359
17623TIP3    H252755   4.085   1.672   8.486
17624TIP3   OH252756   4.102   1.709   8.662
17624TIP3    H152757   4.014   1.720   8.705
17624TIP3    H252758   4.154   1.672   8.735
17625TIP3   OH252759   4.308   0.882   8.419
17625TIP3    H152760   4.267   0.858   8.334
17625TIP3    H252761   4.387   0.931   8.390
17626TIP3   OH252762   4.195   0.699   8.973
17626TIP3    H152763   4.146   0.760   8.914
17626TIP3    H252764   4.244   0.645   8.908
17627TIP3   OH252765   3.527   0.537   8.814
17627TIP3    H152766   3.481   0.479   8.751
17627TIP3    H252767   3.608   0.557   8.765
17628TIP3   OH252768   3.793   1.045   8.823
17628TIP3    H152769   3.726   0.981   8.789
17628TIP3    H252770   3.782   1.029   8.918
17629TIP3   OH252771   4.336   0.572   8.771
17629TIP3    H152772   4.431   0.589   8.790
17629TIP3    H252773   4.313   0.650   8.716
17630TIP3   OH252774   3.958   1.198   8.659
17630TIP3    H152775   3.910   1.285   8.661
17630TIP3    H252776   3.898   1.144   8.715
17631TIP3   OH252777   4.778   0.695   8.629
17631TIP3    H152778   4.721   0.647   8.566
17631TIP3    H252779   4.774   0.784   8.588
17632TIP3   OH252780   4.479   1.516   8.538
17632TIP3    H152781   4.454   1.443   8.595
17632TIP3    H252782   4.493   1.473   8.452
17633TIP3   OH252783   3.499   1.612   8.965
17633TIP3    H152784   3.436   1.620   9.037
17633TIP3    H252785   3.549   1.695   8.977
17634TIP3   OH252786   4.236   1.244   8.442
17634TIP3    H152787   4.284   1.221   8.524
17634TIP3    H252788   4.146   1.215   8.464
17635TIP3   OH252789   4.572   1.718   8.259
17635TIP3    H152790   4.609   1.791   8.206
17635TIP3    H252791   4.493   1.764   8.294
17636TIP3   OH252792   4.396   1.189   8.671
17636TIP3    H152793   4.384   1.112   8.731
17636TIP3    H252794   4.491   1.179   8.649
17637TIP3   OH252795   3.602   1.222   8.438
17637TIP3    H152796   3.612   1.129   8.411
17637TIP3    H252797   3.578   1.212   8.532
17638TIP3   OH252798   3.542   1.230   8.708
17638TIP3    H152799   3.613   1.199   8.766
17638TIP3    H252800   3.549   1.328   8.717
17639TIP3   OH252801   3.814   1.428   8.662
17639TIP3    H152802   3.724   1.452   8.695
17639TIP3    H252803   3.828   1.500   8.599
17640TIP3   OH252804   3.557   1.502   8.722
17640TIP3    H152805   3.525   1.572   8.661
17640TIP3    H252806   3.531   1.542   8.809
17641TIP3   OH252807   3.266   1.146   8.708
17641TIP3    H152808   3.342   1.204   8.723
17641TIP3    H252809   3.311   1.074   8.659
17642TIP3   OH252810   4.532   1.857   9.180
17642TIP3    H152811   4.480   1.912   9.118
17642TIP3    H252812   4.621   1.896   9.169
17643TIP3   OH252813   3.763   1.427   8.352
17643TIP3    H152814   3.706   1.356   8.390
17643TIP3    H252815   3.838   1.374   8.320
17644TIP3   OH252816   4.199   1.468   8.264
17644TIP3    H152817   4.244   1.405   8.323
17644TIP3    H252818   4.255   1.468   8.184
17645TIP3   OH252819   3.409   0.944   8.576
17645TIP3    H152820   3.462   0.912   8.652
17645TIP3    H252821   3.478   0.948   8.507
17646TIP3   OH252822   3.925   1.148   8.384
17646TIP3    H152823   3.920   1.158   8.481
17646TIP3    H252824   3.924   1.050   8.377
17647TIP3   OH252825   3.604   0.857   8.766
17647TIP3    H152826   3.615   0.827   8.858
17647TIP3    H252827   3.633   0.776   8.719
17648TIP3   OH252828   3.717   0.645   8.635
17648TIP3    H152829   3.692   0.643   8.541
17648TIP3    H252830   3.814   0.645   8.630
17649TIP3   OH252831   4.540   0.973   8.298
17649TIP3    H152832   4.518   0.929   8.214
17649TIP3    H252833   4.508   1.064   8.277
17650TIP3   OH252834   3.525   1.708   8.539
17650TIP3    H152835   3.620   1.701   8.521
17650TIP3    H252836   3.496   1.757   8.460
17651TIP3   OH252837   2.994   1.096   8.720
17651TIP3    H152838   3.088   1.119   8.736
17651TIP3    H252839   3.000   1.000   8.702
17652TIP3   OH252840   4.786   1.959   9.165
17652TIP3    H152841   4.827   2.028   9.219
17652TIP3    H252842   4.827   1.976   9.079
17653TIP3   OH252843   4.672   1.160   8.631
17653TIP3    H152844   4.740   1.224   8.602
17653TIP3    H252845   4.716   1.122   8.710
17654TIP3   OH252846   4.798   1.027   8.833
17654TIP3    H152847   4.738   0.984   8.898
17654TIP3    H252848   4.871   1.062   8.891
17655TIP3   OH252849   4.834   1.413   9.187
17655TIP3    H152850   4.914   1.355   9.181
17655TIP3    H252851   4.866   1.494   9.143
17656TIP3   OH252852   4.737   0.932   8.484
17656TIP3    H152853   4.667   0.941   8.415
17656TIP3    H252854   4.714   1.008   8.541
17657TIP3   OH252855   4.620   0.602   8.428
17657TIP3    H152856   4.571   0.670   8.379
17657TIP3    H252857   4.578   0.521   8.397
17658TIP3   OH252858   4.615   0.882   8.985
17658TIP3    H152859   4.614   0.785   8.976
17658TIP3    H252860   4.589   0.895   9.077
17659TIP3   OH252861   4.598   0.610   8.833
17659TIP3    H152862   4.640   0.568   8.912
17659TIP3    H252863   4.675   0.633   8.778
17660TIP3   OH252864   4.360   1.811   8.810
17660TIP3    H152865   4.419   1.807   8.733
17660TIP3    H252866   4.401   1.882   8.864
17661TIP3   OH252867   2.981   1.435   8.927
17661TIP3    H152868   2.908   1.413   8.868
17661TIP3    H252869   3.008   1.522   8.893
17662TIP3   OH252870   3.792   1.663   8.489
17662TIP3    H152871   3.880   1.686   8.453
17662TIP3    H252872   3.770   1.588   8.429
17663TIP3   OH252873   4.514   1.784   8.582
17663TIP3    H152874   4.504   1.686   8.571
17663TIP3    H252875   4.466   1.816   8.502
17664TIP3   OH252876   3.097   1.504   8.543
17664TIP3    H152877   3.098   1.531   8.636
17664TIP3    H252878   3.184   1.459   8.533
17665TIP3   OH252879   6.006   1.301   8.534
17665TIP3    H152880   5.976   1.392   8.515
17665TIP3    H252881   5.928   1.250   8.504
17666TIP3   OH252882   5.998   1.299   8.920
17666TIP3    H152883   6.036   1.274   9.006
17666TIP3    H252884   5.960   1.215   8.890
17667TIP3   OH252885   5.311   1.226   9.287
17667TIP3    H152886   5.311   1.166   9.363
17667TIP3    H252887   5.401   1.217   9.251
17668TIP3   OH252888   6.246   1.603   8.600
17668TIP3    H152889   6.233   1.531   8.663
17668TIP3    H252890   6.276   1.676   8.656
17669TIP3   OH252891   5.274   1.610   9.016
17669TIP3    H152892   5.262   1.512   9.011
17669TIP3    H252893   5.370   1.615   9.001
17670TIP3   OH252894   4.974   0.793   8.799
17670TIP3    H152895   4.931   0.879   8.814
17670TIP3    H252896   4.909   0.750   8.740
17671TIP3   OH252897   5.039   1.085   8.954
17671TIP3    H152898   5.086   1.012   9.001
17671TIP3    H252899   5.107   1.114   8.892
17672TIP3   OH252900   5.897   2.063   8.617
17672TIP3    H152901   5.941   1.993   8.565
17672TIP3    H252902   5.892   2.023   8.704
17673TIP3   OH252903   5.801   1.525   8.968
17673TIP3    H152904   5.838   1.447   8.924
17673TIP3    H252905   5.885   1.570   8.990
17674TIP3   OH252906   6.217   1.039   8.997
17674TIP3    H152907   6.241   0.955   9.038
17674TIP3    H252908   6.187   1.012   8.908
17675TIP3   OH252909   5.188   0.893   9.071
17675TIP3    H152910   5.258   0.868   9.133
17675TIP3    H252911   5.206   0.831   8.998
17676TIP3   OH252912   5.626   1.087   8.872
17676TIP3    H152913   5.719   1.057   8.881
17676TIP3    H252914   5.583   1.005   8.840
17677TIP3   OH252915   6.865   1.036   9.140
17677TIP3    H152916   6.791   1.098   9.127
17677TIP3    H252917   6.892   1.054   9.233
17678TIP3   OH252918   5.895   1.522   8.406
17678TIP3    H152919   5.852   1.500   8.322
17678TIP3    H252920   5.849   1.605   8.430
17679TIP3   OH252921   5.658   1.450   9.197
17679TIP3    H152922   5.594   1.516   9.230
17679TIP3    H252923   5.702   1.497   9.123
17680TIP3   OH252924   5.433   0.806   9.178
17680TIP3    H152925   5.509   0.853   9.139
17680TIP3    H252926   5.425   0.729   9.119
17681TIP3   OH252927   5.475   1.643   9.303
17681TIP3    H152928   5.456   1.724   9.251
17681TIP3    H252929   5.399   1.643   9.364
17682TIP3   OH252930   4.874   1.330   8.526
17682TIP3    H152931   4.837   1.358   8.441
17682TIP3    H252932   4.908   1.414   8.563
17683TIP3   OH252933   6.316   1.846   8.767
17683TIP3    H152934   6.225   1.836   8.805
17683TIP3    H252935   6.307   1.931   8.721
17684TIP3   OH252936   6.016   1.891   8.438
17684TIP3    H152937   6.066   1.809   8.419
17684TIP3    H252938   6.078   1.956   8.398
17685TIP3   OH252939   6.160   1.677   8.348
17685TIP3    H152940   6.123   1.596   8.310
17685TIP3    H252941   6.197   1.642   8.433
17686TIP3   OH252942   6.542   1.758   9.108
17686TIP3    H152943   6.531   1.680   9.050
17686TIP3    H252944   6.525   1.832   9.046
17687TIP3   OH252945   5.835   1.152   8.367
17687TIP3    H152946   5.753   1.201   8.345
17687TIP3    H252947   5.879   1.146   8.281
17688TIP3   OH252948   5.787   0.941   8.084
17688TIP3    H152949   5.862   0.985   8.128
17688TIP3    H252950   5.835   0.872   8.033
17689TIP3   OH252951   6.741   1.398   8.958
17689TIP3    H152952   6.655   1.446   8.963
17689TIP3    H252953   6.765   1.416   8.865
17690TIP3   OH252954   6.183   1.234   8.337
17690TIP3    H152955   6.128   1.258   8.416
17690TIP3    H252956   6.266   1.206   8.381
17691TIP3   OH252957   6.415   1.275   9.255
17691TIP3    H152958   6.417   1.359   9.305
17691TIP3    H252959   6.331   1.284   9.206
17692TIP3   OH252960   5.420   1.231   8.753
17692TIP3    H152961   5.374   1.173   8.688
17692TIP3    H252962   5.492   1.172   8.783
17693TIP3   OH252963   5.542   1.641   8.906
17693TIP3    H152964   5.521   1.601   8.821
17693TIP3    H252965   5.632   1.607   8.923
17694TIP3   OH252966   5.540   1.218   9.102
17694TIP3    H152967   5.573   1.194   9.012
17694TIP3    H252968   5.590   1.300   9.122
17695TIP3   OH252969   6.072   1.841   8.885
17695TIP3    H152970   6.065   1.919   8.944
17695TIP3    H252971   6.062   1.766   8.948
17696TIP3   OH252972   5.693   1.775   9.445
17696TIP3    H152973   5.623   1.834   9.479
17696TIP3    H252974   5.638   1.707   9.400
17697TIP3   OH252975   6.026   1.083   8.167
17697TIP3    H152976   6.084   1.141   8.220
17697TIP3    H252977   6.051   1.108   8.075
17698TIP3   OH252978   5.765   1.772   8.440
17698TIP3    H152979   5.847   1.822   8.453
17698TIP3    H252980   5.706   1.837   8.401
17699TIP3   OH252981   5.469   1.919   9.511
17699TIP3    H152982   5.441   1.924   9.417
17699TIP3    H252983   5.395   1.873   9.553
17700TIP3   OH252984   5.279   1.083   8.561
17700TIP3    H152985   5.206   1.113   8.503
17700TIP3    H252986   5.261   0.989   8.573
17701TIP3   OH252987   6.337   1.698   7.764
17701TIP3    H152988   6.345   1.795   7.746
17701TIP3    H252989   6.430   1.669   7.749
17702TIP3   OH252990   4.922   1.665   9.087
17702TIP3    H152991   5.017   1.654   9.078
17702TIP3    H252992   4.915   1.739   9.149
17703TIP3   OH252993   6.784   2.102   9.154
17703TIP3    H152994   6.783   2.006   9.170
17703TIP3    H252995   6.700   2.128   9.196
17704TIP3   OH252996   5.888   1.884   9.287
17704TIP3    H152997   5.886   1.979   9.310
17704TIP3    H252998   5.817   1.849   9.344
17705TIP3   OH252999   5.646   2.016   8.243
17705TIP3    H153000   5.601   1.999   8.158
17705TIP3    H253001   5.615   2.106   8.267
17706TIP3   OH253002   5.084   1.866   8.627
17706TIP3    H153003   5.133   1.856   8.712
17706TIP3    H253004   5.031   1.785   8.627
17707TIP3   OH253005   5.847   1.918   7.882
17707TIP3    H153006   5.905   1.848   7.845
17707TIP3    H253007   5.883   1.928   7.973
17708TIP3   OH253008   5.898   1.967   8.152
17708TIP3    H153009   5.811   1.975   8.196
17708TIP3    H253010   5.951   1.927   8.223
17709TIP3   OH253011   6.680   1.242   9.411
17709TIP3    H153012   6.588   1.268   9.395
17709TIP3    H253013   6.670   1.160   9.461
17710TIP3   OH253014   6.328   1.072   9.419
17710TIP3    H153015   6.389   1.075   9.495
17710TIP3    H253016   6.353   1.151   9.368
17711TIP3   OH253017   6.100   1.132   7.908
17711TIP3    H153018   6.065   1.112   7.820
17711TIP3    H253019   6.177   1.186   7.886
17712TIP3   OH253020   5.641   0.988   9.204
17712TIP3    H153021   5.580   0.994   9.279
17712TIP3    H253022   5.616   1.067   9.153
17713TIP3   OH253023   5.464   0.893   8.766
17713TIP3    H153024   5.391   0.837   8.799
17713TIP3    H253025   5.490   0.845   8.684
17714TIP3   OH253026   5.979   0.956   8.498
17714TIP3    H153027   5.925   1.028   8.458
17714TIP3    H253028   6.024   0.919   8.420
17715TIP3   OH253029   6.134   0.979   8.738
17715TIP3    H153030   6.074   1.008   8.666
17715TIP3    H253031   6.168   0.897   8.701
17716TIP3   OH253032   6.140   1.236   9.161
17716TIP3    H153033   6.175   1.166   9.101
17716TIP3    H253034   6.105   1.180   9.233
17717TIP3   OH253035   5.238   0.740   8.845
17717TIP3    H153036   5.144   0.759   8.822
17717TIP3    H253037   5.243   0.645   8.830
17718TIP3   OH253038   5.526   0.764   8.530
17718TIP3    H153039   5.612   0.737   8.495
17718TIP3    H253040   5.467   0.754   8.453
17719TIP3   OH253041   5.345   0.778   8.308
17719TIP3    H153042   5.288   0.727   8.247
17719TIP3    H253043   5.407   0.816   8.243
17720TIP3   OH253044   6.474   2.453   9.254
17720TIP3    H153045   6.471   2.477   9.159
17720TIP3    H253046   6.554   2.501   9.283
17721TIP3   OH253047   5.894   1.024   8.926
17721TIP3    H153048   5.957   0.969   8.877
17721TIP3    H253049   5.894   0.978   9.013
17722TIP3   OH253050   5.903   0.908   9.175
17722TIP3    H153051   5.809   0.930   9.192
17722TIP3    H253052   5.948   0.952   9.249
17723TIP3   OH253053   5.603   1.304   8.314
17723TIP3    H153054   5.532   1.237   8.305
17723TIP3    H253055   5.586   1.338   8.406
17724TIP3   OH253056   6.505   1.539   8.945
17724TIP3    H153057   6.529   1.589   8.864
17724TIP3    H253058   6.420   1.497   8.920
17725TIP3   OH253059   6.005   1.621   9.309
17725TIP3    H153060   6.018   1.588   9.399
17725TIP3    H253061   5.966   1.709   9.322
17726TIP3   OH253062   6.122   0.838   8.274
17726TIP3    H153063   6.219   0.849   8.286
17726TIP3    H253064   6.099   0.917   8.222
17727TIP3   OH253065   5.299   1.338   8.978
17727TIP3    H153066   5.341   1.303   8.897
17727TIP3    H253067   5.335   1.279   9.046
17728TIP3   OH253068   5.749   1.453   8.135
17728TIP3    H153069   5.701   1.539   8.142
17728TIP3    H253070   5.696   1.397   8.196
17729TIP3   OH253071   6.162   1.881   9.192
17729TIP3    H153072   6.068   1.874   9.214
17729TIP3    H253073   6.195   1.930   9.271
17730TIP3   OH253074   6.575   0.952   8.116
17730TIP3    H153075   6.518   0.903   8.053
17730TIP3    H253076   6.571   1.041   8.075
17731TIP3   OH253077   6.792   1.811   9.197
17731TIP3    H153078   6.694   1.805   9.188
17731TIP3    H253079   6.818   1.783   9.106
17732TIP3   OH253080   6.272   1.773   8.026
17732TIP3    H153081   6.251   1.701   8.087
17732TIP3    H253082   6.288   1.727   7.942
17733TIP3   OH253083   6.270   1.403   8.863
17733TIP3    H153084   6.177   1.376   8.876
17733TIP3    H253085   6.305   1.323   8.819
17734TIP3   OH253086   5.398   1.632   8.621
17734TIP3    H153087   5.398   1.712   8.564
17734TIP3    H253088   5.304   1.611   8.625
17735TIP3   OH253089   4.961   0.931   8.320
17735TIP3    H153090   5.010   1.013   8.340
17735TIP3    H253091   4.886   0.938   8.383
17736TIP3   OH253092   5.535   1.397   8.559
17736TIP3    H153093   5.500   1.485   8.582
17736TIP3    H253094   5.502   1.342   8.633
17737TIP3   OH253095   5.667   1.974   9.086
17737TIP3    H153096   5.708   2.047   9.035
17737TIP3    H253097   5.746   1.936   9.129
17738TIP3   OH253098   5.316   1.870   8.468
17738TIP3    H153099   5.231   1.878   8.515
17738TIP3    H253100   5.349   1.962   8.472
17739TIP3   OH253101   6.056   1.608   9.042
17739TIP3    H153102   6.047   1.606   9.140
17739TIP3    H253103   6.134   1.552   9.029
17740TIP3   OH253104   6.030   1.498   7.929
17740TIP3    H153105   6.085   1.475   8.008
17740TIP3    H253106   5.942   1.474   7.962
17741TIP3   OH253107   6.303   2.142   9.096
17741TIP3    H153108   6.225   2.083   9.088
17741TIP3    H253109   6.287   2.205   9.022
17742TIP3   OH253110   6.369   1.974   7.747
17742TIP3    H153111   6.407   2.045   7.692
17742TIP3    H253112   6.290   2.021   7.780
17743TIP3   OH253113   6.191   1.434   8.144
17743TIP3    H153114   6.181   1.368   8.215
17743TIP3    H253115   6.289   1.431   8.132
17744TIP3   OH253116   5.104   1.849   9.227
17744TIP3    H153117   5.154   1.767   9.236
17744TIP3    H253118   5.144   1.901   9.299
17745TIP3   OH253119   5.392   1.481   7.927
17745TIP3    H153120   5.410   1.389   7.900
17745TIP3    H253121   5.376   1.470   8.023
17746TIP3   OH253122   5.340   1.486   8.200
17746TIP3    H153123   5.413   1.455   8.255
17746TIP3    H253124   5.347   1.584   8.209
17747TIP3   OH253125   5.071   1.176   8.400
17747TIP3    H153126   5.008   1.222   8.459
17747TIP3    H253127   5.090   1.247   8.336
17748TIP3   OH253128   5.606   1.683   8.146
17748TIP3    H153129   5.520   1.710   8.183
17748TIP3    H253130   5.625   1.759   8.090
17749TIP3   OH253131   5.820   0.739   8.560
17749TIP3    H153132   5.862   0.826   8.544
17749TIP3    H253133   5.777   0.753   8.645
17750TIP3   OH253134   6.056   1.066   9.360
17750TIP3    H153135   6.069   1.106   9.447
17750TIP3    H253136   6.143   1.021   9.349
17751TIP3   OH253137   5.351   1.759   8.216
17751TIP3    H153138   5.321   1.830   8.154
17751TIP3    H253139   5.335   1.802   8.303
17752TIP3   OH253140   6.355   1.166   8.737
17752TIP3    H153141   6.284   1.102   8.754
17752TIP3    H253142   6.431   1.123   8.785
17753TIP3   OH253143   5.069   1.390   8.206
17753TIP3    H153144   5.140   1.456   8.218
17753TIP3    H253145   5.114   1.331   8.141
17754TIP3   OH253146   4.985   0.638   8.327
17754TIP3    H153147   5.034   0.723   8.327
17754TIP3    H253148   4.905   0.664   8.374
17755TIP3   OH253149   6.324   2.117   8.688
17755TIP3    H153150   6.282   2.165   8.612
17755TIP3    H253151   6.418   2.136   8.667
17756TIP3   OH253152   4.940   1.606   8.595
17756TIP3    H153153   4.870   1.634   8.655
17756TIP3    H253154   4.909   1.645   8.510
17757TIP3   OH253155   5.557   1.684   7.837
17757TIP3    H153156   5.502   1.613   7.877
17757TIP3    H253157   5.635   1.633   7.809
17758TIP3   OH253158   6.226   2.012   9.421
17758TIP3    H153159   6.222   1.969   9.509
17758TIP3    H253160   6.298   2.076   9.437
17759TIP3   OH253161   5.992   1.724   7.752
17759TIP3    H153162   6.041   1.663   7.809
17759TIP3    H253163   6.047   1.725   7.670
17760TIP3   OH253164   5.204   1.201   8.063
17760TIP3    H153165   5.258   1.166   8.135
17760TIP3    H253166   5.272   1.206   7.992
17761TIP3   OH253167   5.709   1.402   7.868
17761TIP3    H153168   5.716   1.414   7.964
17761TIP3    H253169   5.714   1.304   7.863
17762TIP3   OH253170   6.327   1.648   9.246
17762TIP3    H153171   6.401   1.693   9.200
17762TIP3    H253172   6.254   1.709   9.228
17763TIP3   OH253173   5.410   1.107   8.282
17763TIP3    H153174   5.388   1.065   8.367
17763TIP3    H253175   5.447   1.031   8.232
17764TIP3   OH253176   5.512   0.902   8.125
17764TIP3    H153177   5.487   0.904   8.031
17764TIP3    H253178   5.610   0.906   8.119
17765TIP3   OH253179   6.334   1.228   7.786
17765TIP3    H153180   6.313   1.186   7.701
17765TIP3    H253181   6.303   1.319   7.766
17766TIP3   OH253182   5.837   1.277   9.329
17766TIP3    H153183   5.914   1.285   9.272
17766TIP3    H253184   5.775   1.342   9.288
17767TIP3   OH253185   6.470   1.494   9.419
17767TIP3    H153186   6.407   1.552   9.369
17767TIP3    H253187   6.556   1.522   9.380
17768TIP3   OH253188   5.321   1.962   8.028
17768TIP3    H153189   5.416   1.954   8.010
17768TIP3    H253190   5.293   2.014   7.950
17769TIP3   OH253191   4.800   1.344   8.243
17769TIP3    H153192   4.895   1.366   8.230
17769TIP3    H253193   4.795   1.255   8.203
17770TIP3   OH253194   4.717   1.956   8.657
17770TIP3    H153195   4.649   1.895   8.621
17770TIP3    H253196   4.759   1.897   8.724
17771TIP3   OH253197   4.848   1.805   8.844
17771TIP3    H153198   4.840   1.733   8.910
17771TIP3    H253199   4.907   1.866   8.893
17772TIP3   OH253200   6.577   2.209   8.645
17772TIP3    H153201   6.606   2.240   8.733
17772TIP3    H253202   6.642   2.249   8.586
17773TIP3   OH253203   6.607   2.228   8.927
17773TIP3    H153204   6.563   2.140   8.922
17773TIP3    H253205   6.682   2.205   8.984
17774TIP3   OH253206   6.657   1.908   9.491
17774TIP3    H153207   6.567   1.920   9.522
17774TIP3    H253208   6.694   1.998   9.495
17775TIP3   OH253209   6.471   1.415   8.119
17775TIP3    H153210   6.538   1.480   8.090
17775TIP3    H253211   6.514   1.377   8.199
17776TIP3   OH253212   6.598   1.282   8.323
17776TIP3    H153213   6.532   1.241   8.383
17776TIP3    H253214   6.664   1.320   8.385
17777TIP3   OH253215   6.653   1.677   8.756
17777TIP3    H153216   6.705   1.610   8.707
17777TIP3    H253217   6.646   1.749   8.690
17778TIP3   OH253218   6.483   1.978   8.949
17778TIP3    H153219   6.410   2.018   9.002
17778TIP3    H253220   6.433   1.929   8.880
17779TIP3   OH253221   6.533   1.188   7.970
17779TIP3    H153222   6.463   1.198   7.901
17779TIP3    H253223   6.510   1.264   8.027
17780TIP3   OH253224   6.417   0.858   7.914
17780TIP3    H153225   6.370   0.930   7.871
17780TIP3    H253226   6.371   0.781   7.879
17781TIP3   OH253227   6.412   1.143   8.472
17781TIP3    H153228   6.421   1.046   8.473
17781TIP3    H253229   6.396   1.162   8.567
17782TIP3   OH253230   5.058   1.264   9.172
17782TIP3    H153231   5.052   1.203   9.095
17782TIP3    H253232   5.146   1.242   9.208
17783TIP3   OH253233   6.716   1.563   9.320
17783TIP3    H153234   6.788   1.498   9.308
17783TIP3    H253235   6.741   1.635   9.261
17784TIP3   OH253236   6.913   1.360   9.341
17784TIP3    H153237   6.824   1.324   9.366
17784TIP3    H253238   6.965   1.291   9.384
17785TIP3   OH253239   6.392   0.857   8.314
17785TIP3    H153240   6.438   0.822   8.394
17785TIP3    H253241   6.466   0.891   8.261
17786TIP3   OH253242   6.573   1.062   8.860
17786TIP3    H153243   6.664   1.072   8.823
17786TIP3    H253244   6.590   1.083   8.953
17787TIP3   OH253245   6.635   1.180   9.102
17787TIP3    H153246   6.558   1.219   9.148
17787TIP3    H253247   6.669   1.257   9.053
17788TIP3   OH253248   6.160   2.075   8.302
17788TIP3    H153249   6.211   2.060   8.219
17788TIP3    H253250   6.217   2.139   8.348
17789TIP3   OH253251   5.439   1.911   9.232
17789TIP3    H153252   5.393   1.988   9.192
17789TIP3    H253253   5.526   1.924   9.189
17790TIP3   OH253254   5.881   2.152   9.349
17790TIP3    H153255   5.929   2.141   9.435
17790TIP3    H253256   5.948   2.203   9.298
17791TIP3   OH253257   6.062   2.305   9.219
17791TIP3    H153258   6.135   2.252   9.182
17791TIP3    H253259   6.113   2.366   9.277
17792TIP3   OH253260   5.126   2.173   9.255
17792TIP3    H153261   5.038   2.206   9.228
17792TIP3    H253262   5.119   2.180   9.351
17793TIP3   OH253263   5.357   2.145   9.114
17793TIP3    H153264   5.271   2.160   9.161
17793TIP3    H253265   5.336   2.177   9.025
17794TIP3   OH253266   5.777   2.174   8.916
17794TIP3    H153267   5.710   2.194   8.848
17794TIP3    H253268   5.791   2.262   8.957
17795TIP3   OH253269   6.048   2.114   8.966
17795TIP3    H153270   5.954   2.130   8.945
17795TIP3    H253271   6.091   2.189   8.922
17796TIP3   OH253272   6.255   2.306   8.880
17796TIP3    H153273   6.241   2.390   8.832
17796TIP3    H253274   6.281   2.245   8.807
17797TIP3   OH253275   5.023   1.963   8.992
17797TIP3    H153276   5.049   1.941   9.084
17797TIP3    H253277   5.098   1.920   8.945
17798TIP3   OH253278   5.223   1.832   8.861
17798TIP3    H153279   5.240   1.748   8.910
17798TIP3    H253280   5.314   1.869   8.855
17799TIP3   OH253281   5.489   1.927   8.864
17799TIP3    H153282   5.520   1.835   8.849
17799TIP3    H253283   5.535   1.947   8.947
17800TIP3   OH253284   4.816   1.733   8.392
17800TIP3    H153285   4.730   1.701   8.359
17800TIP3    H253286   4.806   1.828   8.373
17801TIP3   OH253287   5.588   1.920   7.976
17801TIP3    H153288   5.677   1.942   7.941
17801TIP3    H253289   5.567   1.844   7.916
17802TIP3   OH253290   6.306   2.040   8.070
17802TIP3    H153291   6.298   1.942   8.057
17802TIP3    H253292   6.263   2.072   7.988
17803TIP3   OH253293   4.893   1.758   8.034
17803TIP3    H153294   4.891   1.782   8.127
17803TIP3    H253295   4.981   1.716   8.024
17804TIP3   OH253296   6.539   2.187   9.246
17804TIP3    H153297   6.459   2.153   9.201
17804TIP3    H253298   6.517   2.282   9.252
17805TIP3   OH253299   7.799   1.557   8.025
17805TIP3    H153300   7.771   1.648   8.001
17805TIP3    H253301   7.724   1.507   7.988
17806TIP3   OH253302   7.801   1.548   8.409
17806TIP3    H153303   7.800   1.487   8.484
17806TIP3    H253304   7.760   1.490   8.342
17807TIP3   OH253305   7.096   1.461   8.765
17807TIP3    H153306   7.127   1.385   8.818
17807TIP3    H253307   7.180   1.504   8.745
17808TIP3   OH253308   8.044   1.857   8.088
17808TIP3    H153309   8.028   1.791   8.156
17808TIP3    H253310   8.072   1.934   8.140
17809TIP3   OH253311   7.071   1.861   8.495
17809TIP3    H153312   7.062   1.764   8.495
17809TIP3    H253313   7.167   1.869   8.486
17810TIP3   OH253314   6.770   1.053   8.285
17810TIP3    H153315   6.723   1.137   8.301
17810TIP3    H253316   6.706   1.007   8.227
17811TIP3   OH253317   6.837   1.349   8.451
17811TIP3    H153318   6.887   1.272   8.488
17811TIP3    H253319   6.898   1.379   8.383
17812TIP3   OH253320   7.693   2.320   8.103
17812TIP3    H153321   7.737   2.250   8.051
17812TIP3    H253322   7.686   2.279   8.190
17813TIP3   OH253323   7.594   1.784   8.454
17813TIP3    H153324   7.627   1.706   8.407
17813TIP3    H253325   7.680   1.828   8.473
17814TIP3   OH253326   6.984   1.142   8.556
17814TIP3    H153327   7.063   1.115   8.607
17814TIP3    H253328   7.000   1.088   8.476
17815TIP3   OH253329   7.424   1.343   8.359
17815TIP3    H153330   7.514   1.309   8.372
17815TIP3    H253331   7.377   1.262   8.326
17816TIP3   OH253332   7.693   1.778   7.892
17816TIP3    H153333   7.648   1.757   7.808
17816TIP3    H253334   7.647   1.861   7.917
17817TIP3   OH253335   7.456   1.701   8.682
17817TIP3    H153336   7.391   1.765   8.718
17817TIP3    H253337   7.493   1.750   8.606
17818TIP3   OH253338   7.220   1.048   8.651
17818TIP3    H153339   7.286   1.113   8.683
17818TIP3    H253340   7.266   1.007   8.577
17819TIP3   OH253341   7.280   1.898   8.778
17819TIP3    H153342   7.251   1.982   8.737
17819TIP3    H253343   7.201   1.879   8.833
17820TIP3   OH253344   6.672   1.586   8.013
17820TIP3    H153345   6.633   1.612   7.928
17820TIP3    H253346   6.704   1.671   8.048
17821TIP3   OH253347   8.110   2.097   8.245
17821TIP3    H153348   8.021   2.089   8.286
17821TIP3    H253349   8.105   2.187   8.209
17822TIP3   OH253350   7.813   2.148   7.925
17822TIP3    H153351   7.863   2.065   7.906
17822TIP3    H253352   7.875   2.213   7.885
17823TIP3   OH253353   7.958   1.932   7.836
17823TIP3    H153354   7.916   1.854   7.798
17823TIP3    H253355   7.994   1.897   7.920
17824TIP3   OH253356   7.633   1.411   7.854
17824TIP3    H153357   7.550   1.459   7.834
17824TIP3    H253358   7.673   1.403   7.766
17825TIP3   OH253359   7.583   1.199   7.573
17825TIP3    H153360   7.660   1.242   7.613
17825TIP3    H253361   7.628   1.127   7.523
17826TIP3   OH253362   7.977   1.492   7.825
17826TIP3    H153363   7.922   1.516   7.903
17826TIP3    H253364   8.060   1.464   7.869
17827TIP3   OH253365   7.213   1.489   8.242
17827TIP3    H153366   7.168   1.431   8.177
17827TIP3    H253367   7.286   1.431   8.272
17828TIP3   OH253368   7.338   1.900   8.391
17828TIP3    H153369   7.317   1.860   8.305
17828TIP3    H253370   7.428   1.864   8.407
17829TIP3   OH253371   7.342   1.458   8.601
17829TIP3    H153372   7.375   1.430   8.513
17829TIP3    H253373   7.391   1.541   8.617
17830TIP3   OH253374   7.870   2.099   8.369
17830TIP3    H153375   7.860   2.177   8.426
17830TIP3    H253376   7.857   2.025   8.432
17831TIP3   OH253377   7.483   2.017   8.915
17831TIP3    H153378   7.426   2.082   8.962
17831TIP3    H253379   7.416   1.973   8.858
17832TIP3   OH253380   7.823   1.337   7.654
17832TIP3    H153381   7.880   1.398   7.706
17832TIP3    H253382   7.848   1.362   7.562
17833TIP3   OH253383   7.232   1.573   9.021
17833TIP3    H153384   7.236   1.659   9.067
17833TIP3    H253385   7.137   1.554   9.028
17834TIP3   OH253386   7.562   2.027   7.929
17834TIP3    H153387   7.643   2.081   7.940
17834TIP3    H253388   7.501   2.088   7.886
17835TIP3   OH253389   7.279   2.177   9.007
17835TIP3    H153390   7.241   2.181   8.918
17835TIP3    H253391   7.200   2.160   9.063
17836TIP3   OH253392   7.075   1.339   8.049
17836TIP3    H153393   7.004   1.372   7.990
17836TIP3    H253394   7.054   1.246   8.059
17837TIP3   OH253395   8.133   1.956   7.248
17837TIP3    H153396   8.140   2.053   7.234
17837TIP3    H253397   8.226   1.927   7.236
17838TIP3   OH253398   6.856   1.714   8.953
17838TIP3    H153399   6.790   1.693   8.884
17838TIP3    H253400   6.894   1.626   8.974
17839TIP3   OH253401   6.712   1.908   8.586
17839TIP3    H153402   6.808   1.900   8.576
17839TIP3    H253403   6.704   1.986   8.642
17840TIP3   OH253404   7.685   2.141   8.782
17840TIP3    H153405   7.674   2.237   8.803
17840TIP3    H253406   7.609   2.103   8.832
17841TIP3   OH253407   7.444   2.273   7.730
17841TIP3    H153408   7.397   2.254   7.646
17841TIP3    H253409   7.411   2.362   7.753
17842TIP3   OH253410   6.881   2.123   8.114
17842TIP3    H153411   6.928   2.113   8.199
17842TIP3    H253412   6.827   2.041   8.113
17843TIP3   OH253413   7.644   2.176   7.369
17843TIP3    H153414   7.703   2.106   7.333
17843TIP3    H253415   7.679   2.185   7.460
17844TIP3   OH253416   7.695   2.223   7.639
17844TIP3    H153417   7.606   2.233   7.680
17844TIP3    H253418   7.745   2.183   7.712
17845TIP3   OH253419   7.057   1.900   8.936
17845TIP3    H153420   7.106   1.882   9.019
17845TIP3    H253421   6.983   1.835   8.943
17846TIP3   OH253422   7.899   1.387   7.396
17846TIP3    H153423   7.860   1.368   7.309
17846TIP3    H253424   7.973   1.445   7.372
17847TIP3   OH253425   7.401   1.229   8.745
17847TIP3    H153426   7.349   1.253   8.824
17847TIP3    H253427   7.388   1.310   8.690
17848TIP3   OH253428   7.262   1.149   8.253
17848TIP3    H153429   7.188   1.094   8.284
17848TIP3    H253430   7.286   1.101   8.171
17849TIP3   OH253431   7.772   1.213   7.985
17849TIP3    H153432   7.719   1.285   7.944
17849TIP3    H253433   7.818   1.176   7.907
17850TIP3   OH253434   7.941   1.245   8.205
17850TIP3    H153435   7.876   1.265   8.134
17850TIP3    H253436   7.941   1.148   8.200
17851TIP3   OH253437   7.202   1.272   8.937
17851TIP3    H153438   7.210   1.340   9.005
17851TIP3    H253439   7.151   1.202   8.980
17852TIP3   OH253440   7.034   0.998   8.326
17852TIP3    H153441   6.940   1.016   8.304
17852TIP3    H253442   7.038   0.903   8.312
17853TIP3   OH253443   7.323   1.020   8.016
17853TIP3    H153444   7.406   0.991   7.976
17853TIP3    H253445   7.260   1.012   7.941
17854TIP3   OH253446   7.144   1.033   7.797
17854TIP3    H153447   7.085   0.983   7.736
17854TIP3    H253448   7.205   1.072   7.731
17855TIP3   OH253449   8.261   2.749   8.737
17855TIP3    H153450   8.251   2.755   8.639
17855TIP3    H253451   8.340   2.804   8.748
17856TIP3   OH253452   7.213   1.821   9.149
17856TIP3    H153453   7.300   1.849   9.182
17856TIP3    H253454   7.158   1.823   9.231
17857TIP3   OH253455   7.695   1.276   8.434
17857TIP3    H153456   7.753   1.215   8.387
17857TIP3    H253457   7.686   1.231   8.520
17858TIP3   OH253458   7.671   1.173   8.706
17858TIP3    H153459   7.577   1.194   8.717
17858TIP3    H253460   7.709   1.214   8.786
17859TIP3   OH253461   7.401   1.560   7.803
17859TIP3    H153462   7.329   1.494   7.792
17859TIP3    H253463   7.382   1.593   7.894
17860TIP3   OH253464   8.304   1.761   8.418
17860TIP3    H153465   8.336   1.821   8.348
17860TIP3    H253466   8.213   1.741   8.390
17861TIP3   OH253467   7.837   1.896   8.795
17861TIP3    H153468   7.813   1.830   8.862
17861TIP3    H253469   7.768   1.964   8.803
17862TIP3   OH253470   7.917   1.094   7.762
17862TIP3    H153471   8.014   1.108   7.768
17862TIP3    H253472   7.890   1.170   7.708
17863TIP3   OH253473   7.094   1.585   8.476
17863TIP3    H153474   7.132   1.555   8.390
17863TIP3    H253475   7.135   1.521   8.537
17864TIP3   OH253476   7.546   1.710   7.626
17864TIP3    H153477   7.498   1.796   7.631
17864TIP3    H253478   7.492   1.654   7.685
17865TIP3   OH253479   6.968   1.495   9.090
17865TIP3    H153480   6.974   1.471   9.184
17865TIP3    H253481   6.894   1.439   9.059
17866TIP3   OH253482   7.941   2.158   8.669
17866TIP3    H153483   7.847   2.146   8.693
17866TIP3    H253484   7.964   2.241   8.711
17867TIP3   OH253485   8.377   1.209   7.598
17867TIP3    H153486   8.319   1.160   7.535
17867TIP3    H253487   8.368   1.299   7.560
17868TIP3   OH253488   8.074   2.029   7.514
17868TIP3    H153489   8.044   1.959   7.574
17868TIP3    H253490   8.084   1.982   7.429
17869TIP3   OH253491   8.047   1.664   8.338
17869TIP3    H153492   7.958   1.629   8.358
17869TIP3    H253493   8.090   1.584   8.302
17870TIP3   OH253494   7.195   1.888   8.107
17870TIP3    H153495   7.194   1.968   8.051
17870TIP3    H253496   7.101   1.868   8.112
17871TIP3   OH253497   6.759   1.186   7.808
17871TIP3    H153498   6.807   1.270   7.826
17871TIP3    H253499   6.683   1.195   7.869
17872TIP3   OH253500   7.333   1.653   8.048
17872TIP3    H153501   7.297   1.741   8.069
17872TIP3    H253502   7.297   1.600   8.121
17873TIP3   OH253503   7.462   2.233   8.570
17873TIP3    H153504   7.500   2.306   8.518
17873TIP3    H253505   7.541   2.199   8.614
17874TIP3   OH253506   7.114   2.126   7.956
17874TIP3    H153507   7.028   2.134   8.002
17874TIP3    H253508   7.145   2.218   7.959
17875TIP3   OH253509   7.851   1.864   8.522
17875TIP3    H153510   7.854   1.868   8.620
17875TIP3    H253511   7.922   1.803   8.500
17876TIP3   OH253512   7.826   1.756   7.413
17876TIP3    H153513   7.878   1.732   7.494
17876TIP3    H253514   7.737   1.731   7.442
17877TIP3   OH253515   8.075   2.416   8.591
17877TIP3    H153516   8.014   2.350   8.553
17877TIP3    H253517   8.089   2.470   8.510
17878TIP3   OH253518   8.166   2.231   7.234
17878TIP3    H153519   8.202   2.303   7.179
17878TIP3    H253520   8.086   2.277   7.268
17879TIP3   OH253521   7.983   1.692   7.630
17879TIP3    H153522   7.976   1.625   7.701
17879TIP3    H253523   8.080   1.690   7.614
17880TIP3   OH253524   6.901   2.092   8.732
17880TIP3    H153525   6.954   2.017   8.764
17880TIP3    H253526   6.929   2.161   8.793
17881TIP3   OH253527   7.193   1.738   7.414
17881TIP3    H153528   7.205   1.645   7.386
17881TIP3    H253529   7.172   1.726   7.509
17882TIP3   OH253530   7.136   1.743   7.687
17882TIP3    H153531   7.209   1.715   7.744
17882TIP3    H253532   7.141   1.841   7.694
17883TIP3   OH253533   6.869   1.433   7.887
17883TIP3    H153534   6.805   1.479   7.945
17883TIP3    H253535   6.885   1.503   7.821
17884TIP3   OH253536   7.404   1.940   7.636
17884TIP3    H153537   7.317   1.966   7.671
17884TIP3    H253538   7.419   2.012   7.572
17885TIP3   OH253539   7.618   0.995   8.050
17885TIP3    H153540   7.656   1.083   8.032
17885TIP3    H253541   7.567   1.011   8.131
17886TIP3   OH253542   7.148   2.016   7.703
17886TIP3    H153543   7.118   2.085   7.640
17886TIP3    H253544   7.131   2.059   7.789
17887TIP3   OH253545   8.155   1.411   8.232
17887TIP3    H153546   8.071   1.360   8.227
17887TIP3    H253547   8.206   1.358   8.295
17888TIP3   OH253548   6.865   1.645   7.695
17888TIP3    H153549   6.933   1.714   7.703
17888TIP3    H253550   6.909   1.588   7.628
17889TIP3   OH253551   6.781   0.894   7.815
17889TIP3    H153552   6.830   0.978   7.813
17889TIP3    H253553   6.701   0.921   7.860
17890TIP3   OH253554   8.116   2.372   8.172
17890TIP3    H153555   8.077   2.422   8.097
17890TIP3    H253556   8.212   2.388   8.157
17891TIP3   OH253557   6.737   1.862   8.082
17891TIP3    H153558   6.666   1.891   8.141
17891TIP3    H253559   6.707   1.902   7.997
17892TIP3   OH253560   6.893   2.403   9.155
17892TIP3    H153561   6.979   2.403   9.203
17892TIP3    H253562   6.873   2.308   9.154
17893TIP3   OH253563   7.368   2.374   9.185
17893TIP3    H153564   7.456   2.348   9.215
17893TIP3    H253565   7.350   2.306   9.117
17894TIP3   OH253566   7.356   1.941   7.327
17894TIP3    H153567   7.299   1.870   7.364
17894TIP3    H253568   7.430   1.889   7.293
17895TIP3   OH253569   7.791   1.982   7.239
17895TIP3    H153570   7.836   1.917   7.296
17895TIP3    H253571   7.847   1.981   7.158
17896TIP3   OH253572   7.025   1.816   9.348
17896TIP3    H153573   7.039   1.725   9.376
17896TIP3    H253574   6.936   1.812   9.306
17897TIP3   OH253575   7.000   1.458   7.549
17897TIP3    H153576   7.056   1.424   7.621
17897TIP3    H253577   7.068   1.463   7.477
17898TIP3   OH253578   7.501   1.830   9.117
17898TIP3    H153579   7.481   1.883   9.037
17898TIP3    H253580   7.547   1.753   9.077
17899TIP3   OH253581   7.513   1.660   7.356
17899TIP3    H153582   7.513   1.671   7.453
17899TIP3    H253583   7.513   1.561   7.351
17900TIP3   OH253584   7.154   1.539   9.347
17900TIP3    H153585   7.143   1.443   9.345
17900TIP3    H253586   7.132   1.561   9.439
17901TIP3   OH253587   7.209   1.363   7.770
17901TIP3    H153588   7.184   1.320   7.854
17901TIP3    H253589   7.244   1.287   7.719
17902TIP3   OH253590   7.460   1.416   8.991
17902TIP3    H153591   7.392   1.486   8.990
17902TIP3    H253592   7.520   1.444   8.920
17903TIP3   OH253593   7.307   1.157   7.612
17903TIP3    H153594   7.282   1.161   7.517
17903TIP3    H253595   7.405   1.162   7.605
17904TIP3   OH253596   8.133   1.485   7.272
17904TIP3    H153597   8.110   1.442   7.187
17904TIP3    H253598   8.101   1.576   7.253
17905TIP3   OH253599   7.630   1.505   8.773
17905TIP3    H153600   7.718   1.538   8.755
17905TIP3    H253601   7.572   1.576   8.739
17906TIP3   OH253602   7.117   2.219   7.516
17906TIP3    H153603   7.212   2.214   7.496
17906TIP3    H253604   7.086   2.267   7.438
17907TIP3   OH253605   6.597   1.599   7.733
17907TIP3    H153606   6.691   1.622   7.717
17907TIP3    H253607   6.591   1.511   7.690
17908TIP3   OH253608   6.510   2.212   8.147
17908TIP3    H153609   6.444   2.150   8.109
17908TIP3    H253610   6.555   2.154   8.211
17909TIP3   OH253611   6.645   2.062   8.333
17909TIP3    H153612   6.635   1.989   8.395
17909TIP3    H253613   6.698   2.124   8.387
17910TIP3   OH253614   8.375   2.454   8.135
17910TIP3    H153615   8.394   2.492   8.223
17910TIP3    H253616   8.426   2.513   8.076
17911TIP3   OH253617   8.404   2.494   8.415
17911TIP3    H153618   8.362   2.404   8.413
17911TIP3    H253619   8.490   2.473   8.456
17912TIP3   OH253620   8.258   1.681   7.591
17912TIP3    H153621   8.331   1.743   7.570
17912TIP3    H253622   8.292   1.637   7.672
17913TIP3   OH253623   8.360   1.535   7.790
17913TIP3    H153624   8.305   1.491   7.859
17913TIP3    H253625   8.434   1.572   7.842
17914TIP3   OH253626   8.440   1.921   8.228
17914TIP3    H153627   8.475   1.888   8.145
17914TIP3    H253628   8.407   2.009   8.201
17915TIP3   OH253629   8.280   2.251   8.416
17915TIP3    H153630   8.240   2.239   8.504
17915TIP3    H253631   8.237   2.180   8.365
17916TIP3   OH253632   8.330   1.446   7.456
17916TIP3    H153633   8.260   1.454   7.387
17916TIP3    H253634   8.305   1.522   7.513
17917TIP3   OH253635   8.215   1.115   7.398
17917TIP3    H153636   8.166   1.189   7.361
17917TIP3    H253637   8.165   1.039   7.365
17918TIP3   OH253638   8.201   1.396   7.963
17918TIP3    H153639   8.202   1.299   7.958
17918TIP3    H253640   8.191   1.411   8.060
17919TIP3   OH253641   6.831   1.470   8.703
17919TIP3    H153642   6.830   1.438   8.611
17919TIP3    H253643   6.928   1.476   8.719
17920TIP3   OH253644   8.187   1.122   7.787
17920TIP3    H153645   8.227   1.090   7.871
17920TIP3    H253646   8.264   1.155   7.738
17921TIP3   OH253647   6.827   1.127   8.782
17921TIP3    H153648   6.873   1.118   8.696
17921TIP3    H253649   6.853   1.215   8.809
17922TIP3   OH253650   7.959   2.330   7.790
17922TIP3    H153651   8.009   2.317   7.706
17922TIP3    H253652   8.012   2.399   7.833
17923TIP3   OH253653   7.062   2.133   9.180
17923TIP3    H153654   6.970   2.106   9.162
17923TIP3    H253655   7.070   2.114   9.274
17924TIP3   OH253656   7.237   2.169   8.721
17924TIP3    H153657   7.188   2.244   8.683
17924TIP3    H253658   7.322   2.184   8.675
17925TIP3   OH253659   7.669   2.409   8.834
17925TIP3    H153660   7.705   2.406   8.925
17925TIP3    H253661   7.736   2.464   8.789
17926TIP3   OH253662   7.862   2.561   8.718
17926TIP3    H153663   7.932   2.519   8.664
17926TIP3    H253664   7.917   2.617   8.777
17927TIP3   OH253665   6.913   2.425   8.745
17927TIP3    H153666   6.824   2.458   8.722
17927TIP3    H253667   6.923   2.461   8.833
17928TIP3   OH253668   7.150   2.403   8.603
17928TIP3    H153669   7.063   2.416   8.648
17928TIP3    H253670   7.130   2.435   8.513
17929TIP3   OH253671   7.573   2.430   8.402
17929TIP3    H153672   7.505   2.449   8.334
17929TIP3    H253673   7.586   2.519   8.442
17930TIP3   OH253674   7.840   2.369   8.451
17930TIP3    H153675   7.746   2.387   8.431
17930TIP3    H253676   7.884   2.442   8.405
17931TIP3   OH253677   8.054   2.563   8.364
17931TIP3    H153678   8.037   2.646   8.314
17931TIP3    H253679   8.077   2.500   8.292
17932TIP3   OH253680   6.824   2.217   8.491
17932TIP3    H153681   6.851   2.190   8.581
17932TIP3    H253682   6.895   2.174   8.439
17933TIP3   OH253683   7.018   2.089   8.348
17933TIP3    H153684   7.034   2.005   8.397
17933TIP3    H253685   7.109   2.125   8.343
17934TIP3   OH253686   7.284   2.183   8.350
17934TIP3    H153687   7.315   2.092   8.336
17934TIP3    H253688   7.329   2.204   8.434
17935TIP3   OH253689   6.612   1.991   7.881
17935TIP3    H153690   6.527   1.957   7.847
17935TIP3    H253691   6.602   2.085   7.858
17936TIP3   OH253692   7.385   2.177   7.464
17936TIP3    H153693   7.473   2.200   7.427
17936TIP3    H253694   7.362   2.103   7.404
17937TIP3   OH253695   8.104   2.296   7.557
17937TIP3    H153696   8.096   2.199   7.544
17937TIP3    H253697   8.058   2.329   7.477
17938TIP3   OH253698   6.689   2.013   7.519
17938TIP3    H153699   6.692   2.039   7.612
17938TIP3    H253700   6.777   1.971   7.506
17939TIP3   OH253701   8.249   2.480   8.794
17939TIP3    H153702   8.184   2.457   8.724
17939TIP3    H253703   8.268   2.574   8.774
17940TIP3   OH253704   8.532   1.299   7.814
17940TIP3    H153705   8.499   1.389   7.800
17940TIP3    H253706   8.502   1.256   7.731
17941TIP3   OH253707   8.601   1.604   7.885
17941TIP3    H153708   8.656   1.536   7.927
17941TIP3    H253709   8.667   1.649   7.831
17942TIP3   OH253710   9.403   2.040   7.429
17942TIP3    H153711   9.364   2.023   7.342
17942TIP3    H253712   9.384   2.136   7.437
17943TIP3   OH253713   8.472   1.844   7.499
17943TIP3    H153714   8.428   1.867   7.415
17943TIP3    H253715   8.498   1.931   7.533
17944TIP3   OH253716   9.381   1.454   7.046
17944TIP3    H153717   9.448   1.486   7.108
17944TIP3    H253718   9.398   1.357   7.043
17945TIP3   OH253719   9.349   2.311   7.432
17945TIP3    H153720   9.413   2.382   7.431
17945TIP3    H253721   9.289   2.340   7.362
17946TIP3   OH253722   8.884   1.593   7.528
17946TIP3    H153723   8.809   1.631   7.478
17946TIP3    H253724   8.853   1.503   7.545
17947TIP3   OH253725   8.504   2.171   8.072
17947TIP3    H153726   8.598   2.191   8.086
17947TIP3    H253727   8.464   2.240   8.127
17948TIP3   OH253728   9.194   2.537   7.223
17948TIP3    H153729   9.186   2.507   7.131
17948TIP3    H253730   9.262   2.607   7.214
17949TIP3   OH253731   8.675   2.380   7.597
17949TIP3    H153732   8.719   2.374   7.684
17949TIP3    H253733   8.615   2.304   7.600
17950TIP3   OH253734   9.449   2.436   6.860
17950TIP3    H153735   9.505   2.363   6.825
17950TIP3    H253736   9.471   2.432   6.955
17951TIP3   OH253737   9.496   2.435   7.137
17951TIP3    H153738   9.448   2.520   7.141
17951TIP3    H253739   9.574   2.463   7.186
17952TIP3   OH253740   9.678   1.654   6.878
17952TIP3    H153741   9.660   1.617   6.789
17952TIP3    H253742   9.743   1.722   6.858
17953TIP3   OH253743   8.914   1.312   7.276
17953TIP3    H153744   8.866   1.252   7.216
17953TIP3    H253745   8.992   1.331   7.221
17954TIP3   OH253746   9.178   1.842   7.293
17954TIP3    H153747   9.128   1.758   7.277
17954TIP3    H253748   9.166   1.853   7.390
17955TIP3   OH253749   9.339   1.965   7.109
17955TIP3    H153750   9.293   2.052   7.114
17955TIP3    H253751   9.282   1.911   7.168
17956TIP3   OH253752   9.897   2.271   6.926
17956TIP3    H153753   9.891   2.258   7.024
17956TIP3    H253754   9.811   2.236   6.899
17957TIP3   OH253755   8.991   2.141   7.569
17957TIP3    H153756   8.990   2.228   7.523
17957TIP3    H253757   8.896   2.127   7.579
17958TIP3   OH253758   8.554   1.445   7.295
17958TIP3    H153759   8.603   1.527   7.315
17958TIP3    H253760   8.478   1.452   7.356
17959TIP3   OH253761   9.132   1.903   7.567
17959TIP3    H153762   9.108   1.997   7.553
17959TIP3    H253763   9.059   1.877   7.623
17960TIP3   OH253764   8.915   2.381   7.448
17960TIP3    H153765   8.826   2.394   7.488
17960TIP3    H253766   8.947   2.474   7.448
17961TIP3   OH253767   9.618   2.021   6.917
17961TIP3    H153768   9.649   1.993   7.004
17961TIP3    H253769   9.525   1.993   6.922
17962TIP3   OH253770   8.708   2.329   8.199
17962TIP3    H153771   8.743   2.255   8.251
17962TIP3    H253772   8.758   2.403   8.241
17963TIP3   OH253773   8.993   1.993   6.901
17963TIP3    H153774   9.000   1.900   6.872
17963TIP3    H253775   8.967   1.982   6.995
17964TIP3   OH253776   8.934   1.998   7.172
17964TIP3    H153777   9.013   1.972   7.221
17964TIP3    H253778   8.936   2.096   7.180
17965TIP3   OH253779   8.671   1.693   7.377
17965TIP3    H153780   8.602   1.737   7.433
17965TIP3    H253781   8.681   1.761   7.308
17966TIP3   OH253782   9.202   2.198   7.134
17966TIP3    H153783   9.111   2.225   7.158
17966TIP3    H253784   9.226   2.271   7.075
17967TIP3   OH253785   8.943   2.271   7.190
17967TIP3    H153786   8.915   2.340   7.125
17967TIP3    H253787   8.930   2.320   7.275
17968TIP3   OH253788   8.660   1.900   7.183
17968TIP3    H153789   8.725   1.973   7.189
17968TIP3    H253790   8.705   1.846   7.114
17969TIP3   OH253791   8.576   1.150   7.299
17969TIP3    H153792   8.627   1.233   7.301
17969TIP3    H253793   8.497   1.178   7.348
17970TIP3   OH253794   8.533   2.115   7.570
17970TIP3    H153795   8.463   2.146   7.630
17970TIP3    H253796   8.504   2.156   7.485
17971TIP3   OH253797   9.154   2.198   6.814
17971TIP3    H153798   9.097   2.127   6.851
17971TIP3    H253799   9.225   2.146   6.775
17972TIP3   OH253800   9.592   2.234   6.738
17972TIP3    H153801   9.623   2.150   6.778
17972TIP3    H253802   9.627   2.232   6.647
17973TIP3   OH253803   8.795   1.716   7.033
17973TIP3    H153804   8.848   1.679   7.105
17973TIP3    H253805   8.862   1.720   6.961
17974TIP3   OH253806   9.315   1.912   6.841
17974TIP3    H153807   9.311   1.924   6.938
17974TIP3    H253808   9.305   1.815   6.834
17975TIP3   OH253809   9.024   1.613   7.267
17975TIP3    H153810   8.972   1.571   7.338
17975TIP3    H253811   9.046   1.536   7.211
17976TIP3   OH253812   9.106   1.409   7.094
17976TIP3    H153813   9.072   1.416   7.002
17976TIP3    H253814   9.201   1.428   7.080
17977TIP3   OH253815   8.912   2.468   6.999
17977TIP3    H153816   9.009   2.470   6.987
17977TIP3    H253817   8.885   2.521   6.922
17978TIP3   OH253818   8.392   1.855   7.221
17978TIP3    H153819   8.487   1.878   7.205
17978TIP3    H253820   8.386   1.768   7.177
17979TIP3   OH253821   8.308   2.467   7.632
17979TIP3    H153822   8.240   2.407   7.595
17979TIP3    H253823   8.352   2.408   7.697
17980TIP3   OH253824   8.445   2.317   7.817
17980TIP3    H153825   8.426   2.248   7.884
17980TIP3    H253826   8.493   2.382   7.873
17981TIP3   OH253827   9.742   2.569   7.309
17981TIP3    H153828   9.779   2.552   7.220
17981TIP3    H253829   9.767   2.661   7.323
17982TIP3   OH253830   8.704   2.758   8.208
17982TIP3    H153831   8.606   2.760   8.199
17982TIP3    H253832   8.715   2.697   8.282
17983TIP3   OH253833   8.917   2.656   8.065
17983TIP3    H153834   8.844   2.712   8.100
17983TIP3    H253835   8.918   2.687   7.972
17984TIP3   OH253836   8.621   2.476   7.975
17984TIP3    H153837   8.641   2.441   8.065
17984TIP3    H253838   8.694   2.435   7.925
17985TIP3   OH253839   8.818   2.350   7.829
17985TIP3    H153840   8.853   2.264   7.854
17985TIP3    H253841   8.901   2.402   7.819
17986TIP3   OH253842   9.076   2.449   7.837
17986TIP3    H153843   9.131   2.369   7.831
17986TIP3    H253844   9.090   2.476   7.929
17987TIP3   OH253845   8.409   2.247   7.370
17987TIP3    H153846   8.324   2.214   7.336
17987TIP3    H253847   8.400   2.341   7.346
17988TIP3   OH253848   9.185   2.432   6.957
17988TIP3    H153849   9.269   2.463   6.917
17988TIP3    H253850   9.164   2.358   6.896
17989TIP3   OH253851   9.838   2.525   7.064
17989TIP3    H153852   9.872   2.449   7.014
17989TIP3    H253853   9.798   2.579   6.992
17990TIP3   OH253854   8.483   2.268   7.005
17990TIP3    H153855   8.486   2.299   7.097
17990TIP3    H253856   8.572   2.228   6.994
17991TIP3   OH253857   2.281   2.946   8.977
17991TIP3    H153858   2.200   2.913   8.937
17991TIP3    H253859   2.250   2.972   9.064
17992TIP3   OH253860   1.843   2.245   8.745
17992TIP3    H153861   1.909   2.293   8.798
17992TIP3    H253862   1.902   2.182   8.698
17993TIP3   OH253863   2.075   2.389   8.833
17993TIP3    H153864   2.123   2.454   8.887
17993TIP3    H253865   2.098   2.418   8.742
17994TIP3   OH253866   2.383   3.001   8.428
17994TIP3    H153867   2.391   3.097   8.411
17994TIP3    H253868   2.475   2.971   8.414
17995TIP3   OH253869   1.681   3.309   8.908
17995TIP3    H153870   1.646   3.296   8.818
17995TIP3    H253871   1.658   3.403   8.925
17996TIP3   OH253872   1.894   3.219   8.545
17996TIP3    H153873   1.953   3.150   8.507
17996TIP3    H253874   1.932   3.230   8.634
17997TIP3   OH253875   1.939   3.273   8.817
17997TIP3    H153876   1.851   3.275   8.860
17997TIP3    H253877   1.991   3.220   8.879
17998TIP3   OH253878   2.142   2.445   8.574
17998TIP3    H153879   2.109   2.416   8.487
17998TIP3    H253880   2.227   2.487   8.549
17999TIP3   OH253881   3.966   3.796  -0.608
17999TIP3    H153882   3.890   3.802  -0.549
17999TIP3    H253883   4.017   3.874  -0.579
18000TIP3   OH253884   2.183   2.142   8.901
18000TIP3    H153885   2.272   2.147   8.936
18000TIP3    H253886   2.156   2.235   8.888
18001TIP3   OH253887   1.798   2.753   8.786
18001TIP3    H153888   1.750   2.837   8.799
18001TIP3    H253889   1.760   2.698   8.856
18002TIP3   OH253890   2.636   2.262   8.767
18002TIP3    H153891   2.566   2.211   8.721
18002TIP3    H253892   2.618   2.349   8.725
18003TIP3   OH253893   2.313   3.074   8.691
18003TIP3    H153894   2.314   3.002   8.756
18003TIP3    H253895   2.330   3.028   8.607
18004TIP3   OH253896   2.071   2.804   8.586
18004TIP3    H153897   2.129   2.772   8.659
18004TIP3    H253898   1.985   2.772   8.618
18005TIP3   OH253899   2.414   3.276   8.411
18005TIP3    H153900   2.451   3.347   8.356
18005TIP3    H253901   2.334   3.322   8.443
18006TIP3   OH253902   2.230   2.721   8.793
18006TIP3    H153903   2.215   2.703   8.887
18006TIP3    H253904   2.328   2.724   8.788
18007TIP3   OH253905   1.445   2.782   8.593
18007TIP3    H153906   1.462   2.698   8.546
18007TIP3    H253907   1.414   2.748   8.678
18008TIP3   OH253908   1.634   2.977   8.799
18008TIP3    H153909   1.539   3.002   8.794
18008TIP3    H253910   1.670   3.030   8.726
18009TIP3   OH253911   1.368   3.070   8.868
18009TIP3    H153912   1.353   3.131   8.793
18009TIP3    H253913   1.336   3.125   8.941
18010TIP3   OH253914   1.608   2.987   8.503
18010TIP3    H153915   1.553   2.912   8.537
18010TIP3    H253916   1.679   2.938   8.457
18011TIP3   OH253917   2.041   3.028   8.414
18011TIP3    H153918   2.082   2.961   8.472
18011TIP3    H253919   2.097   3.025   8.334
18012TIP3   OH253920   1.244   2.492   8.710
18012TIP3    H153921   1.290   2.446   8.782
18012TIP3    H253922   1.316   2.499   8.644
18013TIP3   OH253923   1.754   2.697   8.523
18013TIP3    H153924   1.764   2.711   8.619
18013TIP3    H253925   1.759   2.599   8.519
18014TIP3   OH253926   1.562   2.185   8.783
18014TIP3    H153927   1.533   2.201   8.692
18014TIP3    H253928   1.656   2.209   8.780
18015TIP3   OH253929   2.378   2.531   8.450
18015TIP3    H153930   2.358   2.485   8.367
18015TIP3    H253931   2.345   2.621   8.426
18016TIP3   OH253932   1.365   3.263   8.680
18016TIP3    H153933   1.461   3.268   8.663
18016TIP3    H253934   1.332   3.316   8.605
18017TIP3   OH253935   2.510   2.725   8.778
18017TIP3    H153936   2.579   2.787   8.747
18017TIP3    H253937   2.557   2.681   8.852
18018TIP3   OH253938   2.646   2.592   8.968
18018TIP3    H153939   2.594   2.556   9.043
18018TIP3    H253940   2.728   2.624   9.012
18019TIP3   OH253941   2.579   2.497   8.632
18019TIP3    H153942   2.507   2.497   8.565
18019TIP3    H253943   2.550   2.573   8.686
18020TIP3   OH253944   2.450   2.169   8.592
18020TIP3    H153945   2.408   2.201   8.511
18020TIP3    H253946   2.428   2.073   8.587
18021TIP3   OH253947   2.393   1.904   8.573
18021TIP3    H153948   2.475   1.876   8.619
18021TIP3    H253949   2.328   1.838   8.600
18022TIP3   OH253950   2.644   1.858   8.675
18022TIP3    H153951   2.691   1.775   8.661
18022TIP3    H253952   2.718   1.921   8.685
18023TIP3   OH253953   2.212   3.383   8.966
18023TIP3    H153954   2.256   3.367   8.880
18023TIP3    H253955   2.267   3.455   9.001
18024TIP3   OH253956   1.635   3.228   8.635
18024TIP3    H153957   1.725   3.248   8.600
18024TIP3    H253958   1.610   3.156   8.574
18025TIP3   OH253959   2.351   3.341   8.732
18025TIP3    H153960   2.342   3.243   8.718
18025TIP3    H253961   2.309   3.374   8.650
18026TIP3   OH253962   0.939   3.047   8.703
18026TIP3    H153963   0.949   3.097   8.785
18026TIP3    H253964   1.030   3.015   8.686
18027TIP3   OH253965   3.846   2.858   8.685
18027TIP3    H153966   3.816   2.949   8.665
18027TIP3    H253967   3.769   2.807   8.655
18028TIP3   OH253968   3.831   2.863   9.051
18028TIP3    H153969   3.856   2.835   9.141
18028TIP3    H253970   3.795   2.779   9.015
18029TIP3   OH253971   4.087   3.162   8.749
18029TIP3    H153972   4.074   3.091   8.813
18029TIP3    H253973   4.120   3.235   8.805
18030TIP3   OH253974   3.132   3.154   9.181
18030TIP3    H153975   3.117   3.062   9.151
18030TIP3    H253976   3.224   3.169   9.153
18031TIP3   OH253977   2.831   2.365   8.927
18031TIP3    H153978   2.786   2.449   8.947
18031TIP3    H253979   2.766   2.324   8.867
18032TIP3   OH253980   2.905   2.647   9.039
18032TIP3    H153981   2.948   2.582   9.095
18032TIP3    H253982   2.975   2.672   8.977
18033TIP3   OH253983   3.740   3.622   8.769
18033TIP3    H153984   3.782   3.553   8.714
18033TIP3    H253985   3.736   3.578   8.854
18034TIP3   OH253986   3.643   3.081   9.095
18034TIP3    H153987   3.684   3.002   9.057
18034TIP3    H253988   3.723   3.125   9.130
18035TIP3   OH253989   4.671   2.407   9.114
18035TIP3    H153990   4.695   2.492   9.157
18035TIP3    H253991   4.686   2.429   9.020
18036TIP3   OH253992   4.070   2.587   9.153
18036TIP3    H153993   4.098   2.493   9.161
18036TIP3    H253994   4.034   2.583   9.062
18037TIP3   OH253995   3.412   2.234   9.090
18037TIP3    H153996   3.378   2.315   9.047
18037TIP3    H253997   3.353   2.167   9.049
18038TIP3   OH253998   4.091   2.335   8.739
18038TIP3    H153999   4.161   2.318   8.806
18038TIP3    H254000   4.145   2.369   8.665
18039TIP3   OH254001   3.477   2.643   8.965
18039TIP3    H154002   3.569   2.612   8.979
18039TIP3    H254003   3.429   2.558   8.951
18040TIP3   OH254004   4.743   2.623   9.265
18040TIP3    H154005   4.655   2.666   9.255
18040TIP3    H254006   4.741   2.597   9.358
18041TIP3   OH254007   3.735   3.079   8.556
18041TIP3    H154008   3.694   3.059   8.471
18041TIP3    H254009   3.689   3.161   8.581
18042TIP3   OH254010   4.297   2.335   8.920
18042TIP3    H154011   4.311   2.300   9.010
18042TIP3    H254012   4.350   2.415   8.928
18043TIP3   OH254013   2.716   2.888   8.675
18043TIP3    H154014   2.678   2.914   8.589
18043TIP3    H254015   2.749   2.973   8.710
18044TIP3   OH254016   4.158   3.402   8.915
18044TIP3    H154017   4.066   3.395   8.951
18044TIP3    H254018   4.153   3.488   8.870
18045TIP3   OH254019   4.421   2.283   9.161
18045TIP3    H154020   4.399   2.302   9.254
18045TIP3    H254021   4.510   2.322   9.152
18046TIP3   OH254022   3.855   3.448   8.589
18046TIP3    H154023   3.905   3.365   8.570
18046TIP3    H254024   3.916   3.513   8.546
18047TIP3   OH254025   4.000   3.235   8.498
18047TIP3    H154026   3.967   3.154   8.457
18047TIP3    H254027   4.037   3.201   8.582
18048TIP3   OH254028   4.378   3.313   9.265
18048TIP3    H154029   4.370   3.236   9.205
18048TIP3    H254030   4.362   3.387   9.203
18049TIP3   OH254031   3.675   2.709   8.517
18049TIP3    H154032   3.595   2.761   8.495
18049TIP3    H254033   3.722   2.706   8.432
18050TIP3   OH254034   3.633   2.495   8.232
18050TIP3    H154035   3.701   2.545   8.281
18050TIP3    H254036   3.690   2.431   8.185
18051TIP3   OH254037   4.581   2.955   9.105
18051TIP3    H154038   4.496   3.003   9.114
18051TIP3    H254039   4.605   2.979   9.013
18052TIP3   OH254040   4.023   2.792   8.488
18052TIP3    H154041   3.969   2.816   8.566
18052TIP3    H254042   4.107   2.766   8.532
18053TIP3   OH254043   4.303   2.902   9.329
18053TIP3    H154044   4.323   2.906   9.424
18053TIP3    H254045   4.228   2.841   9.326
18054TIP3   OH254046   3.250   2.789   8.904
18054TIP3    H154047   3.210   2.730   8.836
18054TIP3    H254048   3.332   2.738   8.926
18055TIP3   OH254049   3.382   3.198   9.054
18055TIP3    H154050   3.368   3.160   8.966
18055TIP3    H254051   3.469   3.158   9.078
18056TIP3   OH254052   3.439   2.784   9.200
18056TIP3    H154053   3.476   2.743   9.119
18056TIP3    H254054   3.518   2.807   9.251
18057TIP3   OH254055   3.913   3.404   9.030
18057TIP3    H154056   3.897   3.481   9.086
18057TIP3    H254057   3.895   3.327   9.088
18058TIP3   OH254058   3.862   2.651   8.315
18058TIP3    H154059   3.922   2.709   8.367
18058TIP3    H254060   3.889   2.674   8.223
18059TIP3   OH254061   3.605   3.330   8.593
18059TIP3    H154062   3.688   3.380   8.603
18059TIP3    H254063   3.547   3.394   8.549
18060TIP3   OH254064   4.379   1.890   8.364
18060TIP3    H154065   4.298   1.911   8.414
18060TIP3    H254066   4.392   1.973   8.313
18061TIP3   OH254067   3.113   2.633   8.718
18061TIP3    H154068   3.048   2.675   8.657
18061TIP3    H254069   3.085   2.541   8.715
18062TIP3   OH254070   4.178   3.257   7.912
18062TIP3    H154071   4.187   3.353   7.897
18062TIP3    H254072   4.271   3.227   7.899
18063TIP3   OH254073   4.626   3.662   9.301
18063TIP3    H154074   4.624   3.566   9.317
18063TIP3    H254075   4.541   3.688   9.344
18064TIP3   OH254076   3.731   3.486   9.423
18064TIP3    H154077   3.692   3.573   9.442
18064TIP3    H254078   3.659   3.425   9.444
18065TIP3   OH254079   3.487   3.574   8.394
18065TIP3    H154080   3.442   3.555   8.309
18065TIP3    H254081   3.455   3.663   8.416
18066TIP3   OH254082   2.926   3.425   8.779
18066TIP3    H154083   2.974   3.413   8.864
18066TIP3    H254084   2.869   3.346   8.780
18067TIP3   OH254085   3.689   3.477   8.032
18067TIP3    H154086   3.748   3.406   7.996
18067TIP3    H254087   3.723   3.485   8.124
18068TIP3   OH254088   3.739   3.525   8.301
18068TIP3    H154089   3.651   3.533   8.345
18068TIP3    H254090   3.792   3.487   8.372
18069TIP3   OH254091   3.939   2.698   8.060
18069TIP3    H154092   3.905   2.671   7.972
18069TIP3    H254093   4.022   2.742   8.035
18070TIP3   OH254094   3.651   2.072   8.361
18070TIP3    H154095   3.619   2.068   8.453
18070TIP3    H254096   3.613   1.989   8.327
18071TIP3   OH254097   3.312   2.428   8.920
18071TIP3    H154098   3.224   2.393   8.945
18071TIP3    H254099   3.325   2.385   8.833
18072TIP3   OH254100   3.815   2.511   8.652
18072TIP3    H154101   3.762   2.581   8.609
18072TIP3    H254102   3.869   2.479   8.577
18073TIP3   OH254103   3.974   2.541   8.891
18073TIP3    H154104   3.912   2.566   8.819
18073TIP3    H254105   4.008   2.458   8.851
18074TIP3   OH254106   3.307   2.044   8.327
18074TIP3    H154107   3.300   2.041   8.424
18074TIP3    H254108   3.227   2.095   8.304
18075TIP3   OH254109   2.829   2.066   8.713
18075TIP3    H154110   2.873   2.103   8.634
18075TIP3    H254111   2.766   2.138   8.732
18076TIP3   OH254112   3.922   2.773   9.291
18076TIP3    H154113   3.989   2.712   9.252
18076TIP3    H254114   3.973   2.818   9.361
18077TIP3   OH254115   3.664   2.255   8.974
18077TIP3    H154116   3.580   2.245   9.024
18077TIP3    H254117   3.731   2.230   9.040
18078TIP3   OH254118   3.085   2.294   8.999
18078TIP3    H154119   2.995   2.308   8.964
18078TIP3    H254120   3.105   2.202   8.971
18079TIP3   OH254121   3.351   2.298   8.682
18079TIP3    H154122   3.446   2.311   8.663
18079TIP3    H254123   3.307   2.320   8.597
18080TIP3   OH254124   4.114   2.326   9.174
18080TIP3    H154125   4.091   2.301   9.266
18080TIP3    H254126   4.086   2.248   9.125
18081TIP3   OH254127   3.194   2.337   8.460
18081TIP3    H154128   3.122   2.289   8.414
18081TIP3    H254129   3.246   2.370   8.384
18082TIP3   OH254130   4.305   4.019   9.393
18082TIP3    H154131   4.312   4.022   9.297
18082TIP3    H254132   4.388   4.062   9.420
18083TIP3   OH254133   3.729   2.586   9.053
18083TIP3    H154134   3.802   2.535   9.014
18083TIP3    H254135   3.725   2.552   9.144
18084TIP3   OH254136   3.257   2.054   8.951
18084TIP3    H154137   3.241   1.966   8.988
18084TIP3    H254138   3.318   2.034   8.879
18085TIP3   OH254139   3.444   2.863   8.465
18085TIP3    H154140   3.373   2.796   8.454
18085TIP3    H254141   3.426   2.896   8.556
18086TIP3   OH254142   4.348   3.106   9.093
18086TIP3    H154143   4.370   3.151   9.008
18086TIP3    H254144   4.266   3.057   9.072
18087TIP3   OH254145   3.903   2.174   8.329
18087TIP3    H154146   3.807   2.156   8.339
18087TIP3    H254147   3.912   2.268   8.355
18088TIP3   OH254148   3.973   2.422   8.433
18088TIP3    H154149   4.069   2.427   8.449
18088TIP3    H254150   3.956   2.501   8.380
18089TIP3   OH254151   3.111   2.886   9.122
18089TIP3    H154152   3.161   2.859   9.042
18089TIP3    H254153   3.150   2.827   9.189
18090TIP3   OH254154   3.591   3.011   8.287
18090TIP3    H154155   3.543   3.097   8.293
18090TIP3    H254156   3.537   2.956   8.348
18091TIP3   OH254157   4.001   3.411   9.398
18091TIP3    H154158   3.910   3.446   9.384
18091TIP3    H254159   4.052   3.491   9.417
18092TIP3   OH254160   4.415   2.512   8.268
18092TIP3    H154161   4.352   2.468   8.206
18092TIP3    H254162   4.412   2.601   8.228
18093TIP3   OH254163   4.627   3.372   9.349
18093TIP3    H154164   4.530   3.366   9.334
18093TIP3    H254165   4.658   3.344   9.260
18094TIP3   OH254166   4.115   3.331   8.177
18094TIP3    H154167   4.091   3.261   8.238
18094TIP3    H254168   4.128   3.284   8.093
18095TIP3   OH254169   4.104   2.960   9.015
18095TIP3    H154170   4.010   2.934   9.017
18095TIP3    H254171   4.144   2.882   8.973
18096TIP3   OH254172   3.239   3.190   8.770
18096TIP3    H154173   3.241   3.269   8.714
18096TIP3    H254174   3.145   3.170   8.773
18097TIP3   OH254175   2.801   2.493   8.470
18097TIP3    H154176   2.848   2.576   8.492
18097TIP3    H254177   2.725   2.498   8.531
18098TIP3   OH254178   3.374   2.953   8.709
18098TIP3    H154179   3.341   3.043   8.731
18098TIP3    H254180   3.342   2.902   8.786
18099TIP3   OH254181   3.509   3.542   9.231
18099TIP3    H154182   3.548   3.613   9.176
18099TIP3    H254183   3.589   3.492   9.254
18100TIP3   OH254184   3.158   3.427   8.619
18100TIP3    H154185   3.073   3.436   8.665
18100TIP3    H254186   3.190   3.520   8.622
18101TIP3   OH254187   3.896   3.175   9.186
18101TIP3    H154188   3.905   3.177   9.283
18101TIP3    H254189   3.972   3.121   9.160
18102TIP3   OH254190   3.872   3.060   8.078
18102TIP3    H154191   3.926   3.035   8.157
18102TIP3    H254192   3.784   3.031   8.107
18103TIP3   OH254193   4.130   3.699   9.242
18103TIP3    H154194   4.047   3.662   9.207
18103TIP3    H254195   4.141   3.773   9.178
18104TIP3   OH254196   4.211   3.532   7.897
18104TIP3    H154197   4.251   3.606   7.847
18104TIP3    H254198   4.130   3.578   7.930
18105TIP3   OH254199   4.032   2.994   8.295
18105TIP3    H154200   4.021   2.926   8.365
18105TIP3    H254201   4.129   2.990   8.282
18106TIP3   OH254202   3.236   3.039   8.078
18106TIP3    H154203   3.251   2.947   8.049
18106TIP3    H254204   3.216   3.027   8.173
18107TIP3   OH254205   3.181   3.044   8.351
18107TIP3    H154206   3.256   3.016   8.406
18107TIP3    H254207   3.186   3.142   8.358
18108TIP3   OH254208   2.916   2.737   8.552
18108TIP3    H154209   2.850   2.782   8.609
18108TIP3    H254210   2.931   2.806   8.485
18109TIP3   OH254211   3.949   2.126   8.611
18109TIP3    H154212   3.935   2.149   8.517
18109TIP3    H254213   3.988   2.208   8.647
18110TIP3   OH254214   3.448   3.241   8.299
18110TIP3    H154215   3.361   3.268   8.335
18110TIP3    H254216   3.464   3.313   8.236
18111TIP3   OH254217   3.634   2.308   8.707
18111TIP3    H154218   3.700   2.379   8.690
18111TIP3    H254219   3.644   2.298   8.805
18112TIP3   OH254220   3.782   2.032   8.813
18112TIP3    H154221   3.774   2.110   8.870
18112TIP3    H254222   3.844   2.066   8.745
18113TIP3   OH254223   3.192   3.317   8.366
18113TIP3    H154224   3.162   3.387   8.304
18113TIP3    H254225   3.176   3.361   8.453
18114TIP3   OH254226   3.293   2.031   8.602
18114TIP3    H154227   3.292   2.121   8.641
18114TIP3    H254228   3.388   2.010   8.612
18115TIP3   OH254229   4.195   2.721   8.889
18115TIP3    H154230   4.122   2.657   8.897
18115TIP3    H254231   4.269   2.675   8.936
18116TIP3   OH254232   2.910   2.946   8.358
18116TIP3    H154233   2.979   3.014   8.367
18116TIP3    H254234   2.954   2.889   8.291
18117TIP3   OH254235   2.856   2.224   8.488
18117TIP3    H154236   2.852   2.321   8.486
18117TIP3    H254237   2.772   2.199   8.449
18118TIP3   OH254238   4.163   3.670   8.839
18118TIP3    H154239   4.123   3.714   8.762
18118TIP3    H254240   4.258   3.689   8.820
18119TIP3   OH254241   2.780   3.162   8.746
18119TIP3    H154242   2.706   3.192   8.799
18119TIP3    H254243   2.757   3.201   8.659
18120TIP3   OH254244   3.400   3.242   7.990
18120TIP3    H154245   3.344   3.171   8.028
18120TIP3    H254246   3.475   3.190   7.957
18121TIP3   OH254247   3.836   3.283   7.902
18121TIP3    H154248   3.879   3.218   7.961
18121TIP3    H254249   3.894   3.281   7.823
18122TIP3   OH254250   3.045   2.759   8.212
18122TIP3    H154251   3.100   2.725   8.285
18122TIP3    H254252   3.112   2.764   8.140
18123TIP3   OH254253   3.555   2.958   8.018
18123TIP3    H154254   3.558   2.970   8.115
18123TIP3    H254255   3.556   2.860   8.013
18124TIP3   OH254256   4.140   3.169   9.388
18124TIP3    H154257   4.232   3.183   9.358
18124TIP3    H254258   4.109   3.262   9.390
18125TIP3   OH254259   3.253   2.663   8.432
18125TIP3    H154260   3.229   2.618   8.514
18125TIP3    H254261   3.290   2.589   8.379
18126TIP3   OH254262   3.354   2.459   8.273
18126TIP3    H154263   3.329   2.461   8.179
18126TIP3    H254264   3.452   2.462   8.266
18127TIP3   OH254265   4.174   2.788   7.938
18127TIP3    H154266   4.153   2.741   7.854
18127TIP3    H254267   4.142   2.878   7.914
18128TIP3   OH254268   3.162   3.520   8.179
18128TIP3    H154269   3.257   3.514   8.159
18128TIP3    H254270   3.132   3.569   8.101
18129TIP3   OH254271   2.642   2.901   8.396
18129TIP3    H154272   2.736   2.922   8.380
18129TIP3    H254273   2.635   2.812   8.354
18130TIP3   OH254274   2.557   3.514   8.803
18130TIP3    H154275   2.491   3.450   8.768
18130TIP3    H254276   2.602   3.458   8.870
18131TIP3   OH254277   2.690   3.374   8.995
18131TIP3    H154278   2.676   3.299   9.055
18131TIP3    H254279   2.730   3.439   9.055
18132TIP3   OH254280   4.415   3.758   8.796
18132TIP3    H154281   4.439   3.787   8.886
18132TIP3    H254282   4.467   3.817   8.740
18133TIP3   OH254283   4.470   3.769   9.067
18133TIP3    H154284   4.421   3.684   9.069
18133TIP3    H254285   4.528   3.757   9.143
18134TIP3   OH254286   4.310   2.975   8.270
18134TIP3    H154287   4.379   3.039   8.241
18134TIP3    H254288   4.354   2.936   8.349
18135TIP3   OH254289   4.438   2.843   8.474
18135TIP3    H154290   4.372   2.800   8.534
18135TIP3    H254291   4.504   2.879   8.537
18136TIP3   OH254292   4.493   3.237   8.899
18136TIP3    H154293   4.548   3.170   8.854
18136TIP3    H254294   4.491   3.311   8.835
18137TIP3   OH254295   4.323   3.532   9.103
18137TIP3    H154296   4.250   3.578   9.148
18137TIP3    H254297   4.277   3.485   9.030
18138TIP3   OH254298   4.376   2.750   8.120
18138TIP3    H154299   4.304   2.752   8.054
18138TIP3    H254300   4.349   2.826   8.176
18139TIP3   OH254301   4.246   2.426   8.074
18139TIP3    H154302   4.204   2.457   7.994
18139TIP3    H254303   4.221   2.331   8.072
18140TIP3   OH254304   4.251   2.699   8.620
18140TIP3    H154305   4.260   2.602   8.614
18140TIP3    H254306   4.238   2.713   8.716
18141TIP3   OH254307   4.540   3.118   9.458
18141TIP3    H154308   4.592   3.055   9.405
18141TIP3    H254309   4.556   3.202   9.412
18142TIP3   OH254310   4.725   2.907   9.444
18142TIP3    H154311   4.659   2.854   9.489
18142TIP3    H254312   4.805   2.854   9.459
18143TIP3   OH254313   4.187   2.162   8.069
18143TIP3    H154314   4.264   2.126   8.117
18143TIP3    H254315   4.117   2.097   8.084
18144TIP3   OH254316   4.248   2.416   8.514
18144TIP3    H154317   4.288   2.326   8.529
18144TIP3    H254318   4.307   2.448   8.443
18145TIP3   OH254319   4.409   2.595   9.005
18145TIP3    H154320   4.496   2.618   8.965
18145TIP3    H254321   4.426   2.621   9.097
18146TIP3   OH254322   4.493   2.732   9.240
18146TIP3    H154323   4.416   2.779   9.279
18146TIP3    H254324   4.528   2.807   9.187
18147TIP3   OH254325   4.355   2.166   8.550
18147TIP3    H154326   4.406   2.150   8.633
18147TIP3    H254327   4.295   2.088   8.551
18148TIP3   OH254328   4.438   2.098   8.185
18148TIP3    H154329   4.476   2.027   8.130
18148TIP3    H254330   4.505   2.168   8.179
18149TIP3   OH254331   2.868   1.977   8.972
18149TIP3    H154332   2.814   1.896   8.976
18149TIP3    H254333   2.859   2.003   8.878
18150TIP3   OH254334   3.994   3.630   8.448
18150TIP3    H154335   4.055   3.620   8.371
18150TIP3    H254336   4.043   3.692   8.505
18151TIP3   OH254337   3.251   3.467   9.339
18151TIP3    H154338   3.239   3.560   9.314
18151TIP3    H254339   3.345   3.454   9.321
18152TIP3   OH254340   3.899   3.845   9.395
18152TIP3    H154341   3.967   3.806   9.338
18152TIP3    H254342   3.945   3.925   9.428
18153TIP3   OH254343   3.191   3.728   9.268
18153TIP3    H154344   3.099   3.721   9.295
18153TIP3    H254345   3.180   3.745   9.172
18154TIP3   OH254346   3.621   3.733   9.065
18154TIP3    H154347   3.555   3.750   8.996
18154TIP3    H254348   3.639   3.823   9.099
18155TIP3   OH254349   3.892   3.674   9.117
18155TIP3    H154350   3.798   3.691   9.094
18155TIP3    H254351   3.937   3.744   9.067
18156TIP3   OH254352   4.094   3.867   9.028
18156TIP3    H154353   4.121   3.955   8.992
18156TIP3    H254354   4.122   3.809   8.954
18157TIP3   OH254355   2.880   3.530   9.148
18157TIP3    H154356   2.863   3.483   9.230
18157TIP3    H254357   2.949   3.474   9.105
18158TIP3   OH254358   3.066   3.382   9.013
18158TIP3    H154359   3.086   3.302   9.066
18158TIP3    H254360   3.156   3.422   9.006
18159TIP3   OH254361   3.330   3.486   9.014
18159TIP3    H154362   3.359   3.395   8.996
18159TIP3    H254363   3.373   3.500   9.100
18160TIP3   OH254364   3.890   2.134   9.092
18160TIP3    H154365   3.887   2.068   9.162
18160TIP3    H254366   3.969   2.104   9.042
18161TIP3   OH254367   4.418   2.015   8.983
18161TIP3    H154368   4.461   2.072   8.916
18161TIP3    H254369   4.344   2.071   9.011
18162TIP3   OH254370   4.527   2.128   8.760
18162TIP3    H154371   4.600   2.075   8.723
18162TIP3    H254372   4.561   2.219   8.746
18163TIP3   OH254373   2.913   1.711   8.728
18163TIP3    H154374   2.964   1.779   8.680
18163TIP3    H254375   2.915   1.743   8.819
18164TIP3   OH254376   3.584   1.894   8.987
18164TIP3    H154377   3.659   1.941   8.949
18164TIP3    H254378   3.599   1.899   9.082
18165TIP3   OH254379   4.118   2.028   8.986
18165TIP3    H154380   4.148   2.000   8.899
18165TIP3    H254381   4.116   1.943   9.035
18166TIP3   OH254382   4.174   1.952   8.544
18166TIP3    H154383   4.087   1.994   8.557
18166TIP3    H254384   4.160   1.866   8.590
18167TIP3   OH254385   2.656   3.293   8.546
18167TIP3    H154386   2.572   3.259   8.511
18167TIP3    H254387   2.647   3.387   8.522
18168TIP3   OH254388   3.061   1.884   8.523
18168TIP3    H154389   3.108   1.817   8.470
18168TIP3    H254390   3.135   1.935   8.562
18169TIP3   OH254391   3.569   2.055   8.626
18169TIP3    H154392   3.624   2.005   8.689
18169TIP3    H254393   3.594   2.146   8.651
18170TIP3   OH254394   3.430   3.478   8.127
18170TIP3    H154395   3.518   3.501   8.090
18170TIP3    H254396   3.407   3.403   8.067
18171TIP3   OH254397   4.150   3.598   8.220
18171TIP3    H154398   4.142   3.500   8.209
18171TIP3    H254399   4.104   3.628   8.139
18172TIP3   OH254400   2.733   3.315   8.182
18172TIP3    H154401   2.736   3.341   8.275
18172TIP3    H254402   2.822   3.273   8.169
18173TIP3   OH254403   4.379   3.743   9.384
18173TIP3    H154404   4.293   3.713   9.350
18173TIP3    H254405   4.355   3.828   9.423
18174TIP3   OH254406   5.641   3.113   8.173
18174TIP3    H154407   5.612   3.205   8.153
18174TIP3    H254408   5.564   3.064   8.140
18175TIP3   OH254409   5.639   3.115   8.556
18175TIP3    H154410   5.673   3.086   8.643
18175TIP3    H254411   5.599   3.033   8.522
18176TIP3   OH254412   4.938   3.010   8.920
18176TIP3    H154413   4.969   2.941   8.982
18176TIP3    H254414   5.018   3.064   8.912
18177TIP3   OH254415   5.883   3.416   8.237
18177TIP3    H154416   5.870   3.347   8.303
18177TIP3    H254417   5.914   3.491   8.290
18178TIP3   OH254418   4.911   3.419   8.643
18178TIP3    H154419   4.902   3.321   8.645
18178TIP3    H254420   5.008   3.428   8.638
18179TIP3   OH254421   4.618   2.623   8.427
18179TIP3    H154422   4.569   2.705   8.443
18179TIP3    H254423   4.548   2.567   8.390
18180TIP3   OH254424   4.676   2.909   8.602
18180TIP3    H154425   4.725   2.831   8.638
18180TIP3    H254426   4.736   2.940   8.534
18181TIP3   OH254427   5.532   3.877   8.253
18181TIP3    H154428   5.577   3.806   8.202
18181TIP3    H254429   5.528   3.838   8.341
18182TIP3   OH254430   5.438   3.340   8.603
18182TIP3    H154431   5.477   3.263   8.558
18182TIP3    H254432   5.521   3.386   8.627
18183TIP3   OH254433   6.452   2.660   8.600
18183TIP3    H154434   6.482   2.743   8.642
18183TIP3    H254435   6.476   2.676   8.507
18184TIP3   OH254436   5.850   2.841   8.635
18184TIP3    H154437   5.894   2.756   8.655
18184TIP3    H254438   5.820   2.825   8.543
18185TIP3   OH254439   5.189   2.501   8.600
18185TIP3    H154440   5.169   2.573   8.537
18185TIP3    H254441   5.141   2.427   8.556
18186TIP3   OH254442   5.883   2.592   8.221
18186TIP3    H154443   5.955   2.577   8.287
18186TIP3    H254444   5.936   2.627   8.147
18187TIP3   OH254445   4.823   2.703   8.707
18187TIP3    H154446   4.906   2.683   8.754
18187TIP3    H254447   4.836   2.647   8.627
18188TIP3   OH254448   5.263   2.900   8.501
18188TIP3    H154449   5.357   2.875   8.513
18188TIP3    H254450   5.224   2.816   8.469
18189TIP3   OH254451   6.526   2.867   8.770
18189TIP3    H154452   6.442   2.914   8.751
18189TIP3    H254453   6.540   2.893   8.862
18190TIP3   OH254454   5.186   2.484   9.033
18190TIP3    H154455   5.127   2.520   8.965
18190TIP3    H254456   5.132   2.502   9.113
18191TIP3   OH254457   5.529   3.333   8.044
18191TIP3    H154458   5.490   3.318   7.957
18191TIP3    H254459   5.487   3.418   8.069
18192TIP3   OH254460   5.293   3.259   8.829
18192TIP3    H154461   5.231   3.326   8.866
18192TIP3    H254462   5.335   3.309   8.756
18193TIP3   OH254463   6.091   2.596   8.395
18193TIP3    H154464   6.085   2.546   8.478
18193TIP3    H254465   6.146   2.672   8.421
18194TIP3   OH254466   5.057   2.600   8.818
18194TIP3    H154467   5.120   2.672   8.841
18194TIP3    H254468   5.106   2.558   8.743
18195TIP3   OH254469   5.121   3.454   8.927
18195TIP3    H154470   5.096   3.541   8.889
18195TIP3    H254471   5.042   3.438   8.983
18196TIP3   OH254472   4.514   3.144   8.163
18196TIP3    H154473   4.474   3.172   8.079
18196TIP3    H254474   4.546   3.229   8.200
18197TIP3   OH254475   5.954   3.659   8.404
18197TIP3    H154476   5.863   3.651   8.442
18197TIP3    H254477   5.946   3.745   8.358
18198TIP3   OH254478   6.245   2.560   8.766
18198TIP3    H154479   6.158   2.588   8.734
18198TIP3    H254480   6.305   2.592   8.695
18199TIP3   OH254481   5.541   2.202   8.748
18199TIP3    H154482   5.528   2.107   8.766
18199TIP3    H254483   5.463   2.240   8.795
18200TIP3   OH254484   5.654   3.705   8.076
18200TIP3    H154485   5.704   3.623   8.055
18200TIP3    H254486   5.715   3.771   8.036
18201TIP3   OH254487   5.796   3.490   7.985
18201TIP3    H154488   5.765   3.409   7.943
18201TIP3    H254489   5.833   3.455   8.069
18202TIP3   OH254490   6.180   3.571   8.748
18202TIP3    H154491   6.169   3.494   8.687
18202TIP3    H254492   6.162   3.646   8.687
18203TIP3   OH254493   5.471   2.965   8.004
18203TIP3    H154494   5.392   3.018   7.982
18203TIP3    H254495   5.519   2.964   7.919
18204TIP3   OH254496   5.430   2.751   7.717
18204TIP3    H154497   5.496   2.802   7.768
18204TIP3    H254498   5.489   2.688   7.671
18205TIP3   OH254499   6.375   3.210   8.592
18205TIP3    H154500   6.292   3.261   8.596
18205TIP3    H254501   6.405   3.233   8.502
18206TIP3   OH254502   5.818   3.047   7.975
18206TIP3    H154503   5.765   3.072   8.054
18206TIP3    H254504   5.903   3.022   8.018
18207TIP3   OH254505   6.054   3.087   8.889
18207TIP3    H154506   6.050   3.172   8.937
18207TIP3    H254507   5.968   3.090   8.842
18208TIP3   OH254508   5.051   3.045   8.393
18208TIP3    H154509   5.010   2.988   8.325
18208TIP3    H254510   5.128   2.992   8.422
18209TIP3   OH254511   5.181   3.457   8.541
18209TIP3    H154512   5.161   3.417   8.455
18209TIP3    H254513   5.271   3.423   8.559
18210TIP3   OH254514   5.187   3.017   8.747
18210TIP3    H154515   5.220   2.994   8.658
18210TIP3    H254516   5.231   3.103   8.766
18211TIP3   OH254517   5.712   3.655   8.524
18211TIP3    H154518   5.699   3.735   8.578
18211TIP3    H254519   5.697   3.582   8.587
18212TIP3   OH254520   5.325   3.573   9.073
18212TIP3    H154521   5.264   3.635   9.118
18212TIP3    H254522   5.261   3.520   9.022
18213TIP3   OH254523   5.658   2.907   7.801
18213TIP3    H154524   5.718   2.966   7.853
18213TIP3    H254525   5.685   2.930   7.709
18214TIP3   OH254526   5.083   3.131   9.173
18214TIP3    H154527   5.086   3.218   9.219
18214TIP3    H254528   4.988   3.112   9.178
18215TIP3   OH254529   5.402   3.586   8.078
18215TIP3    H154530   5.484   3.638   8.091
18215TIP3    H254531   5.343   3.650   8.037
18216TIP3   OH254532   5.121   3.740   9.158
18216TIP3    H154533   5.083   3.740   9.068
18216TIP3    H254534   5.041   3.720   9.213
18217TIP3   OH254535   6.176   2.147   7.851
18217TIP3    H154536   6.094   2.169   7.900
18217TIP3    H254537   6.189   2.229   7.799
18218TIP3   OH254538   4.918   2.889   8.196
18218TIP3    H154539   4.851   2.932   8.140
18218TIP3    H254540   4.879   2.802   8.211
18219TIP3   OH254541   5.975   3.513   7.400
18219TIP3    H154542   5.983   3.610   7.384
18219TIP3    H254543   6.067   3.484   7.387
18220TIP3   OH254544   4.694   3.277   9.106
18220TIP3    H154545   4.630   3.254   9.036
18220TIP3    H254546   4.736   3.190   9.126
18221TIP3   OH254547   4.552   3.467   8.736
18221TIP3    H154548   4.648   3.464   8.731
18221TIP3    H254549   4.538   3.547   8.790
18222TIP3   OH254550   6.418   3.918   8.794
18222TIP3    H154551   6.416   3.821   8.806
18222TIP3    H254552   6.334   3.942   8.839
18223TIP3   OH254553   5.523   3.702   8.929
18223TIP3    H154554   5.521   3.795   8.960
18223TIP3    H254555   5.451   3.662   8.983
18224TIP3   OH254556   5.282   3.830   7.881
18224TIP3    H154557   5.239   3.813   7.795
18224TIP3    H254558   5.253   3.920   7.903
18225TIP3   OH254559   4.721   3.682   8.265
18225TIP3    H154560   4.770   3.672   8.350
18225TIP3    H254561   4.668   3.600   8.266
18226TIP3   OH254562   5.484   3.732   7.520
18226TIP3    H154563   5.544   3.663   7.483
18226TIP3    H254564   5.520   3.742   7.610
18227TIP3   OH254565   5.535   3.781   7.790
18227TIP3    H154566   5.447   3.790   7.833
18227TIP3    H254567   5.588   3.743   7.861
18228TIP3   OH254568   6.306   3.048   9.068
18228TIP3    H154569   6.225   3.059   9.015
18228TIP3    H254570   6.323   2.952   9.058
18229TIP3   OH254571   4.904   3.455   9.093
18229TIP3    H154572   4.953   3.440   9.176
18229TIP3    H254573   4.829   3.393   9.101
18230TIP3   OH254574   5.303   2.279   8.878
18230TIP3    H154575   5.214   2.248   8.850
18230TIP3    H254576   5.278   2.361   8.925
18231TIP3   OH254577   5.836   2.395   9.071
18231TIP3    H154578   5.907   2.365   9.131
18231TIP3    H254579   5.754   2.373   9.119
18232TIP3   OH254580   6.075   2.823   8.989
18232TIP3    H154581   6.026   2.820   9.074
18232TIP3    H254582   6.051   2.910   8.953
18233TIP3   OH254583   5.732   2.952   7.544
18233TIP3    H154584   5.702   2.926   7.455
18233TIP3    H254585   5.816   2.997   7.523
18234TIP3   OH254586   5.444   2.330   7.847
18234TIP3    H154587   5.415   2.327   7.940
18234TIP3    H254588   5.411   2.244   7.816
18235TIP3   OH254589   5.235   2.795   8.896
18235TIP3    H154590   5.183   2.816   8.977
18235TIP3    H254591   5.219   2.876   8.843
18236TIP3   OH254592   5.118   2.681   8.410
18236TIP3    H154593   5.025   2.654   8.428
18236TIP3    H254594   5.131   2.640   8.321
18237TIP3   OH254595   5.609   2.766   8.138
18237TIP3    H154596   5.557   2.837   8.095
18237TIP3    H254597   5.665   2.735   8.064
18238TIP3   OH254598   5.785   3.048   9.226
18238TIP3    H154599   5.763   2.972   9.284
18238TIP3    H254600   5.881   3.055   9.243
18239TIP3   OH254601   5.765   2.794   8.376
18239TIP3    H154602   5.705   2.823   8.305
18239TIP3    H254603   5.800   2.713   8.333
18240TIP3   OH254604   5.053   2.825   9.103
18240TIP3    H154605   5.081   2.886   9.172
18240TIP3    H254606   5.041   2.741   9.151
18241TIP3   OH254607   5.100   2.298   7.813
18241TIP3    H154608   5.096   2.297   7.911
18241TIP3    H254609   5.022   2.354   7.793
18242TIP3   OH254610   4.649   2.354   8.680
18242TIP3    H154611   4.724   2.381   8.736
18242TIP3    H254612   4.691   2.316   8.601
18243TIP3   OH254613   4.618   2.326   8.204
18243TIP3    H154614   4.664   2.365   8.126
18243TIP3    H254615   4.557   2.399   8.225
18244TIP3   OH254616   5.776   3.040   8.799
18244TIP3    H154617   5.809   2.969   8.740
18244TIP3    H254618   5.747   2.987   8.876
18245TIP3   OH254619   5.446   2.503   8.471
18245TIP3    H154620   5.365   2.501   8.525
18245TIP3    H254621   5.516   2.499   8.539
18246TIP3   OH254622   4.880   2.559   8.479
18246TIP3    H154623   4.785   2.566   8.452
18246TIP3    H254624   4.903   2.467   8.456
18247TIP3   OH254625   5.148   2.554   8.169
18247TIP3    H154626   5.242   2.570   8.148
18247TIP3    H254627   5.102   2.577   8.085
18248TIP3   OH254628   5.938   2.579   8.675
18248TIP3    H154629   5.902   2.591   8.766
18248TIP3    H254630   5.873   2.518   8.637
18249TIP3   OH254631   4.992   2.588   7.947
18249TIP3    H154632   4.918   2.545   7.900
18249TIP3    H254633   5.043   2.625   7.871
18250TIP3   OH254634   6.109   4.267   8.892
18250TIP3    H154635   6.105   4.291   8.798
18250TIP3    H254636   6.186   4.318   8.923
18251TIP3   OH254637   5.064   3.379   9.315
18251TIP3    H154638   5.144   3.410   9.362
18251TIP3    H254639   5.000   3.378   9.390
18252TIP3   OH254640   5.528   2.831   8.568
18252TIP3    H154641   5.602   2.792   8.517
18252TIP3    H254642   5.538   2.787   8.655
18253TIP3   OH254643   5.050   2.318   8.449
18253TIP3    H154644   5.015   2.240   8.496
18253TIP3    H254645   5.101   2.278   8.377
18254TIP3   OH254646   5.505   2.727   8.860
18254TIP3    H154647   5.415   2.764   8.873
18254TIP3    H254648   5.562   2.789   8.909
18255TIP3   OH254649   5.241   3.118   7.952
18255TIP3    H154650   5.169   3.053   7.942
18255TIP3    H254651   5.223   3.152   8.043
18256TIP3   OH254652   6.142   3.355   8.582
18256TIP3    H154653   6.167   3.404   8.501
18256TIP3    H254654   6.057   3.313   8.556
18257TIP3   OH254655   5.700   2.430   7.815
18257TIP3    H154656   5.603   2.415   7.824
18257TIP3    H254657   5.711   2.524   7.840
18258TIP3   OH254658   5.640   3.437   8.951
18258TIP3    H154659   5.662   3.417   9.042
18258TIP3    H254660   5.602   3.526   8.955
18259TIP3   OH254661   5.769   2.678   7.919
18259TIP3    H154662   5.866   2.683   7.935
18259TIP3    H254663   5.752   2.758   7.866
18260TIP3   OH254664   4.934   3.140   8.629
18260TIP3    H154665   4.973   3.112   8.543
18260TIP3    H254666   4.975   3.079   8.691
18261TIP3   OH254667   5.386   3.267   7.773
18261TIP3    H154668   5.339   3.353   7.779
18261TIP3    H254669   5.333   3.213   7.835
18262TIP3   OH254670   4.818   3.063   9.228
18262TIP3    H154671   4.829   3.047   9.323
18262TIP3    H254672   4.751   2.996   9.205
18263TIP3   OH254673   5.541   3.174   9.265
18263TIP3    H154674   5.479   3.117   9.216
18263TIP3    H254675   5.627   3.140   9.234
18264TIP3   OH254676   5.801   3.695   8.848
18264TIP3    H154677   5.705   3.695   8.859
18264TIP3    H254678   5.829   3.749   8.925
18265TIP3   OH254679   6.210   2.770   7.756
18265TIP3    H154680   6.148   2.725   7.694
18265TIP3    H254681   6.208   2.858   7.714
18266TIP3   OH254682   6.430   3.627   8.835
18266TIP3    H154683   6.332   3.621   8.827
18266TIP3    H254684   6.457   3.596   8.745
18267TIP3   OH254685   5.910   3.588   7.663
18267TIP3    H154686   5.888   3.515   7.723
18267TIP3    H254687   5.925   3.542   7.578
18268TIP3   OH254688   5.907   3.217   8.501
18268TIP3    H154689   5.814   3.192   8.513
18268TIP3    H254690   5.942   3.137   8.456
18269TIP3   OH254691   5.036   3.444   8.255
18269TIP3    H154692   5.037   3.525   8.200
18269TIP3    H254693   4.941   3.429   8.264
18270TIP3   OH254694   4.598   2.748   7.956
18270TIP3    H154695   4.644   2.831   7.978
18270TIP3    H254696   4.521   2.753   8.018
18271TIP3   OH254697   5.172   3.209   8.197
18271TIP3    H154698   5.138   3.299   8.216
18271TIP3    H254699   5.136   3.159   8.273
18272TIP3   OH254700   5.305   3.788   8.722
18272TIP3    H154701   5.346   3.861   8.671
18272TIP3    H254702   5.382   3.753   8.770
18273TIP3   OH254703   4.954   3.684   8.106
18273TIP3    H154704   4.868   3.693   8.153
18273TIP3    H254705   4.986   3.777   8.109
18274TIP3   OH254706   5.692   3.423   8.682
18274TIP3    H154707   5.683   3.420   8.780
18274TIP3    H254708   5.772   3.369   8.668
18275TIP3   OH254709   5.668   3.314   7.566
18275TIP3    H154710   5.722   3.290   7.645
18275TIP3    H254711   5.580   3.289   7.597
18276TIP3   OH254712   5.941   3.956   8.732
18276TIP3    H154713   5.861   3.900   8.724
18276TIP3    H254714   5.927   4.021   8.660
18277TIP3   OH254715   6.006   3.788   7.385
18277TIP3    H154716   6.044   3.857   7.329
18277TIP3    H254717   5.927   3.836   7.418
18278TIP3   OH254718   5.024   2.572   9.243
18278TIP3    H154719   4.928   2.587   9.257
18278TIP3    H254720   5.046   2.513   9.316
18279TIP3   OH254721   5.828   3.250   7.783
18279TIP3    H154722   5.819   3.182   7.853
18279TIP3    H254723   5.925   3.247   7.769
18280TIP3   OH254724   4.746   3.649   8.878
18280TIP3    H154725   4.800   3.576   8.912
18280TIP3    H254726   4.764   3.717   8.944
18281TIP3   OH254727   5.032   3.296   7.565
18281TIP3    H154728   5.048   3.204   7.537
18281TIP3    H254729   5.013   3.284   7.660
18282TIP3   OH254730   4.977   3.300   7.838
18282TIP3    H154731   5.051   3.274   7.894
18282TIP3    H254732   4.982   3.398   7.844
18283TIP3   OH254733   4.713   2.993   8.040
18283TIP3    H154734   4.647   3.038   8.097
18283TIP3    H254735   4.728   3.062   7.973
18284TIP3   OH254736   5.862   2.633   8.934
18284TIP3    H154737   5.945   2.669   8.969
18284TIP3    H254738   5.850   2.551   8.987
18285TIP3   OH254739   5.742   2.382   8.098
18285TIP3    H154740   5.732   2.405   8.004
18285TIP3    H254741   5.784   2.463   8.134
18286TIP3   OH254742   5.244   3.497   7.785
18286TIP3    H154743   5.157   3.525   7.821
18286TIP3    H254744   5.262   3.571   7.725
18287TIP3   OH254745   5.431   2.562   8.199
18287TIP3    H154746   5.496   2.633   8.182
18287TIP3    H254747   5.437   2.554   8.297
18288TIP3   OH254748   5.702   2.879   9.007
18288TIP3    H154749   5.724   2.930   9.087
18288TIP3    H254750   5.757   2.799   9.016
18289TIP3   OH254751   5.576   2.287   8.301
18289TIP3    H154752   5.572   2.363   8.361
18289TIP3    H254753   5.637   2.322   8.232
18290TIP3   OH254754   4.987   3.573   7.853
18290TIP3    H154755   4.958   3.643   7.791
18290TIP3    H254756   4.972   3.617   7.940
18291TIP3   OH254757   5.090   2.287   8.089
18291TIP3    H154758   5.086   2.377   8.128
18291TIP3    H254759   5.186   2.269   8.099
18292TIP3   OH254760   6.342   2.782   8.987
18292TIP3    H154761   6.244   2.779   8.994
18292TIP3    H254762   6.353   2.737   8.902
18293TIP3   OH254763   5.993   2.975   8.377
18293TIP3    H154764   5.918   2.914   8.388
18293TIP3    H254765   6.065   2.928   8.424
18294TIP3   OH254766   4.706   3.203   7.845
18294TIP3    H154767   4.774   3.272   7.855
18294TIP3    H254768   4.750   3.147   7.778
18295TIP3   OH254769   4.651   2.478   7.978
18295TIP3    H154770   4.647   2.575   7.974
18295TIP3    H254771   4.570   2.452   7.932
18296TIP3   OH254772   5.962   3.930   8.325
18296TIP3    H154773   5.919   3.977   8.250
18296TIP3    H254774   6.056   3.949   8.304
18297TIP3   OH254775   5.039   2.201   8.849
18297TIP3    H154776   5.008   2.168   8.763
18297TIP3    H254777   5.027   2.123   8.907
18298TIP3   OH254778   4.578   3.418   8.232
18298TIP3    H154779   4.508   3.447   8.292
18298TIP3    H254780   4.548   3.459   8.147
18299TIP3   OH254781   4.731   3.965   9.311
18299TIP3    H154782   4.820   3.963   9.352
18299TIP3    H254783   4.713   3.869   9.303
18300TIP3   OH254784   5.216   3.922   9.348
18300TIP3    H154785   5.311   3.906   9.352
18300TIP3    H254786   5.190   3.863   9.275
18301TIP3   OH254787   5.196   3.499   7.476
18301TIP3    H154788   5.141   3.427   7.514
18301TIP3    H254789   5.272   3.449   7.442
18302TIP3   OH254790   5.852   3.832   9.083
18302TIP3    H154791   5.847   3.761   9.152
18302TIP3    H254792   5.930   3.883   9.112
18303TIP3   OH254793   5.631   3.539   7.388
18303TIP3    H154794   5.678   3.477   7.447
18303TIP3    H254795   5.688   3.539   7.308
18304TIP3   OH254796   4.858   3.360   9.503
18304TIP3    H154797   4.886   3.266   9.500
18304TIP3    H254798   4.771   3.358   9.457
18305TIP3   OH254799   4.841   3.015   7.699
18305TIP3    H154800   4.897   2.984   7.772
18305TIP3    H254801   4.908   3.021   7.627
18306TIP3   OH254802   5.474   3.451   9.277
18306TIP3    H154803   5.430   3.469   9.192
18306TIP3    H254804   5.502   3.358   9.268
18307TIP3   OH254805   5.350   3.213   7.505
18307TIP3    H154806   5.354   3.226   7.601
18307TIP3    H254807   5.350   3.115   7.500
18308TIP3   OH254808   5.964   3.460   8.886
18308TIP3    H154809   6.039   3.504   8.840
18308TIP3    H254810   5.894   3.526   8.871
18309TIP3   OH254811   4.970   3.111   9.495
18309TIP3    H154812   5.022   3.033   9.474
18309TIP3    H254813   5.001   3.126   9.585
18310TIP3   OH254814   5.047   2.920   7.919
18310TIP3    H154815   5.022   2.880   8.004
18310TIP3    H254816   5.085   2.844   7.870
18311TIP3   OH254817   5.320   2.985   9.150
18311TIP3    H154818   5.242   3.044   9.152
18311TIP3    H254819   5.369   3.019   9.071
18312TIP3   OH254820   5.151   2.713   7.761
18312TIP3    H154821   5.125   2.721   7.666
18312TIP3    H254822   5.248   2.719   7.753
18313TIP3   OH254823   5.839   3.387   9.285
18313TIP3    H154824   5.912   3.360   9.228
18313TIP3    H254825   5.834   3.314   9.349
18314TIP3   OH254826   5.969   3.043   7.426
18314TIP3    H154827   5.951   2.998   7.341
18314TIP3    H254828   5.937   3.134   7.402
18315TIP3   OH254829   5.444   2.771   9.271
18315TIP3    H154830   5.444   2.692   9.213
18315TIP3    H254831   5.402   2.838   9.213
18316TIP3   OH254832   5.443   2.560   9.082
18316TIP3    H154833   5.472   2.601   8.998
18316TIP3    H254834   5.350   2.537   9.062
18317TIP3   OH254835   5.471   3.096   8.956
18317TIP3    H154836   5.554   3.103   8.908
18317TIP3    H254837   5.414   3.161   8.911
18318TIP3   OH254838   6.053   3.061   9.333
18318TIP3    H154839   6.100   2.978   9.350
18318TIP3    H254840   6.123   3.115   9.294
18319TIP3   OH254841   6.093   3.316   9.073
18319TIP3    H154842   6.036   3.370   9.013
18319TIP3    H254843   6.181   3.335   9.034
18320TIP3   OH254844   5.315   2.881   9.489
18320TIP3    H154845   5.244   2.813   9.499
18320TIP3    H254846   5.351   2.855   9.401
18321TIP3   OH254847   5.574   2.323   9.148
18321TIP3    H154848   5.525   2.405   9.124
18321TIP3    H254849   5.505   2.254   9.135
18322TIP3   OH254850   5.705   2.827   9.363
18322TIP3    H154851   5.708   2.811   9.458
18322TIP3    H254852   5.613   2.801   9.340
18323TIP3   OH254853   5.941   2.780   9.218
18323TIP3    H154854   5.867   2.777   9.281
18323TIP3    H254855   6.017   2.748   9.273
18324TIP3   OH254856   6.169   2.719   9.360
18324TIP3    H154857   6.183   2.623   9.375
18324TIP3    H254858   6.167   2.755   9.451
18325TIP3   OH254859   5.164   2.655   9.539
18325TIP3    H154860   5.173   2.558   9.523
18325TIP3    H254861   5.197   2.664   9.630
18326TIP3   OH254862   5.680   2.329   9.397
18326TIP3    H154863   5.747   2.260   9.377
18326TIP3    H254864   5.629   2.327   9.313
18327TIP3   OH254865   5.711   2.536   9.573
18327TIP3    H154866   5.701   2.476   9.496
18327TIP3    H254867   5.639   2.601   9.560
18328TIP3   OH254868   4.957   3.775   7.666
18328TIP3    H154869   5.053   3.770   7.648
18328TIP3    H254870   4.929   3.825   7.587
18329TIP3   OH254871   4.437   3.159   7.881
18329TIP3    H154872   4.532   3.180   7.867
18329TIP3    H254873   4.432   3.070   7.840
18330TIP3   OH254874   4.348   3.774   8.301
18330TIP3    H154875   4.284   3.709   8.262
18330TIP3    H254876   4.395   3.716   8.365
18331TIP3   OH254877   4.487   3.623   8.484
18331TIP3    H154878   4.476   3.549   8.546
18331TIP3    H254879   4.540   3.683   8.539
18332TIP3   OH254880   6.215   4.020   8.283
18332TIP3    H154881   6.242   4.056   8.369
18332TIP3    H254882   6.276   4.064   8.222
18333TIP3   OH254883   6.243   4.042   8.566
18333TIP3    H154884   6.200   3.954   8.559
18333TIP3    H254885   6.320   4.019   8.619
18334TIP3   OH254886   6.292   3.719   9.138
18334TIP3    H154887   6.218   3.727   9.202
18334TIP3    H254888   6.332   3.807   9.141
18335TIP3   OH254889   6.106   3.232   7.757
18335TIP3    H154890   6.174   3.296   7.727
18335TIP3    H254891   6.151   3.193   7.836
18336TIP3   OH254892   6.234   3.099   7.961
18336TIP3    H154893   6.169   3.057   8.020
18336TIP3    H254894   6.300   3.136   8.023
18337TIP3   OH254895   6.289   3.491   8.393
18337TIP3    H154896   6.342   3.425   8.344
18337TIP3    H254897   6.284   3.565   8.330
18338TIP3   OH254898   6.120   3.790   8.589
18338TIP3    H154899   6.048   3.834   8.638
18338TIP3    H254900   6.071   3.744   8.518
18339TIP3   OH254901   6.172   3.007   7.607
18339TIP3    H154902   6.100   3.009   7.540
18339TIP3    H254903   6.145   3.083   7.662
18340TIP3   OH254904   6.039   2.682   7.565
18340TIP3    H154905   6.005   2.717   7.482
18340TIP3    H254906   6.016   2.587   7.557
18341TIP3   OH254907   6.047   2.956   8.107
18341TIP3    H154908   6.057   2.859   8.100
18341TIP3    H254909   6.034   2.969   8.203
18342TIP3   OH254910   4.674   3.031   8.853
18342TIP3    H154911   4.672   2.998   8.761
18342TIP3    H254912   4.771   3.032   8.870
18343TIP3   OH254913   6.337   3.380   8.966
18343TIP3    H154914   6.409   3.314   8.955
18343TIP3    H254915   6.362   3.448   8.901
18344TIP3   OH254916   6.522   3.185   8.980
18344TIP3    H154917   6.447   3.134   9.019
18344TIP3    H254918   6.595   3.121   8.995
18345TIP3   OH254919   5.985   2.417   7.555
18345TIP3    H154920   6.065   2.384   7.600
18345TIP3    H254921   5.919   2.349   7.573
18346TIP3   OH254922   6.044   2.672   8.001
18346TIP3    H154923   6.085   2.583   8.016
18346TIP3    H254924   6.102   2.705   7.930
18347TIP3   OH254925   6.206   2.845   8.497
18347TIP3    H154926   6.292   2.870   8.456
18347TIP3    H254927   6.221   2.882   8.586
18348TIP3   OH254928   6.276   2.990   8.729
18348TIP3    H154929   6.198   3.024   8.776
18348TIP3    H254930   6.308   3.070   8.683
18349TIP3   OH254931   4.890   2.666   9.516
18349TIP3    H154932   4.986   2.688   9.514
18349TIP3    H254933   4.861   2.713   9.598
18350TIP3   OH254934   6.721   2.580   9.282
18350TIP3    H154935   6.785   2.516   9.243
18350TIP3    H254936   6.698   2.636   9.205
18351TIP3   OH254937   6.152   2.422   8.040
18351TIP3    H154938   6.202   2.405   8.123
18351TIP3    H254939   6.093   2.344   8.038
18352TIP3   OH254940   4.854   2.408   8.856
18352TIP3    H154941   4.916   2.333   8.867
18352TIP3    H254942   4.916   2.482   8.852
18353TIP3   OH254943   4.656   2.682   8.929
18353TIP3    H154944   4.705   2.677   8.845
18353TIP3    H254945   4.689   2.763   8.967
18354TIP3   OH254946   6.597   2.721   9.086
18354TIP3    H154947   6.509   2.760   9.105
18354TIP3    H254948   6.569   2.646   9.030
18355TIP3   OH254949   6.234   2.355   7.671
18355TIP3    H154950   6.273   2.283   7.617
18355TIP3    H254951   6.301   2.425   7.665
18356TIP3   OH254952   4.640   2.185   8.433
18356TIP3    H154953   4.546   2.181   8.459
18356TIP3    H254954   4.637   2.243   8.355
18357TIP3   OH254955   5.798   3.888   7.939
18357TIP3    H154956   5.849   3.875   7.857
18357TIP3    H254957   5.851   3.955   7.984
18358TIP3   OH254958   4.867   2.250   9.229
18358TIP3    H154959   4.816   2.223   9.307
18358TIP3    H254960   4.801   2.305   9.181
18359TIP3   OH254961   4.901   3.697   9.323
18359TIP3    H154962   4.809   3.670   9.305
18359TIP3    H254963   4.908   3.677   9.418
18360TIP3   OH254964   5.079   3.724   8.872
18360TIP3    H154965   5.030   3.799   8.833
18360TIP3    H254966   5.165   3.739   8.827
18361TIP3   OH254967   5.522   3.968   9.010
18361TIP3    H154968   5.564   3.970   9.098
18361TIP3    H254969   5.587   4.019   8.957
18362TIP3   OH254970   5.701   4.121   8.870
18362TIP3    H154971   5.772   4.072   8.826
18362TIP3    H254972   5.753   4.178   8.929
18363TIP3   OH254973   6.496   2.482   8.969
18363TIP3    H154974   6.405   2.473   8.935
18363TIP3    H254975   6.529   2.389   8.957
18364TIP3   OH254976   4.759   3.978   8.897
18364TIP3    H154977   4.676   4.011   8.862
18364TIP3    H254978   4.760   4.016   8.986
18365TIP3   OH254979   4.995   3.960   8.752
18365TIP3    H154980   4.909   3.972   8.799
18365TIP3    H254981   4.973   3.993   8.663
18366TIP3   OH254982   5.416   3.988   8.552
18366TIP3    H154983   5.348   4.008   8.485
18366TIP3    H254984   5.429   4.076   8.594
18367TIP3   OH254985   5.685   3.928   8.604
18367TIP3    H154986   5.591   3.945   8.584
18367TIP3    H254987   5.729   4.002   8.560
18368TIP3   OH254988   5.891   4.119   8.517
18368TIP3    H154989   5.878   4.204   8.470
18368TIP3    H254990   5.918   4.060   8.444
18369TIP3   OH254991   4.669   3.775   8.640
18369TIP3    H154992   4.692   3.745   8.730
18369TIP3    H254993   4.741   3.731   8.589
18370TIP3   OH254994   4.861   3.646   8.497
18370TIP3    H154995   4.876   3.562   8.546
18370TIP3    H254996   4.952   3.682   8.493
18371TIP3   OH254997   5.126   3.741   8.502
18371TIP3    H154998   5.158   3.649   8.490
18371TIP3    H254999   5.171   3.763   8.585
18372TIP3   OH255000   5.700   2.397   8.586
18372TIP3    H155001   5.658   2.326   8.638
18372TIP3    H255002   5.774   2.350   8.543
18373TIP3   OH255003   6.223   2.280   8.494
18373TIP3    H155004   6.260   2.330   8.418
18373TIP3    H255005   6.128   2.297   8.485
18374TIP3   OH255006   6.318   2.378   8.257
18374TIP3    H155007   6.391   2.325   8.217
18374TIP3    H255008   6.353   2.469   8.242
18375TIP3   OH255009   4.950   2.106   8.603
18375TIP3    H155010   4.858   2.073   8.605
18375TIP3    H255011   4.999   2.021   8.600
18376TIP3   OH255012   4.739   1.976   8.252
18376TIP3    H155013   4.767   2.034   8.179
18376TIP3    H255014   4.709   2.041   8.319
18377TIP3   OH255015   5.393   2.139   8.484
18377TIP3    H155016   5.452   2.187   8.424
18377TIP3    H255017   5.419   2.177   8.570
18378TIP3   OH255018   5.938   2.285   8.469
18378TIP3    H155019   5.941   2.246   8.380
18378TIP3    H255020   5.926   2.205   8.525
18379TIP3   OH255021   5.970   2.209   8.031
18379TIP3    H155022   5.883   2.250   8.044
18379TIP3    H255023   5.956   2.123   8.077
18380TIP3   OH255024   4.453   3.547   8.031
18380TIP3    H155025   4.368   3.513   7.997
18380TIP3    H255026   4.443   3.641   8.009
18381TIP3   OH255027   4.854   2.135   8.014
18381TIP3    H155028   4.904   2.072   7.958
18381TIP3    H255029   4.926   2.189   8.052
18382TIP3   OH255030   5.367   2.311   8.113
18382TIP3    H155031   5.427   2.265   8.174
18382TIP3    H255032   5.387   2.404   8.139
18383TIP3   OH255033   5.226   3.735   7.615
18383TIP3    H155034   5.314   3.758   7.578
18383TIP3    H255035   5.204   3.660   7.554
18384TIP3   OH255036   5.943   3.854   7.707
18384TIP3    H155037   5.935   3.757   7.694
18384TIP3    H255038   5.900   3.887   7.626
18385TIP3   OH255039   5.177   2.383   9.511
18385TIP3    H155040   5.157   2.309   9.570
18385TIP3    H255041   5.272   2.370   9.499
18386TIP3   OH255042   4.530   3.571   7.670
18386TIP3    H155043   4.534   3.593   7.764
18386TIP3    H255044   4.617   3.529   7.654
18387TIP3   OH255045   6.225   2.453   9.379
18387TIP3    H155046   6.233   2.422   9.472
18387TIP3    H255047   6.317   2.444   9.347
18388TIP3   OH255048   6.169   3.998   8.895
18388TIP3    H155049   6.092   3.967   8.844
18388TIP3    H255050   6.151   4.094   8.897
18389TIP3   OH255051   7.436   3.370   7.661
18389TIP3    H155052   7.407   3.461   7.639
18389TIP3    H255053   7.361   3.320   7.625
18390TIP3   OH255054   7.436   3.372   8.042
18390TIP3    H155055   7.468   3.341   8.129
18390TIP3    H255056   7.396   3.292   8.006
18391TIP3   OH255057   6.734   3.266   8.409
18391TIP3    H155058   6.766   3.198   8.470
18391TIP3    H255059   6.815   3.318   8.395
18392TIP3   OH255060   7.680   3.671   7.724
18392TIP3    H155061   7.666   3.603   7.790
18392TIP3    H255062   7.710   3.747   7.777
18393TIP3   OH255063   6.708   3.676   8.133
18393TIP3    H155064   6.699   3.578   8.134
18393TIP3    H255065   6.805   3.684   8.122
18394TIP3   OH255066   6.413   2.878   7.916
18394TIP3    H155067   6.364   2.961   7.930
18394TIP3    H255068   6.343   2.824   7.874
18395TIP3   OH255069   6.472   3.166   8.089
18395TIP3    H155070   6.521   3.088   8.124
18395TIP3    H255071   6.531   3.196   8.019
18396TIP3   OH255072   7.330   4.135   7.740
18396TIP3    H155073   7.373   4.065   7.687
18396TIP3    H255074   7.323   4.092   7.826
18397TIP3   OH255075   7.234   3.597   8.091
18397TIP3    H155076   7.272   3.520   8.044
18397TIP3    H255077   7.318   3.642   8.114
18398TIP3   OH255078   8.243   2.919   8.084
18398TIP3    H155079   8.273   3.002   8.127
18398TIP3    H255080   8.268   2.937   7.992
18399TIP3   OH255081   7.646   3.097   8.122
18399TIP3    H155082   7.690   3.012   8.141
18399TIP3    H255083   7.616   3.082   8.030
18400TIP3   OH255084   6.986   2.757   8.087
18400TIP3    H155085   6.966   2.830   8.024
18400TIP3    H255086   6.938   2.683   8.043
18401TIP3   OH255087   7.680   2.850   7.709
18401TIP3    H155088   7.752   2.834   7.773
18401TIP3    H255089   7.731   2.884   7.634
18402TIP3   OH255090   6.619   2.959   8.194
18402TIP3    H155091   6.702   2.939   8.241
18402TIP3    H255092   6.631   2.903   8.114
18403TIP3   OH255093   7.059   3.157   7.990
18403TIP3    H155094   7.153   3.132   8.001
18403TIP3    H255095   7.020   3.073   7.956
18404TIP3   OH255096   8.322   3.123   8.261
18404TIP3    H155097   8.238   3.172   8.244
18404TIP3    H255098   8.351   3.164   8.344
18405TIP3   OH255099   6.982   2.741   8.521
18405TIP3    H155100   6.922   2.777   8.453
18405TIP3    H255101   6.930   2.758   8.602
18406TIP3   OH255102   7.324   3.589   7.531
18406TIP3    H155103   7.288   3.574   7.443
18406TIP3    H255104   7.281   3.674   7.555
18407TIP3   OH255105   7.089   3.516   8.315
18407TIP3    H155106   7.027   3.583   8.352
18407TIP3    H255107   7.131   3.565   8.241
18408TIP3   OH255108   7.889   2.851   7.882
18408TIP3    H155109   7.879   2.804   7.966
18408TIP3    H255110   7.943   2.928   7.909
18409TIP3   OH255111   6.853   2.855   8.305
18409TIP3    H155112   6.916   2.928   8.328
18409TIP3    H255113   6.901   2.814   8.230
18410TIP3   OH255114   6.918   3.711   8.415
18410TIP3    H155115   6.891   3.796   8.374
18410TIP3    H255116   6.838   3.694   8.470
18411TIP3   OH255117   6.309   3.400   7.650
18411TIP3    H155118   6.270   3.426   7.564
18411TIP3    H255119   6.341   3.486   7.685
18412TIP3   OH255120   7.751   3.917   7.892
18412TIP3    H155121   7.660   3.908   7.929
18412TIP3    H255122   7.742   4.001   7.844
18413TIP3   OH255123   8.040   2.814   8.251
18413TIP3    H155124   7.953   2.844   8.222
18413TIP3    H255125   8.099   2.850   8.181
18414TIP3   OH255126   7.338   2.458   8.236
18414TIP3    H155127   7.323   2.363   8.252
18414TIP3    H255128   7.260   2.497   8.282
18415TIP3   OH255129   7.449   3.962   7.563
18415TIP3    H155130   7.499   3.879   7.542
18415TIP3    H255131   7.512   4.027   7.523
18416TIP3   OH255132   7.591   3.747   7.473
18416TIP3    H155133   7.564   3.666   7.426
18416TIP3    H255134   7.628   3.710   7.556
18417TIP3   OH255135   7.975   3.829   8.234
18417TIP3    H155136   7.965   3.751   8.174
18417TIP3    H255137   7.959   3.903   8.172
18418TIP3   OH255138   7.268   3.223   7.491
18418TIP3    H155139   7.188   3.275   7.470
18418TIP3    H255140   7.314   3.220   7.405
18419TIP3   OH255141   7.227   3.006   7.208
18419TIP3    H155142   7.294   3.058   7.255
18419TIP3    H255143   7.284   2.943   7.160
18420TIP3   OH255144   8.170   3.464   8.078
18420TIP3    H155145   8.087   3.517   8.083
18420TIP3    H255146   8.201   3.489   7.989
18421TIP3   OH255147   7.615   3.305   7.463
18421TIP3    H155148   7.560   3.329   7.541
18421TIP3    H255149   7.699   3.280   7.506
18422TIP3   OH255150   7.850   3.343   8.376
18422TIP3    H155151   7.847   3.427   8.426
18422TIP3    H255152   7.764   3.347   8.330
18423TIP3   OH255153   6.846   3.302   7.881
18423TIP3    H155154   6.804   3.245   7.813
18423TIP3    H255155   6.923   3.249   7.909
18424TIP3   OH255156   6.975   3.712   8.029
18424TIP3    H155157   6.955   3.676   7.941
18424TIP3    H255158   7.065   3.677   8.045
18425TIP3   OH255159   6.982   3.274   8.235
18425TIP3    H155160   7.014   3.250   8.146
18425TIP3    H255161   7.026   3.359   8.252
18426TIP3   OH255162   7.508   3.913   8.011
18426TIP3    H155163   7.495   3.991   8.067
18426TIP3    H255164   7.494   3.838   8.073
18427TIP3   OH255165   7.121   3.831   8.559
18427TIP3    H155166   7.059   3.893   8.603
18427TIP3    H255167   7.058   3.777   8.508
18428TIP3   OH255168   7.455   3.162   7.289
18428TIP3    H155169   7.514   3.222   7.339
18428TIP3    H255170   7.481   3.185   7.196
18429TIP3   OH255171   6.877   3.386   8.662
18429TIP3    H155172   6.880   3.473   8.704
18429TIP3    H255173   6.782   3.366   8.668
18430TIP3   OH255174   7.198   3.843   7.568
18430TIP3    H155175   7.280   3.895   7.577
18430TIP3    H255176   7.139   3.904   7.522
18431TIP3   OH255177   6.916   4.001   8.645
18431TIP3    H155178   6.882   4.000   8.554
18431TIP3    H255179   6.835   3.977   8.697
18432TIP3   OH255180   7.972   2.403   7.338
18432TIP3    H155181   7.890   2.424   7.387
18432TIP3    H255182   7.986   2.485   7.287
18433TIP3   OH255183   6.712   3.146   7.687
18433TIP3    H155184   6.647   3.190   7.629
18433TIP3    H255185   6.674   3.057   7.694
18434TIP3   OH255186   7.770   3.774   6.886
18434TIP3    H155187   7.777   3.870   6.866
18434TIP3    H255188   7.863   3.745   6.873
18435TIP3   OH255189   6.494   3.530   8.591
18435TIP3    H155190   6.429   3.508   8.522
18435TIP3    H255191   6.532   3.442   8.614
18436TIP3   OH255192   6.349   3.720   8.227
18436TIP3    H155193   6.444   3.716   8.214
18436TIP3    H255194   6.340   3.802   8.278
18437TIP3   OH255195   8.212   4.173   8.280
18437TIP3    H155196   8.212   4.077   8.292
18437TIP3    H255197   8.128   4.197   8.326
18438TIP3   OH255198   7.320   3.958   8.417
18438TIP3    H155199   7.317   4.051   8.448
18438TIP3    H255200   7.247   3.918   8.469
18439TIP3   OH255201   7.079   4.086   7.368
18439TIP3    H155202   7.036   4.068   7.283
18439TIP3    H255203   7.049   4.176   7.389
18440TIP3   OH255204   6.517   3.937   7.751
18440TIP3    H155205   6.565   3.927   7.836
18440TIP3    H255206   6.462   3.857   7.752
18441TIP3   OH255207   7.279   3.989   7.007
18441TIP3    H155208   7.338   3.920   6.968
18441TIP3    H255209   7.317   3.998   7.096
18442TIP3   OH255210   7.331   4.036   7.278
18442TIP3    H155211   7.243   4.045   7.320
18442TIP3    H255212   7.383   3.996   7.350
18443TIP3   OH255213   8.105   3.301   8.545
18443TIP3    H155214   8.019   3.314   8.500
18443TIP3    H255215   8.117   3.205   8.535
18444TIP3   OH255216   6.699   3.713   8.580
18444TIP3    H155217   6.749   3.694   8.662
18444TIP3    H255218   6.625   3.649   8.586
18445TIP3   OH255219   7.099   2.535   8.364
18445TIP3    H155220   7.010   2.504   8.337
18445TIP3    H255221   7.073   2.617   8.411
18446TIP3   OH255222   7.631   2.651   8.558
18446TIP3    H155223   7.698   2.623   8.623
18446TIP3    H255224   7.547   2.631   8.603
18447TIP3   OH255225   7.872   3.079   8.476
18447TIP3    H155226   7.822   3.077   8.561
18447TIP3    H255227   7.848   3.166   8.440
18448TIP3   OH255228   7.532   3.208   7.034
18448TIP3    H155229   7.497   3.184   6.946
18448TIP3    H255230   7.614   3.255   7.008
18449TIP3   OH255231   7.245   2.583   7.336
18449TIP3    H155232   7.210   2.580   7.427
18449TIP3    H255233   7.205   2.501   7.300
18450TIP3   OH255234   7.031   3.051   8.383
18450TIP3    H155235   6.980   3.072   8.464
18450TIP3    H255236   7.015   3.132   8.329
18451TIP3   OH255237   6.915   2.937   7.897
18451TIP3    H155238   6.822   2.911   7.914
18451TIP3    H255239   6.928   2.897   7.808
18452TIP3   OH255240   7.405   3.023   7.625
18452TIP3    H155241   7.353   3.094   7.582
18452TIP3    H255242   7.460   2.991   7.550
18453TIP3   OH255243   7.581   3.303   8.712
18453TIP3    H155244   7.559   3.229   8.773
18453TIP3    H255245   7.676   3.314   8.731
18454TIP3   OH255246   7.561   3.051   7.863
18454TIP3    H155247   7.501   3.081   7.792
18454TIP3    H255248   7.596   2.970   7.820
18455TIP3   OH255249   6.850   3.080   8.592
18455TIP3    H155250   6.879   3.143   8.660
18455TIP3    H255251   6.839   2.998   8.643
18456TIP3   OH255252   6.901   2.559   7.301
18456TIP3    H155253   6.890   2.556   7.398
18456TIP3    H255254   6.821   2.609   7.275
18457TIP3   OH255255   6.442   2.602   8.174
18457TIP3    H155256   6.519   2.633   8.226
18457TIP3    H255257   6.481   2.570   8.091
18458TIP3   OH255258   6.413   2.582   7.693
18458TIP3    H155259   6.458   2.620   7.614
18458TIP3    H255260   6.352   2.656   7.713
18459TIP3   OH255261   7.572   3.297   8.286
18459TIP3    H155262   7.605   3.225   8.227
18459TIP3    H255263   7.543   3.243   8.363
18460TIP3   OH255264   7.244   2.759   7.958
18460TIP3    H155265   7.161   2.757   8.011
18460TIP3    H255266   7.312   2.757   8.027
18461TIP3   OH255267   6.676   2.815   7.967
18461TIP3    H155268   6.581   2.822   7.938
18461TIP3    H255269   6.700   2.724   7.942
18462TIP3   OH255270   6.944   2.812   7.655
18462TIP3    H155271   7.038   2.826   7.632
18462TIP3    H255272   6.897   2.834   7.571
18463TIP3   OH255273   7.734   2.835   8.161
18463TIP3    H155274   7.699   2.848   8.252
18463TIP3    H255275   7.668   2.774   8.124
18464TIP3   OH255276   6.788   2.846   7.433
18464TIP3    H155277   6.718   2.800   7.383
18464TIP3    H255278   6.840   2.882   7.358
18465TIP3   OH255279   7.903   4.526   8.379
18465TIP3    H155280   7.900   4.546   8.284
18465TIP3    H255281   7.983   4.574   8.407
18466TIP3   OH255282   6.860   3.635   8.800
18466TIP3    H155283   6.940   3.665   8.848
18466TIP3    H255284   6.796   3.633   8.874
18467TIP3   OH255285   7.325   3.087   8.055
18467TIP3    H155286   7.398   3.049   8.003
18467TIP3    H255287   7.335   3.043   8.141
18468TIP3   OH255288   6.847   2.575   7.935
18468TIP3    H155289   6.813   2.496   7.981
18468TIP3    H255290   6.894   2.536   7.860
18469TIP3   OH255291   7.301   2.983   8.347
18469TIP3    H155292   7.212   3.020   8.359
18469TIP3    H255293   7.358   3.045   8.396
18470TIP3   OH255294   7.037   3.375   7.440
18470TIP3    H155295   6.965   3.309   7.429
18470TIP3    H255296   7.018   3.408   7.531
18471TIP3   OH255297   7.938   3.611   8.069
18471TIP3    H155298   7.963   3.661   7.988
18471TIP3    H255299   7.853   3.569   8.043
18472TIP3   OH255300   7.497   2.685   7.306
18472TIP3    H155301   7.400   2.668   7.312
18472TIP3    H255302   7.505   2.781   7.327
18473TIP3   OH255303   7.437   3.693   8.437
18473TIP3    H155304   7.460   3.671   8.528
18473TIP3    H255305   7.399   3.782   8.444
18474TIP3   OH255306   7.565   2.935   7.407
18474TIP3    H155307   7.662   2.942   7.421
18474TIP3    H255308   7.546   3.014   7.353
18475TIP3   OH255309   6.730   3.398   8.116
18475TIP3    H155310   6.767   3.370   8.029
18475TIP3    H255311   6.773   3.335   8.176
18476TIP3   OH255312   7.185   3.525   7.265
18476TIP3    H155313   7.137   3.610   7.269
18476TIP3    H255314   7.130   3.469   7.324
18477TIP3   OH255315   6.611   3.318   8.729
18477TIP3    H155316   6.630   3.302   8.824
18477TIP3    H255317   6.542   3.251   8.712
18478TIP3   OH255318   7.337   3.433   8.748
18478TIP3    H155319   7.277   3.374   8.700
18478TIP3    H255320   7.425   3.398   8.721
18479TIP3   OH255321   7.598   3.955   8.336
18479TIP3    H155322   7.502   3.950   8.345
18479TIP3    H255323   7.622   4.009   8.414
18480TIP3   OH255324   8.007   3.026   7.242
18480TIP3    H155325   7.945   2.981   7.180
18480TIP3    H255326   8.004   3.115   7.201
18481TIP3   OH255327   8.226   3.884   8.321
18481TIP3    H155328   8.128   3.877   8.313
18481TIP3    H255329   8.253   3.853   8.232
18482TIP3   OH255330   7.710   3.843   7.151
18482TIP3    H155331   7.682   3.770   7.207
18482TIP3    H255332   7.722   3.801   7.064
18483TIP3   OH255333   7.703   3.473   7.989
18483TIP3    H155334   7.610   3.448   8.000
18483TIP3    H255335   7.738   3.394   7.943
18484TIP3   OH255336   6.833   3.703   7.745
18484TIP3    H155337   6.834   3.782   7.689
18484TIP3    H255338   6.738   3.684   7.748
18485TIP3   OH255339   6.396   3.005   7.444
18485TIP3    H155340   6.441   3.089   7.465
18485TIP3    H255341   6.319   3.010   7.505
18486TIP3   OH255342   6.968   3.466   7.686
18486TIP3    H155343   6.935   3.556   7.704
18486TIP3    H255344   6.931   3.416   7.761
18487TIP3   OH255345   7.101   4.045   8.210
18487TIP3    H155346   7.140   4.117   8.157
18487TIP3    H255347   7.179   4.009   8.254
18488TIP3   OH255348   6.751   3.940   7.594
18488TIP3    H155349   6.665   3.949   7.639
18488TIP3    H255350   6.783   4.033   7.596
18489TIP3   OH255351   7.489   3.680   8.168
18489TIP3    H155352   7.480   3.676   8.266
18489TIP3    H255353   7.567   3.624   8.153
18490TIP3   OH255354   7.465   3.571   7.052
18490TIP3    H155355   7.516   3.546   7.132
18490TIP3    H255356   7.375   3.545   7.078
18491TIP3   OH255357   7.736   4.215   8.221
18491TIP3    H155358   7.657   4.158   8.211
18491TIP3    H255359   7.723   4.278   8.147
18492TIP3   OH255360   7.803   4.053   6.864
18492TIP3    H155361   7.848   4.129   6.823
18492TIP3    H255362   7.724   4.099   6.899
18493TIP3   OH255363   6.822   2.824   8.737
18493TIP3    H155364   6.725   2.826   8.749
18493TIP3    H255365   6.849   2.764   8.808
18494TIP3   OH255366   7.624   3.509   7.272
18494TIP3    H155367   7.614   3.440   7.341
18494TIP3    H255368   7.721   3.504   7.256
18495TIP3   OH255369   6.538   3.907   8.369
18495TIP3    H155370   6.592   3.833   8.400
18495TIP3    H255371   6.569   3.978   8.427
18496TIP3   OH255372   6.825   3.555   7.052
18496TIP3    H155373   6.842   3.465   7.018
18496TIP3    H255374   6.808   3.538   7.147
18497TIP3   OH255375   6.773   3.556   7.327
18497TIP3    H155376   6.850   3.531   7.380
18497TIP3    H255377   6.777   3.655   7.332
18498TIP3   OH255378   6.510   3.250   7.527
18498TIP3    H155379   6.443   3.295   7.583
18498TIP3    H255380   6.525   3.318   7.459
18499TIP3   OH255381   7.658   2.889   8.420
18499TIP3    H155382   7.740   2.926   8.457
18499TIP3    H255383   7.645   2.808   8.474
18500TIP3   OH255384   7.540   2.637   7.585
18500TIP3    H155385   7.525   2.659   7.491
18500TIP3    H255386   7.579   2.721   7.620
18501TIP3   OH255387   7.041   3.753   7.273
18501TIP3    H155388   6.954   3.782   7.307
18501TIP3    H255389   7.058   3.822   7.208
18502TIP3   OH255390   7.228   2.818   7.686
18502TIP3    H155391   7.293   2.890   7.668
18502TIP3    H255392   7.234   2.811   7.784
18503TIP3   OH255393   7.498   3.136   8.494
18503TIP3    H155394   7.521   3.188   8.574
18503TIP3    H255395   7.552   3.056   8.504
18504TIP3   OH255396   7.372   2.544   7.788
18504TIP3    H155397   7.363   2.622   7.845
18504TIP3    H255398   7.434   2.579   7.719
18505TIP3   OH255399   6.785   3.830   7.340
18505TIP3    H155400   6.754   3.899   7.277
18505TIP3    H255401   6.769   3.874   7.426
18506TIP3   OH255402   6.884   2.544   7.579
18506TIP3    H155403   6.882   2.635   7.614
18506TIP3    H255404   6.980   2.525   7.585
18507TIP3   OH255405   8.139   3.033   8.482
18507TIP3    H155406   8.041   3.030   8.483
18507TIP3    H255407   8.157   3.002   8.392
18508TIP3   OH255408   7.789   3.232   7.863
18508TIP3    H155409   7.713   3.171   7.874
18508TIP3    H255410   7.860   3.184   7.911
18509TIP3   OH255411   6.502   3.458   7.333
18509TIP3    H155412   6.570   3.528   7.341
18509TIP3    H255413   6.546   3.402   7.265
18510TIP3   OH255414   6.445   2.735   7.470
18510TIP3    H155415   6.445   2.833   7.463
18510TIP3    H255416   6.371   2.711   7.414
18511TIP3   OH255417   7.757   4.188   7.813
18511TIP3    H155418   7.714   4.236   7.738
18511TIP3    H255419   7.851   4.206   7.791
18512TIP3   OH255420   6.833   2.456   8.339
18512TIP3    H155421   6.803   2.422   8.252
18512TIP3    H255422   6.823   2.377   8.396
18513TIP3   OH255423   6.373   3.674   7.719
18513TIP3    H155424   6.302   3.705   7.777
18513TIP3    H255425   6.346   3.715   7.634
18514TIP3   OH255426   6.530   4.216   8.792
18514TIP3    H155427   6.616   4.215   8.838
18514TIP3    H255428   6.509   4.121   8.789
18515TIP3   OH255429   7.013   4.176   8.839
18515TIP3    H155430   7.108   4.156   8.837
18515TIP3    H255431   6.981   4.121   8.765
18516TIP3   OH255432   6.992   3.755   6.962
18516TIP3    H155433   6.938   3.682   7.000
18516TIP3    H255434   7.067   3.706   6.924
18517TIP3   OH255435   7.641   4.093   8.577
18517TIP3    H155436   7.639   4.017   8.639
18517TIP3    H255437   7.727   4.135   8.597
18518TIP3   OH255438   7.428   3.797   6.875
18518TIP3    H155439   7.476   3.734   6.932
18518TIP3    H255440   7.482   3.799   6.794
18519TIP3   OH255441   6.660   3.622   8.992
18519TIP3    H155442   6.677   3.526   8.996
18519TIP3    H255443   6.573   3.624   8.946
18520TIP3   OH255444   6.636   3.272   7.185
18520TIP3    H155445   6.693   3.240   7.257
18520TIP3    H255446   6.702   3.277   7.113
18521TIP3   OH255447   7.267   3.708   8.765
18521TIP3    H155448   7.225   3.724   8.678
18521TIP3    H255449   7.298   3.615   8.756
18522TIP3   OH255450   7.150   3.472   6.995
18522TIP3    H155451   7.153   3.483   7.092
18522TIP3    H255452   7.148   3.374   6.988
18523TIP3   OH255453   7.761   3.718   8.373
18523TIP3    H155454   7.836   3.760   8.327
18523TIP3    H255455   7.690   3.783   8.356
18524TIP3   OH255456   6.779   3.358   8.974
18524TIP3    H155457   6.853   3.302   8.949
18524TIP3    H255458   6.806   3.389   9.063
18525TIP3   OH255459   6.845   3.176   7.407
18525TIP3    H155460   6.819   3.132   7.489
18525TIP3    H255461   6.882   3.102   7.354
18526TIP3   OH255462   7.115   3.241   8.636
18526TIP3    H155463   7.037   3.301   8.637
18526TIP3    H255464   7.165   3.275   8.558
18527TIP3   OH255465   6.947   2.971   7.248
18527TIP3    H155466   6.920   2.975   7.153
18527TIP3    H255467   7.044   2.975   7.239
18528TIP3   OH255468   7.635   3.643   8.770
18528TIP3    H155469   7.710   3.613   8.717
18528TIP3    H255470   7.630   3.574   8.839
18529TIP3   OH255471   7.768   3.300   6.912
18529TIP3    H155472   7.747   3.255   6.828
18529TIP3    H255473   7.736   3.391   6.889
18530TIP3   OH255474   7.237   3.030   8.761
18530TIP3    H155475   7.238   2.950   8.705
18530TIP3    H255476   7.194   3.096   8.703
18531TIP3   OH255477   7.240   2.816   8.569
18531TIP3    H155478   7.268   2.857   8.485
18531TIP3    H255479   7.147   2.793   8.550
18532TIP3   OH255480   7.267   3.352   8.443
18532TIP3    H155481   7.350   3.359   8.395
18532TIP3    H255482   7.211   3.418   8.397
18533TIP3   OH255483   7.851   3.321   8.818
18533TIP3    H155484   7.897   3.242   8.852
18533TIP3    H255485   7.926   3.376   8.790
18534TIP3   OH255486   7.889   3.573   8.561
18534TIP3    H155487   7.833   3.626   8.501
18534TIP3    H255488   7.978   3.591   8.522
18535TIP3   OH255489   7.116   3.140   8.993
18535TIP3    H155490   7.048   3.071   9.007
18535TIP3    H255491   7.151   3.115   8.905
18536TIP3   OH255492   7.371   2.580   8.634
18536TIP3    H155493   7.322   2.662   8.612
18536TIP3    H255494   7.302   2.511   8.623
18537TIP3   OH255495   7.498   3.084   8.851
18537TIP3    H155496   7.488   3.069   8.947
18537TIP3    H255497   7.409   3.059   8.821
18538TIP3   OH255498   7.737   3.032   8.706
18538TIP3    H155499   7.662   3.035   8.769
18538TIP3    H255500   7.811   3.005   8.763
18539TIP3   OH255501   7.973   2.972   8.850
18539TIP3    H155502   7.978   2.879   8.881
18539TIP3    H255503   7.966   3.022   8.935
18540TIP3   OH255504   6.955   2.920   9.045
18540TIP3    H155505   6.960   2.829   9.011
18540TIP3    H255506   6.993   2.907   9.135
18541TIP3   OH255507   7.465   2.592   8.891
18541TIP3    H155508   7.527   2.518   8.881
18541TIP3    H255509   7.421   2.589   8.803
18542TIP3   OH255510   7.536   2.805   9.050
18542TIP3    H155511   7.511   2.733   8.988
18542TIP3    H255512   7.456   2.862   9.047
18543TIP3   OH255513   6.755   4.034   7.154
18543TIP3    H155514   6.851   4.026   7.136
18543TIP3    H255515   6.727   4.083   7.075
18544TIP3   OH255516   6.233   3.413   7.370
18544TIP3    H155517   6.328   3.436   7.354
18544TIP3    H255518   6.228   3.325   7.328
18545TIP3   OH255519   6.148   4.026   7.783
18545TIP3    H155520   6.081   3.964   7.745
18545TIP3    H255521   6.192   3.968   7.848
18546TIP3   OH255522   6.283   3.877   7.969
18546TIP3    H155523   6.272   3.804   8.032
18546TIP3    H255524   6.335   3.939   8.023
18547TIP3   OH255525   8.011   4.277   7.770
18547TIP3    H155526   8.041   4.314   7.855
18547TIP3    H255527   8.072   4.318   7.707
18548TIP3   OH255528   8.040   4.299   8.055
18548TIP3    H155529   7.995   4.212   8.046
18548TIP3    H255530   8.117   4.273   8.107
18549TIP3   OH255531   8.084   3.978   8.622
18549TIP3    H155532   8.014   3.985   8.690
18549TIP3    H255533   8.129   4.065   8.629
18550TIP3   OH255534   7.902   3.487   7.244
18550TIP3    H155535   7.969   3.552   7.213
18550TIP3    H255536   7.948   3.449   7.322
18551TIP3   OH255537   8.031   3.355   7.447
18551TIP3    H155538   7.965   3.313   7.506
18551TIP3    H255539   8.096   3.393   7.510
18552TIP3   OH255540   8.085   3.747   7.880
18552TIP3    H155541   8.138   3.681   7.831
18552TIP3    H255542   8.081   3.821   7.817
18553TIP3   OH255543   7.916   4.048   8.074
18553TIP3    H155544   7.843   4.089   8.124
18553TIP3    H255545   7.869   4.000   8.003
18554TIP3   OH255546   7.968   3.263   7.094
18554TIP3    H155547   7.897   3.265   7.026
18554TIP3    H255548   7.941   3.339   7.149
18555TIP3   OH255549   7.840   2.936   7.049
18555TIP3    H155550   7.797   2.975   6.972
18555TIP3    H255551   7.814   2.841   7.038
18556TIP3   OH255552   7.844   3.213   7.594
18556TIP3    H155553   7.852   3.116   7.587
18556TIP3    H255554   7.830   3.226   7.690
18557TIP3   OH255555   6.470   3.284   8.342
18557TIP3    H155556   6.468   3.253   8.249
18557TIP3    H255557   6.567   3.287   8.358
18558TIP3   OH255558   8.132   3.637   8.450
18558TIP3    H155559   8.205   3.571   8.443
18558TIP3    H255560   8.160   3.704   8.387
18559TIP3   OH255561   8.319   3.445   8.470
18559TIP3    H155562   8.244   3.391   8.503
18559TIP3    H255563   8.393   3.382   8.484
18560TIP3   OH255564   7.783   2.669   7.034
18560TIP3    H155565   7.856   2.638   7.090
18560TIP3    H255566   7.709   2.611   7.057
18561TIP3   OH255567   7.841   2.929   7.488
18561TIP3    H155568   7.882   2.840   7.503
18561TIP3    H255569   7.899   2.962   7.417
18562TIP3   OH255570   8.002   3.102   7.983
18562TIP3    H155571   8.088   3.127   7.942
18562TIP3    H255572   8.016   3.138   8.073
18563TIP3   OH255573   8.072   3.245   8.216
18563TIP3    H155574   7.994   3.280   8.263
18563TIP3    H255575   8.105   3.326   8.170
18564TIP3   OH255576   6.689   2.974   9.018
18564TIP3    H155577   6.787   2.966   9.018
18564TIP3    H255578   6.664   2.887   9.055
18565TIP3   OH255579   7.950   2.678   7.526
18565TIP3    H155580   7.998   2.662   7.610
18565TIP3    H255581   7.889   2.602   7.524
18566TIP3   OH255582   6.649   2.665   8.349
18566TIP3    H155583   6.711   2.589   8.356
18566TIP3    H255584   6.712   2.738   8.340
18567TIP3   OH255585   6.452   2.938   8.419
18567TIP3    H155586   6.501   2.930   8.334
18567TIP3    H255587   6.482   3.024   8.450
18568TIP3   OH255588   8.377   2.978   8.603
18568TIP3    H155589   8.289   3.010   8.573
18568TIP3    H255590   8.389   2.903   8.542
18569TIP3   OH255591   8.031   2.611   7.161
18569TIP3    H155592   8.070   2.541   7.105
18569TIP3    H255593   8.096   2.683   7.154
18570TIP3   OH255594   6.436   2.444   7.923
18570TIP3    H155595   6.342   2.438   7.946
18570TIP3    H255596   6.434   2.500   7.842
18571TIP3   OH255597   7.598   4.144   7.429
18571TIP3    H155598   7.643   4.128   7.344
18571TIP3    H255599   7.652   4.215   7.466
18572TIP3   OH255600   6.657   2.523   8.735
18572TIP3    H155601   6.605   2.516   8.817
18572TIP3    H255602   6.590   2.559   8.674
18573TIP3   OH255603   6.696   3.950   8.812
18573TIP3    H155604   6.605   3.922   8.792
18573TIP3    H255605   6.703   3.929   8.906
18574TIP3   OH255606   6.875   3.983   8.361
18574TIP3    H155607   6.826   4.058   8.320
18574TIP3    H255608   6.960   3.996   8.314
18575TIP3   OH255609   7.321   4.224   8.503
18575TIP3    H155610   7.366   4.230   8.589
18575TIP3    H255611   7.383   4.274   8.445
18576TIP3   OH255612   7.496   4.376   8.358
18576TIP3    H155613   7.563   4.328   8.308
18576TIP3    H255614   7.551   4.434   8.415
18577TIP3   OH255615   8.284   2.738   8.457
18577TIP3    H155616   8.196   2.725   8.418
18577TIP3    H255617   8.323   2.647   8.448
18578TIP3   OH255618   6.550   4.237   8.383
18578TIP3    H155619   6.461   4.270   8.358
18578TIP3    H255620   6.559   4.278   8.470
18579TIP3   OH255621   6.787   4.217   8.241
18579TIP3    H155622   6.700   4.230   8.285
18579TIP3    H255623   6.768   4.249   8.151
18580TIP3   OH255624   7.211   4.244   8.040
18580TIP3    H155625   7.144   4.262   7.971
18580TIP3    H255626   7.224   4.333   8.079
18581TIP3   OH255627   7.481   4.186   8.094
18581TIP3    H155628   7.387   4.201   8.071
18581TIP3    H255629   7.525   4.257   8.043
18582TIP3   OH255630   7.689   4.377   8.004
18582TIP3    H155631   7.674   4.461   7.956
18582TIP3    H255632   7.715   4.317   7.931
18583TIP3   OH255633   6.461   4.031   8.127
18583TIP3    H155634   6.488   4.005   8.218
18583TIP3    H255635   6.533   3.988   8.076
18584TIP3   OH255636   6.655   3.903   7.986
18584TIP3    H155637   6.672   3.819   8.034
18584TIP3    H255638   6.746   3.940   7.979
18585TIP3   OH255639   6.921   3.998   7.988
18585TIP3    H155640   6.953   3.907   7.973
18585TIP3    H255641   6.967   4.018   8.072
18586TIP3   OH255642   7.499   2.655   8.077
18586TIP3    H155643   7.455   2.584   8.127
18586TIP3    H255644   7.570   2.607   8.030
18587TIP3   OH255645   8.021   2.537   7.980
18587TIP3    H155646   8.056   2.588   7.903
18587TIP3    H255647   7.925   2.554   7.972
18588TIP3   OH255648   8.115   2.633   7.743
18588TIP3    H155649   8.189   2.582   7.702
18588TIP3    H255650   8.148   2.725   7.728
18589TIP3   OH255651   6.746   2.363   8.091
18589TIP3    H155652   6.653   2.330   8.092
18589TIP3    H255653   6.794   2.277   8.087
18590TIP3   OH255654   6.535   2.233   7.740
18590TIP3    H155655   6.564   2.288   7.665
18590TIP3    H255656   6.507   2.300   7.805
18591TIP3   OH255657   7.190   2.395   7.971
18591TIP3    H155658   7.248   2.443   7.910
18591TIP3    H255659   7.214   2.434   8.056
18592TIP3   OH255660   7.737   2.542   7.955
18592TIP3    H155661   7.734   2.505   7.866
18592TIP3    H255662   7.724   2.462   8.011
18593TIP3   OH255663   7.767   2.465   7.518
18593TIP3    H155664   7.680   2.508   7.529
18593TIP3    H255665   7.751   2.380   7.563
18594TIP3   OH255666   6.249   3.805   7.520
18594TIP3    H155667   6.164   3.772   7.484
18594TIP3    H255668   6.239   3.900   7.497
18595TIP3   OH255669   6.650   2.390   7.504
18595TIP3    H155670   6.697   2.328   7.445
18595TIP3    H255671   6.724   2.444   7.538
18596TIP3   OH255672   7.161   2.568   7.601
18596TIP3    H155673   7.221   2.520   7.660
18596TIP3    H255674   7.183   2.660   7.626
18597TIP3   OH255675   7.021   3.991   7.100
18597TIP3    H155676   7.110   4.014   7.065
18597TIP3    H255677   7.001   3.916   7.040
18598TIP3   OH255678   7.740   4.111   7.195
18598TIP3    H155679   7.732   4.013   7.180
18598TIP3    H255680   7.696   4.145   7.114
18599TIP3   OH255681   6.953   2.644   8.983
18599TIP3    H155682   6.920   2.573   9.040
18599TIP3    H255683   7.048   2.644   9.010
18600TIP3   OH255684   7.202   2.640   9.103
18600TIP3    H155685   7.287   2.613   9.064
18600TIP3    H255686   7.190   2.571   9.171
18601TIP3   OH255687   6.316   3.824   7.156
18601TIP3    H155688   6.328   3.851   7.247
18601TIP3    H255689   6.407   3.798   7.130
18602TIP3   OH255690   8.034   2.701   8.891
18602TIP3    H155691   8.076   2.657   8.967
18602TIP3    H255692   8.113   2.721   8.835
18603TIP3   OH255693   7.964   4.255   8.384
18603TIP3    H155694   7.888   4.223   8.331
18603TIP3    H255695   7.946   4.351   8.383
18604TIP3   OH255696   9.234   3.629   7.146
18604TIP3    H155697   9.202   3.719   7.122
18604TIP3    H255698   9.159   3.576   7.113
18605TIP3   OH255699   9.231   3.632   7.526
18605TIP3    H155700   9.258   3.603   7.616
18605TIP3    H255701   9.192   3.550   7.491
18606TIP3   OH255702   8.530   3.522   7.895
18606TIP3    H155703   8.562   3.455   7.958
18606TIP3    H255704   8.611   3.574   7.882
18607TIP3   OH255705   9.483   3.926   7.209
18607TIP3    H155706   9.455   3.859   7.273
18607TIP3    H255707   9.503   4.003   7.265
18608TIP3   OH255708   8.505   3.932   7.620
18608TIP3    H155709   8.495   3.835   7.621
18608TIP3    H255710   8.601   3.940   7.609
18609TIP3   OH255711   8.208   3.133   7.403
18609TIP3    H155712   8.161   3.217   7.417
18609TIP3    H255713   8.138   3.081   7.360
18610TIP3   OH255714   8.269   3.423   7.576
18610TIP3    H155715   8.318   3.345   7.611
18610TIP3    H255716   8.327   3.453   7.506
18611TIP3   OH255717   9.128   4.393   7.229
18611TIP3    H155718   9.171   4.323   7.174
18611TIP3    H255719   9.117   4.347   7.313
18612TIP3   OH255720   9.030   3.853   7.577
18612TIP3    H155721   9.067   3.776   7.530
18612TIP3    H255722   9.114   3.898   7.599
18613TIP3   OH255723   9.448   3.365   7.606
18613TIP3    H155724   9.481   3.275   7.623
18613TIP3    H255725   9.409   3.353   7.518
18614TIP3   OH255726   8.777   3.014   7.576
18614TIP3    H155727   8.761   3.087   7.512
18614TIP3    H255728   8.731   2.941   7.529
18615TIP3   OH255729   9.470   3.133   7.217
18615TIP3    H155730   9.551   3.098   7.260
18615TIP3    H255731   9.477   3.097   7.128
18616TIP3   OH255732   8.414   3.215   7.681
18616TIP3    H155733   8.497   3.196   7.728
18616TIP3    H255734   8.428   3.160   7.601
18617TIP3   OH255735   8.855   3.413   7.477
18617TIP3    H155736   8.949   3.389   7.488
18617TIP3    H255737   8.817   3.330   7.443
18618TIP3   OH255738   8.782   3.000   8.004
18618TIP3    H155739   8.721   3.037   7.937
18618TIP3    H255740   8.727   3.013   8.084
18619TIP3   OH255741   9.122   3.847   7.018
18619TIP3    H155742   9.084   3.830   6.930
18619TIP3    H255743   9.077   3.931   7.041
18620TIP3   OH255744   8.885   3.773   7.802
18620TIP3    H155745   8.823   3.839   7.839
18620TIP3    H255746   8.925   3.822   7.727
18621TIP3   OH255747   9.700   3.090   7.353
18621TIP3    H155748   9.675   3.055   7.439
18621TIP3    H255749   9.748   3.171   7.376
18622TIP3   OH255750   8.647   3.113   7.793
18622TIP3    H155751   8.710   3.186   7.815
18622TIP3    H255752   8.695   3.073   7.717
18623TIP3   OH255753   8.714   3.968   7.903
18623TIP3    H155754   8.686   4.052   7.862
18623TIP3    H255755   8.634   3.950   7.958
18624TIP3   OH255756   8.105   3.657   7.136
18624TIP3    H155757   8.065   3.682   7.051
18624TIP3    H255758   8.136   3.743   7.171
18625TIP3   OH255759   9.548   4.172   7.376
18625TIP3    H155760   9.458   4.164   7.416
18625TIP3    H255761   9.537   4.257   7.328
18626TIP3   OH255762   9.122   2.718   7.700
18626TIP3    H155763   9.116   2.628   7.737
18626TIP3    H255764   9.052   2.763   7.752
18627TIP3   OH255765   9.249   4.219   7.055
18627TIP3    H155766   9.297   4.136   7.031
18627TIP3    H255767   9.307   4.284   7.010
18628TIP3   OH255768   9.388   4.004   6.959
18628TIP3    H155769   9.359   3.924   6.913
18628TIP3    H255770   9.427   3.966   7.041
18629TIP3   OH255771   9.757   4.084   7.721
18629TIP3    H155772   9.749   4.007   7.660
18629TIP3    H255773   9.744   4.159   7.660
18630TIP3   OH255774   9.064   3.481   6.977
18630TIP3    H155775   8.984   3.533   6.955
18630TIP3    H255776   9.110   3.477   6.891
18631TIP3   OH255777   9.021   3.263   6.694
18631TIP3    H155778   9.090   3.313   6.743
18631TIP3    H255779   9.078   3.199   6.646
18632TIP3   OH255780   9.945   3.702   7.541
18632TIP3    H155781   9.873   3.766   7.560
18632TIP3    H255782   9.991   3.747   7.468
18633TIP3   OH255783   9.412   3.561   6.949
18633TIP3    H155784   9.356   3.586   7.027
18633TIP3    H255785   9.494   3.533   6.995
18634TIP3   OH255786   9.611   3.598   7.827
18634TIP3    H155787   9.610   3.682   7.874
18634TIP3    H255788   9.516   3.586   7.809
18635TIP3   OH255789   8.643   3.559   7.368
18635TIP3    H155790   8.601   3.501   7.300
18635TIP3    H255791   8.720   3.505   7.396
18636TIP3   OH255792   8.771   3.969   7.515
18636TIP3    H155793   8.750   3.933   7.428
18636TIP3    H255794   8.861   3.933   7.531
18637TIP3   OH255795   8.777   3.531   7.721
18637TIP3    H155796   8.811   3.506   7.632
18637TIP3    H255797   8.823   3.615   7.739
18638TIP3   OH255798   9.308   4.169   7.499
18638TIP3    H155799   9.291   4.248   7.554
18638TIP3    H255800   9.291   4.095   7.560
18639TIP3   OH255801   8.917   4.089   8.046
18639TIP3    H155802   8.855   4.150   8.090
18639TIP3    H255803   8.854   4.034   7.995
18640TIP3   OH255804   9.251   3.418   6.776
18640TIP3    H155805   9.310   3.478   6.827
18640TIP3    H255806   9.277   3.441   6.683
18641TIP3   OH255807   8.673   3.643   8.145
18641TIP3    H155808   8.677   3.728   8.192
18641TIP3    H255809   8.579   3.622   8.155
18642TIP3   OH255810   8.996   4.099   7.055
18642TIP3    H155811   9.077   4.153   7.064
18642TIP3    H255812   8.936   4.158   7.007
18643TIP3   OH255813   8.711   4.257   8.132
18643TIP3    H155814   8.678   4.256   8.040
18643TIP3    H255815   8.631   4.235   8.184
18644TIP3   OH255816   9.752   2.680   6.858
18644TIP3    H155817   9.656   2.675   6.852
18644TIP3    H255818   9.774   2.743   6.787
18645TIP3   OH255819   8.508   3.403   7.174
18645TIP3    H155820   8.444   3.448   7.115
18645TIP3    H255821   8.470   3.315   7.181
18646TIP3   OH255822   9.565   4.029   6.371
18646TIP3    H155823   9.571   4.126   6.356
18646TIP3    H255824   9.658   4.003   6.359
18647TIP3   OH255825   8.291   3.787   8.078
18647TIP3    H155826   8.226   3.764   8.008
18647TIP3    H255827   8.329   3.699   8.101
18648TIP3   OH255828   8.145   3.976   7.714
18648TIP3    H155829   8.240   3.972   7.700
18648TIP3    H255830   8.137   4.058   7.765
18649TIP3   OH255831   9.993   4.463   7.741
18649TIP3    H155832  10.050   4.390   7.775
18649TIP3    H255833   9.914   4.453   7.799
18650TIP3   OH255834   9.116   4.215   7.903
18650TIP3    H155835   9.113   4.308   7.934
18650TIP3    H255836   9.043   4.175   7.955
18651TIP3   OH255837   8.867   4.344   6.854
18651TIP3    H155838   8.805   4.333   6.781
18651TIP3    H255839   8.847   4.434   6.884
18652TIP3   OH255840   8.314   4.194   7.237
18652TIP3    H155841   8.360   4.183   7.323
18652TIP3    H255842   8.258   4.114   7.237
18653TIP3   OH255843   9.130   4.318   6.782
18653TIP3    H155844   9.037   4.313   6.810
18653TIP3    H255845   9.169   4.242   6.827
18654TIP3   OH255846   8.494   3.971   8.067
18654TIP3    H155847   8.546   3.950   8.148
18654TIP3    H255848   8.421   3.906   8.073
18655TIP3   OH255849   8.893   2.801   7.837
18655TIP3    H155850   8.803   2.772   7.812
18655TIP3    H255851   8.871   2.883   7.884
18656TIP3   OH255852   9.328   3.463   6.519
18656TIP3    H155853   9.294   3.438   6.431
18656TIP3    H255854   9.405   3.517   6.496
18657TIP3   OH255855   9.046   2.836   6.824
18657TIP3    H155856   9.009   2.839   6.914
18657TIP3    H255857   9.003   2.755   6.791
18658TIP3   OH255858   8.825   3.309   7.870
18658TIP3    H155859   8.775   3.331   7.952
18658TIP3    H255860   8.810   3.389   7.816
18659TIP3   OH255861   8.711   3.194   7.384
18659TIP3    H155862   8.618   3.168   7.401
18659TIP3    H255863   8.725   3.154   7.296
18660TIP3   OH255864   9.199   3.282   7.114
18660TIP3    H155865   9.148   3.351   7.066
18660TIP3    H255866   9.256   3.246   7.043
18661TIP3   OH255867   9.347   3.326   7.355
18661TIP3    H155868   9.286   3.345   7.280
18661TIP3    H255869   9.390   3.246   7.315
18662TIP3   OH255870   8.646   3.339   8.080
18662TIP3    H155871   8.678   3.401   8.147
18662TIP3    H255872   8.638   3.256   8.130
18663TIP3   OH255873   8.695   2.813   6.788
18663TIP3    H155874   8.686   2.813   6.886
18663TIP3    H255875   8.618   2.867   6.763
18664TIP3   OH255876   8.239   2.857   7.661
18664TIP3    H155877   8.315   2.891   7.713
18664TIP3    H255878   8.279   2.830   7.578
18665TIP3   OH255879   8.210   2.839   7.179
18665TIP3    H155880   8.254   2.877   7.100
18665TIP3    H255881   8.148   2.913   7.200
18666TIP3   OH255882   9.339   3.549   7.770
18666TIP3    H155883   9.383   3.481   7.713
18666TIP3    H255884   9.320   3.495   7.850
18667TIP3   OH255885   9.030   3.018   7.447
18667TIP3    H155886   8.953   3.014   7.506
18667TIP3    H255887   9.105   3.013   7.508
18668TIP3   OH255888   8.471   3.072   7.454
18668TIP3    H155889   8.377   3.079   7.425
18668TIP3    H255890   8.496   2.981   7.428
18669TIP3   OH255891   8.741   3.067   7.143
18669TIP3    H155892   8.836   3.080   7.124
18669TIP3    H255893   8.697   3.091   7.058
18670TIP3   OH255894   9.501   3.098   7.622
18670TIP3    H155895   9.473   3.107   7.716
18670TIP3    H255896   9.435   3.032   7.592
18671TIP3   OH255897   8.585   3.101   6.919
18671TIP3    H155898   8.514   3.057   6.869
18671TIP3    H255899   8.637   3.139   6.846
18672TIP3   OH255900   9.698   4.780   7.862
18672TIP3    H155901   9.696   4.802   7.767
18672TIP3    H255902   9.772   4.834   7.894
18673TIP3   OH255903   8.653   3.893   8.284
18673TIP3    H155904   8.733   3.926   8.331
18673TIP3    H255905   8.591   3.885   8.359
18674TIP3   OH255906   9.121   3.347   7.543
18674TIP3    H155907   9.192   3.310   7.488
18674TIP3    H255908   9.131   3.298   7.627
18675TIP3   OH255909   8.642   2.834   7.420
18675TIP3    H155910   8.610   2.753   7.466
18675TIP3    H255911   8.691   2.797   7.345
18676TIP3   OH255912   9.095   3.239   7.835
18676TIP3    H155913   9.007   3.279   7.847
18676TIP3    H255914   9.155   3.299   7.883
18677TIP3   OH255915   8.832   3.633   6.927
18677TIP3    H155916   8.760   3.567   6.915
18677TIP3    H255917   8.814   3.665   7.018
18678TIP3   OH255918   9.728   3.870   7.554
18678TIP3    H155919   9.750   3.917   7.471
18678TIP3    H255920   9.644   3.824   7.531
18679TIP3   OH255921   9.284   2.962   6.757
18679TIP3    H155922   9.200   2.927   6.796
18679TIP3    H255923   9.309   3.030   6.822
18680TIP3   OH255924   9.244   3.953   7.923
18680TIP3    H155925   9.259   3.920   8.013
18680TIP3    H255926   9.195   4.035   7.937
18681TIP3   OH255927   9.366   3.191   6.900
18681TIP3    H155928   9.462   3.201   6.912
18681TIP3    H255929   9.343   3.267   6.843
18682TIP3   OH255930   8.527   3.655   7.603
18682TIP3    H155931   8.564   3.627   7.516
18682TIP3    H255932   8.570   3.592   7.663
18683TIP3   OH255933   8.982   3.782   6.752
18683TIP3    H155934   8.935   3.868   6.754
18683TIP3    H255935   8.925   3.727   6.810
18684TIP3   OH255936   8.407   3.576   8.216
18684TIP3    H155937   8.430   3.565   8.310
18684TIP3    H255938   8.340   3.507   8.203
18685TIP3   OH255939   9.138   3.698   8.223
18685TIP3    H155940   9.076   3.632   8.187
18685TIP3    H255941   9.220   3.648   8.226
18686TIP3   OH255942   9.395   4.215   7.820
18686TIP3    H155943   9.299   4.204   7.830
18686TIP3    H255944   9.417   4.266   7.899
18687TIP3   OH255945   9.800   3.273   6.738
18687TIP3    H155946   9.742   3.228   6.674
18687TIP3    H255947   9.816   3.353   6.686
18688TIP3   OH255948  10.010   4.140   7.797
18688TIP3    H155949   9.913   4.128   7.786
18688TIP3    H255950  10.041   4.100   7.714
18689TIP3   OH255951   9.516   4.098   6.640
18689TIP3    H155952   9.476   4.030   6.696
18689TIP3    H255953   9.520   4.055   6.553
18690TIP3   OH255954   9.498   3.728   7.477
18690TIP3    H155955   9.404   3.703   7.487
18690TIP3    H255956   9.533   3.648   7.432
18691TIP3   OH255957   8.628   3.960   7.233
18691TIP3    H155958   8.629   4.039   7.175
18691TIP3    H255959   8.534   3.939   7.234
18692TIP3   OH255960   8.193   3.261   6.932
18692TIP3    H155961   8.238   3.346   6.952
18692TIP3    H255962   8.115   3.267   6.992
18693TIP3   OH255963   8.764   3.723   7.173
18693TIP3    H155964   8.731   3.813   7.192
18693TIP3    H255965   8.727   3.673   7.248
18694TIP3   OH255966   8.897   4.301   7.697
18694TIP3    H155967   8.937   4.374   7.644
18694TIP3    H255968   8.975   4.265   7.742
18695TIP3   OH255969   8.547   4.196   7.080
18695TIP3    H155970   8.461   4.205   7.125
18695TIP3    H255971   8.580   4.289   7.082
18696TIP3   OH255972   9.285   3.937   7.654
18696TIP3    H155973   9.276   3.934   7.752
18696TIP3    H255974   9.359   3.875   7.639
18697TIP3   OH255975   9.265   3.822   6.538
18697TIP3    H155976   9.310   3.799   6.622
18697TIP3    H255977   9.172   3.805   6.560
18698TIP3   OH255978   9.533   4.471   7.705
18698TIP3    H155979   9.454   4.413   7.698
18698TIP3    H255980   9.518   4.534   7.632
18699TIP3   OH255981   9.599   4.304   6.357
18699TIP3    H155982   9.628   4.377   6.299
18699TIP3    H255983   9.519   4.347   6.394
18700TIP3   OH255984   8.609   3.079   8.215
18700TIP3    H155985   8.515   3.099   8.230
18700TIP3    H255986   8.619   2.998   8.267
18701TIP3   OH255987   9.418   3.767   6.763
18701TIP3    H155988   9.410   3.696   6.830
18701TIP3    H255989   9.514   3.763   6.744
18702TIP3   OH255990   8.335   4.165   7.856
18702TIP3    H155991   8.386   4.087   7.885
18702TIP3    H255992   8.369   4.232   7.916
18703TIP3   OH255993   8.595   3.813   6.537
18703TIP3    H155994   8.639   3.734   6.502
18703TIP3    H255995   8.597   3.797   6.633
18704TIP3   OH255996   8.571   3.813   6.817
18704TIP3    H155997   8.648   3.788   6.868
18704TIP3    H255998   8.576   3.911   6.819
18705TIP3   OH255999   8.306   3.507   7.014
18705TIP3    H156000   8.239   3.553   7.069
18705TIP3    H256001   8.321   3.575   6.945
18706TIP3   OH256002   9.411   3.144   7.878
18706TIP3    H156003   9.484   3.190   7.923
18706TIP3    H256004   9.408   3.061   7.928
18707TIP3   OH256005   8.840   4.012   6.751
18707TIP3    H156006   8.753   4.043   6.783
18707TIP3    H256007   8.851   4.064   6.671
18708TIP3   OH256008   9.025   3.070   7.174
18708TIP3    H156009   9.091   3.140   7.158
18708TIP3    H256010   9.034   3.059   7.272
18709TIP3   OH256011   9.296   3.401   7.991
18709TIP3    H156012   9.317   3.446   8.075
18709TIP3    H256013   9.361   3.329   7.991
18710TIP3   OH256014   8.584   4.086   6.827
18710TIP3    H156015   8.569   4.159   6.763
18710TIP3    H256016   8.567   4.130   6.913
18711TIP3   OH256017   8.680   2.801   7.066
18711TIP3    H156018   8.677   2.893   7.100
18711TIP3    H256019   8.776   2.785   7.073
18712TIP3   OH256020   9.585   3.487   7.349
18712TIP3    H156021   9.503   3.435   7.358
18712TIP3    H256022   9.651   3.430   7.394
18713TIP3   OH256023   8.299   3.716   6.819
18713TIP3    H156024   8.369   3.783   6.828
18713TIP3    H256025   8.342   3.659   6.751
18714TIP3   OH256026   8.241   2.991   6.954
18714TIP3    H156027   8.243   3.088   6.950
18714TIP3    H256028   8.160   2.971   6.905
18715TIP3   OH256029   9.554   4.445   7.299
18715TIP3    H156030   9.510   4.492   7.225
18715TIP3    H256031   9.648   4.463   7.276
18716TIP3   OH256032   8.630   2.714   7.824
18716TIP3    H156033   8.598   2.681   7.738
18716TIP3    H256034   8.618   2.637   7.882
18717TIP3   OH256035   8.168   3.933   7.205
18717TIP3    H156036   8.097   3.962   7.263
18717TIP3    H256037   8.140   3.972   7.119
18718TIP3   OH256038   8.325   4.472   8.280
18718TIP3    H156039   8.413   4.469   8.324
18718TIP3    H256040   8.305   4.377   8.275
18719TIP3   OH256041   8.809   4.436   8.322
18719TIP3    H156042   8.902   4.411   8.327
18719TIP3    H256043   8.778   4.377   8.250
18720TIP3   OH256044   9.443   4.347   8.061
18720TIP3    H156045   9.432   4.275   8.127
18720TIP3    H256046   9.524   4.391   8.091
18721TIP3   OH256047   9.218   4.045   6.353
18721TIP3    H156048   9.267   3.996   6.421
18721TIP3    H256049   9.281   4.054   6.280
18722TIP3   OH256050   8.456   3.883   8.479
18722TIP3    H156051   8.476   3.788   8.488
18722TIP3    H256052   8.369   3.879   8.433
18723TIP3   OH256053   8.433   3.529   6.672
18723TIP3    H156054   8.491   3.497   6.744
18723TIP3    H256055   8.498   3.536   6.599
18724TIP3   OH256056   9.065   3.967   8.252
18724TIP3    H156057   9.022   3.982   8.166
18724TIP3    H256058   9.096   3.874   8.243
18725TIP3   OH256059   8.940   3.726   6.478
18725TIP3    H156060   8.945   3.742   6.574
18725TIP3    H256061   8.942   3.628   6.475
18726TIP3   OH256062   9.554   3.969   7.866
18726TIP3    H156063   9.621   4.015   7.811
18726TIP3    H256064   9.476   4.025   7.851
18727TIP3   OH256065   8.574   3.619   8.458
18727TIP3    H156066   8.624   3.537   8.457
18727TIP3    H256067   8.595   3.648   8.550
18728TIP3   OH256068   8.642   3.433   6.894
18728TIP3    H156069   8.616   3.389   6.976
18728TIP3    H256070   8.678   3.358   6.842
18729TIP3   OH256071   8.915   3.498   8.124
18729TIP3    H156072   8.837   3.557   8.125
18729TIP3    H256073   8.964   3.531   8.046
18730TIP3   OH256074   8.743   3.227   6.734
18730TIP3    H156075   8.716   3.232   6.640
18730TIP3    H256076   8.840   3.233   6.727
18731TIP3   OH256077   9.418   3.905   8.216
18731TIP3    H156078   9.509   3.883   8.191
18731TIP3    H256079   9.414   3.881   8.309
18732TIP3   OH256080   9.569   3.558   6.395
18732TIP3    H156081   9.541   3.511   6.313
18732TIP3    H256082   9.534   3.648   6.374
18733TIP3   OH256083   9.003   3.266   8.247
18733TIP3    H156084   9.031   3.204   8.177
18733TIP3    H256085   8.982   3.346   8.194
18734TIP3   OH256086   9.041   3.069   8.053
18734TIP3    H156087   9.071   3.111   7.970
18734TIP3    H256088   8.947   3.051   8.032
18735TIP3   OH256089   9.062   3.604   7.925
18735TIP3    H156090   9.145   3.608   7.876
18735TIP3    H256091   9.008   3.672   7.881
18736TIP3   OH256092   9.706   3.845   8.048
18736TIP3    H156093   9.638   3.890   7.992
18736TIP3    H256094   9.766   3.813   7.979
18737TIP3   OH256095   8.919   3.404   8.476
18737TIP3    H156096   8.833   3.362   8.490
18737TIP3    H256097   8.944   3.370   8.388
18738TIP3   OH256098   9.125   2.823   8.162
18738TIP3    H156099   9.110   2.906   8.112
18738TIP3    H256100   9.074   2.759   8.111
18739TIP3   OH256101   8.740   3.181   8.493
18739TIP3    H156102   8.787   3.122   8.434
18739TIP3    H256103   8.767   3.148   8.582
18740TIP3   OH256104   8.596   4.285   6.629
18740TIP3    H156105   8.659   4.298   6.555
18740TIP3    H256106   8.512   4.289   6.583
18741TIP3   OH256107   8.030   3.670   6.857
18741TIP3    H156108   8.125   3.692   6.841
18741TIP3    H256109   8.023   3.582   6.814
18742TIP3   OH256110   7.944   4.283   7.270
18742TIP3    H156111   7.877   4.222   7.232
18742TIP3    H256112   7.989   4.224   7.334
18743TIP3   OH256113   8.080   4.133   7.456
18743TIP3    H156114   8.067   4.060   7.518
18743TIP3    H256115   8.132   4.194   7.510
18744TIP3   OH256116   9.811   4.527   7.255
18744TIP3    H156117   9.836   4.566   7.341
18744TIP3    H256118   9.867   4.576   7.193
18745TIP3   OH256119   9.831   4.555   7.536
18745TIP3    H156120   9.788   4.468   7.524
18745TIP3    H256121   9.901   4.528   7.599
18746TIP3   OH256122   9.694   3.745   6.727
18746TIP3    H156123   9.761   3.813   6.705
18746TIP3    H256124   9.736   3.704   6.806
18747TIP3   OH256125   9.813   3.609   6.932
18747TIP3    H156126   9.744   3.564   6.985
18747TIP3    H256127   9.869   3.649   7.001
18748TIP3   OH256128   9.884   4.003   7.365
18748TIP3    H156129   9.921   3.945   7.296
18748TIP3    H256130   9.873   4.086   7.315
18749TIP3   OH256131   9.710   4.303   7.559
18749TIP3    H156132   9.639   4.348   7.610
18749TIP3    H256133   9.659   4.257   7.489
18750TIP3   OH256134   9.771   3.525   6.574
18750TIP3    H156135   9.695   3.522   6.512
18750TIP3    H256136   9.740   3.597   6.633
18751TIP3   OH256137   9.632   3.189   6.543
18751TIP3    H156138   9.599   3.233   6.464
18751TIP3    H256139   9.606   3.096   6.526
18752TIP3   OH256140   9.640   3.464   7.081
18752TIP3    H156141   9.636   3.367   7.068
18752TIP3    H256142   9.622   3.473   7.177
18753TIP3   OH256143   8.266   3.541   7.829
18753TIP3    H156144   8.264   3.510   7.736
18753TIP3    H256145   8.363   3.543   7.845
18754TIP3   OH256146   9.577   2.923   6.516
18754TIP3    H156147   9.645   2.890   6.578
18754TIP3    H256148   9.497   2.871   6.538
18755TIP3   OH256149   9.643   3.195   6.963
18755TIP3    H156150   9.678   3.107   6.987
18755TIP3    H256151   9.701   3.219   6.887
18756TIP3   OH256152   9.806   3.345   7.455
18756TIP3    H156153   9.895   3.367   7.421
18756TIP3    H256154   9.808   3.394   7.540
18757TIP3   OH256155   9.826   3.495   7.682
18757TIP3    H156156   9.744   3.530   7.723
18757TIP3    H256157   9.862   3.571   7.632
18758TIP3   OH256158   8.468   3.216   8.485
18758TIP3    H156159   8.565   3.227   8.492
18758TIP3    H256160   8.455   3.142   8.547
18759TIP3   OH256161   9.735   2.940   7.027
18759TIP3    H156162   9.762   2.929   7.120
18759TIP3    H256163   9.668   2.870   7.020
18760TIP3   OH256164   8.445   2.922   7.836
18760TIP3    H156165   8.508   2.847   7.843
18760TIP3    H256166   8.507   2.997   7.827
18761TIP3   OH256167   8.249   3.194   7.906
18761TIP3    H156168   8.297   3.187   7.822
18761TIP3    H256169   8.276   3.281   7.937
18762TIP3   OH256170   9.825   2.851   6.641
18762TIP3    H156171   9.869   2.767   6.619
18762TIP3    H256172   9.876   2.912   6.584
18763TIP3   OH256173   8.232   2.697   7.407
18763TIP3    H156174   8.138   2.694   7.433
18763TIP3    H256175   8.230   2.756   7.329
18764TIP3   OH256176   9.402   4.398   6.921
18764TIP3    H156177   9.441   4.382   6.833
18764TIP3    H256178   9.455   4.473   6.953
18765TIP3   OH256179   8.433   2.774   8.221
18765TIP3    H156180   8.382   2.771   8.304
18765TIP3    H256181   8.366   2.814   8.161
18766TIP3   OH256182   8.491   4.211   8.299
18766TIP3    H156183   8.401   4.179   8.279
18766TIP3    H256184   8.503   4.180   8.389
18767TIP3   OH256185   8.671   4.241   7.848
18767TIP3    H156186   8.622   4.315   7.807
18767TIP3    H256187   8.756   4.253   7.802
18768TIP3   OH256188   9.114   4.482   7.986
18768TIP3    H156189   9.158   4.485   8.074
18768TIP3    H256190   9.179   4.532   7.932
18769TIP3   OH256191   9.291   4.633   7.843
18769TIP3    H156192   9.358   4.584   7.794
18769TIP3    H256193   9.346   4.691   7.900
18770TIP3   OH256194   8.347   4.496   7.868
18770TIP3    H156195   8.258   4.529   7.843
18770TIP3    H256196   8.353   4.531   7.958
18771TIP3   OH256197   8.584   4.475   7.728
18771TIP3    H156198   8.497   4.487   7.771
18771TIP3    H256199   8.565   4.505   7.637
18772TIP3   OH256200   9.008   4.501   7.527
18772TIP3    H156201   8.940   4.518   7.459
18772TIP3    H256202   9.020   4.590   7.565
18773TIP3   OH256203   9.277   4.443   7.580
18773TIP3    H156204   9.183   4.458   7.558
18773TIP3    H256205   9.320   4.514   7.529
18774TIP3   OH256206   9.486   4.634   7.490
18774TIP3    H156207   9.470   4.718   7.442
18774TIP3    H256208   9.510   4.573   7.417
18775TIP3   OH256209   8.257   4.288   7.615
18775TIP3    H156210   8.285   4.261   7.705
18775TIP3    H256211   8.329   4.245   7.563
18776TIP3   OH256212   8.451   4.160   7.473
18776TIP3    H156213   8.468   4.076   7.521
18776TIP3    H256214   8.542   4.197   7.466
18777TIP3   OH256215   8.718   4.255   7.474
18777TIP3    H156216   8.749   4.164   7.458
18777TIP3    H256217   8.764   4.274   7.558
18778TIP3   OH256218   9.294   2.914   7.572
18778TIP3    H156219   9.243   2.841   7.614
18778TIP3    H256220   9.343   2.868   7.502
18779TIP3   OH256221   9.809   2.796   7.493
18779TIP3    H156222   9.845   2.847   7.418
18779TIP3    H256223   9.713   2.801   7.477
18780TIP3   OH256224   9.902   2.893   7.256
18780TIP3    H156225   9.962   2.854   7.188
18780TIP3    H256226   9.919   2.989   7.241
18781TIP3   OH256227   8.541   2.620   7.578
18781TIP3    H156228   8.448   2.588   7.578
18781TIP3    H256229   8.589   2.535   7.571
18782TIP3   OH256230   8.334   2.489   7.227
18782TIP3    H156231   8.361   2.546   7.153
18782TIP3    H256232   8.302   2.554   7.292
18783TIP3   OH256233   8.974   2.650   7.471
18783TIP3    H156234   9.026   2.693   7.403
18783TIP3    H256235   9.014   2.686   7.552
18784TIP3   OH256236   9.542   2.788   7.454
18784TIP3    H156237   9.513   2.802   7.360
18784TIP3    H256238   9.535   2.692   7.456
18785TIP3   OH256239   8.044   4.062   7.004
18785TIP3    H156240   7.959   4.029   6.971
18785TIP3    H256241   8.036   4.156   6.979
18786TIP3   OH256242   8.446   2.646   6.991
18786TIP3    H156243   8.495   2.586   6.931
18786TIP3    H256244   8.519   2.702   7.025
18787TIP3   OH256245   8.957   2.820   7.088
18787TIP3    H156246   9.023   2.764   7.130
18787TIP3    H256247   8.985   2.910   7.118
18788TIP3   OH256248   9.538   4.367   6.682
18788TIP3    H156249   9.532   4.269   6.669
18788TIP3    H256250   9.491   4.398   6.602
18789TIP3   OH256251   8.126   4.093   6.641
18789TIP3    H156252   8.119   4.115   6.735
18789TIP3    H256253   8.212   4.046   6.635
18790TIP3   OH256254   9.746   4.507   7.880
18790TIP3    H156255   9.672   4.483   7.820
18790TIP3    H256256   9.742   4.605   7.874
18791TIP3   OH256257   9.982   3.388   6.911
18791TIP3    H156258   9.919   3.462   6.912
18791TIP3    H256259   9.934   3.326   6.853
18792TIP3   OH256260  10.047   3.675   7.067
18792TIP3    H156261  10.120   3.613   7.084
18792TIP3    H256262  10.063   3.689   6.972
18793TIP3   OH256263   9.898   3.918   6.648
18793TIP3    H156264   9.874   3.925   6.555
18793TIP3    H256265   9.927   4.010   6.668
18794TIP3   OH256266  10.084   4.014   7.559
18794TIP3    H156267  10.010   4.005   7.494
18794TIP3    H256268  10.127   3.926   7.552
18795TIP3   OH256269   9.945   4.235   7.207
18795TIP3    H156270  10.040   4.247   7.194
18795TIP3    H256271   9.922   4.320   7.248
18796TIP3   OH256272  10.084   4.453   6.743
18796TIP3    H156273  10.135   4.449   6.826
18796TIP3    H256274  10.032   4.371   6.747
18797TIP3   OH256275  10.233   4.242   7.568
18797TIP3    H156276  10.254   4.230   7.662
18797TIP3    H256277  10.162   4.175   7.558
18798TIP3   OH256278  10.011   3.131   7.166
18798TIP3    H156279  10.097   3.173   7.172
18798TIP3    H256280   9.980   3.160   7.079
18799TIP3   OH256281   9.968   3.584   6.393
18799TIP3    H156282  10.040   3.578   6.459
18799TIP3    H256283   9.890   3.568   6.450
18800TIP3   OH256284  10.127   4.426   7.347
18800TIP3    H156285  10.168   4.352   7.394
18800TIP3    H256286  10.153   4.502   7.402
18801TIP3   OH256287   9.958   4.185   6.695
18801TIP3    H156288   9.882   4.212   6.748
18801TIP3    H256289   9.937   4.229   6.610
18802TIP3   OH256290  10.096   4.713   7.752
18802TIP3    H156291  10.181   4.687   7.787
18802TIP3    H256292  10.054   4.624   7.741
18803TIP3   OH256293   9.826   3.934   6.336
18803TIP3    H156294   9.922   3.923   6.345
18803TIP3    H256295   9.805   3.852   6.286
18804TIP3   OH256296   9.738   4.540   6.757
18804TIP3    H156297   9.672   4.478   6.720
18804TIP3    H256298   9.784   4.481   6.821
18805TIP3   OH256299   9.872   4.388   6.945
18805TIP3    H156300   9.855   4.318   7.010
18805TIP3    H256301   9.926   4.449   6.998
18806TIP3   OH256302  10.082   3.792   7.311
18806TIP3    H156303  10.063   3.762   7.220
18806TIP3    H256304  10.170   3.833   7.300
18807TIP3   OH256305  10.054   3.463   7.367
18807TIP3    H156306  10.034   3.485   7.275
18807TIP3    H256307  10.042   3.549   7.411
18808TIP3   OH256308   9.974   3.007   6.879
18808TIP3    H156309   9.878   2.990   6.888
18808TIP3    H256310   9.981   3.026   6.784
18809TIP3   OH256311  10.135   4.747   7.358
18809TIP3    H156312  10.052   4.789   7.328
18809TIP3    H256313  10.130   4.763   7.452
18810TIP3   OH256314  10.389   4.738   7.232
18810TIP3    H156315  10.297   4.741   7.263
18810TIP3    H256316  10.378   4.767   7.139
18811TIP3   OH256317  10.056   4.541   7.097
18811TIP3    H156318  10.083   4.520   7.189
18811TIP3    H256319  10.134   4.507   7.049
18812TIP3   OH256320  10.264   4.430   6.950
18812TIP3    H156321  10.294   4.337   6.940
18812TIP3    H256322  10.351   4.475   6.956
18813TIP3   OH256323   9.842   4.316   6.491
18813TIP3    H156324   9.756   4.285   6.457
18813TIP3    H256325   9.834   4.411   6.471
18814TIP3   OH256326   9.942   4.359   6.144
18814TIP3    H156327   9.904   4.385   6.229
18814TIP3    H256328   9.995   4.282   6.167
18815TIP3   OH256329   1.683   4.415   8.835
18815TIP3    H156330   1.655   4.507   8.814
18815TIP3    H256331   1.608   4.366   8.797
18816TIP3   OH256332   1.682   4.426   9.167
18816TIP3    H156333   1.664   4.394   9.258
18816TIP3    H256334   1.652   4.352   9.112
18817TIP3   OH256335   1.931   4.717   8.896
18817TIP3    H156336   1.910   4.650   8.962
18817TIP3    H256337   1.960   4.792   8.951
18818TIP3   OH256338   1.573   5.182   8.908
18818TIP3    H156339   1.623   5.107   8.869
18818TIP3    H256340   1.556   5.153   8.998
18819TIP3   OH256341   1.510   4.642   9.180
18819TIP3    H156342   1.580   4.576   9.164
18819TIP3    H256343   1.505   4.646   9.278
18820TIP3   OH256344   2.497   3.936   9.253
18820TIP3    H156345   2.493   4.021   9.299
18820TIP3    H256346   2.528   3.963   9.165
18821TIP3   OH256347   1.932   3.884   8.887
18821TIP3    H156348   2.005   3.875   8.953
18821TIP3    H256349   1.979   3.928   8.814
18822TIP3   OH256350   1.578   4.637   8.704
18822TIP3    H156351   1.533   4.618   8.621
18822TIP3    H256352   1.535   4.721   8.730
18823TIP3   OH256353   2.144   3.897   9.060
18823TIP3    H156354   2.143   3.874   9.155
18823TIP3    H256355   2.197   3.979   9.064
18824TIP3   OH256356   0.619   4.478   8.776
18824TIP3    H156357   0.533   4.492   8.734
18824TIP3    H256358   0.602   4.506   8.867
18825TIP3   OH256359   2.002   4.958   9.064
18825TIP3    H156360   1.917   4.951   9.112
18825TIP3    H256361   1.991   5.043   9.018
18826TIP3   OH256362   1.707   5.005   8.748
18826TIP3    H156363   1.754   4.923   8.721
18826TIP3    H256364   1.764   5.071   8.703
18827TIP3   OH256365   1.844   4.791   8.645
18827TIP3    H156366   1.800   4.712   8.609
18827TIP3    H256367   1.881   4.756   8.729
18828TIP3   OH256368   2.225   4.881   9.400
18828TIP3    H156369   2.207   4.807   9.338
18828TIP3    H256370   2.201   4.958   9.344
18829TIP3   OH256371   1.516   4.268   8.667
18829TIP3    H156372   1.435   4.319   8.648
18829TIP3    H256373   1.559   4.266   8.580
18830TIP3   OH256374   1.476   4.052   8.384
18830TIP3    H156375   1.543   4.104   8.431
18830TIP3    H256376   1.533   3.989   8.336
18831TIP3   OH256377   2.437   4.517   9.252
18831TIP3    H156378   2.344   4.546   9.262
18831TIP3    H256379   2.454   4.541   9.158
18832TIP3   OH256380   1.864   4.349   8.639
18832TIP3    H156381   1.809   4.374   8.717
18832TIP3    H256382   1.948   4.325   8.684
18833TIP3   OH256383   1.096   4.331   9.039
18833TIP3    H156384   1.045   4.282   8.970
18833TIP3    H256385   1.155   4.262   9.070
18834TIP3   OH256386   1.275   4.789   9.150
18834TIP3    H156387   1.235   4.739   9.077
18834TIP3    H256388   1.364   4.747   9.154
18835TIP3   OH256389   1.775   4.953   9.209
18835TIP3    H156390   1.737   5.041   9.230
18835TIP3    H256391   1.729   4.893   9.268
18836TIP3   OH256392   1.705   4.206   8.465
18836TIP3    H156393   1.763   4.267   8.516
18836TIP3    H256394   1.731   4.230   8.373
18837TIP3   OH256395   1.450   4.884   8.738
18837TIP3    H156396   1.525   4.943   8.757
18837TIP3    H256397   1.384   4.945   8.702
18838TIP3   OH256398   2.220   3.448   8.514
18838TIP3    H156399   2.139   3.471   8.564
18838TIP3    H256400   2.235   3.531   8.463
18839TIP3   OH256401   0.965   4.182   8.848
18839TIP3    H156402   0.897   4.221   8.789
18839TIP3    H256403   0.911   4.127   8.906
18840TIP3   OH256404   2.019   4.815   8.062
18840TIP3    H156405   2.027   4.912   8.048
18840TIP3    H256406   2.112   4.786   8.050
18841TIP3   OH256407   2.455   5.250   9.438
18841TIP3    H156408   2.463   5.152   9.435
18841TIP3    H256409   2.366   5.260   9.474
18842TIP3   OH256410   1.331   5.134   8.542
18842TIP3    H156411   1.282   5.116   8.460
18842TIP3    H256412   1.297   5.221   8.569
18843TIP3   OH256413   0.802   4.959   8.861
18843TIP3    H156414   0.815   4.956   8.958
18843TIP3    H256415   0.707   4.938   8.848
18844TIP3   OH256416   1.529   5.034   8.182
18844TIP3    H156417   1.589   4.964   8.146
18844TIP3    H256418   1.564   5.045   8.273
18845TIP3   OH256419   1.581   5.082   8.451
18845TIP3    H156420   1.492   5.093   8.493
18845TIP3    H256421   1.631   5.041   8.524
18846TIP3   OH256422   1.781   4.252   8.210
18846TIP3    H156423   1.747   4.228   8.122
18846TIP3    H256424   1.862   4.301   8.186
18847TIP3   OH256425   1.495   3.627   8.512
18847TIP3    H156426   1.459   3.623   8.603
18847TIP3    H256427   1.452   3.548   8.475
18848TIP3   OH256428   1.127   3.987   9.056
18848TIP3    H156429   1.070   3.911   9.073
18848TIP3    H256430   1.160   3.960   8.967
18849TIP3   OH256431   1.652   4.066   8.796
18849TIP3    H156432   1.601   4.140   8.755
18849TIP3    H256433   1.710   4.040   8.722
18850TIP3   OH256434   1.823   4.109   9.023
18850TIP3    H156435   1.752   4.127   8.960
18850TIP3    H256436   1.849   4.020   8.995
18851TIP3   OH256437   1.151   3.604   8.478
18851TIP3    H156438   1.138   3.599   8.575
18851TIP3    H256439   1.071   3.654   8.452
18852TIP3   OH256440   0.695   3.648   8.884
18852TIP3    H156441   0.721   3.676   8.794
18852TIP3    H256442   0.617   3.701   8.897
18853TIP3   OH256443   1.202   3.858   8.822
18853TIP3    H156444   1.289   3.876   8.783
18853TIP3    H256445   1.141   3.875   8.746
18854TIP3   OH256446   1.038   3.886   8.610
18854TIP3    H156447   0.965   3.842   8.564
18854TIP3    H256448   1.087   3.924   8.534
18855TIP3   OH256449   2.130   5.637   9.525
18855TIP3    H156450   2.135   5.629   9.428
18855TIP3    H256451   2.223   5.661   9.546
18856TIP3   OH256452   1.288   4.420   8.621
18856TIP3    H156453   1.216   4.355   8.609
18856TIP3    H256454   1.269   4.452   8.712
18857TIP3   OH256455   2.180   4.647   9.250
18857TIP3    H156456   2.216   4.695   9.173
18857TIP3    H256457   2.100   4.604   9.211
18858TIP3   OH256458   1.746   3.730   8.482
18858TIP3    H156459   1.649   3.713   8.488
18858TIP3    H256460   1.753   3.826   8.502
18859TIP3   OH256461   1.814   3.980   8.584
18859TIP3    H156462   1.911   3.987   8.598
18859TIP3    H256463   1.795   4.059   8.530
18860TIP3   OH256464   1.431   4.569   8.439
18860TIP3    H156465   1.384   4.655   8.443
18860TIP3    H256466   1.376   4.515   8.500
18861TIP3   OH256467   2.256   4.071   8.419
18861TIP3    H156468   2.194   4.026   8.356
18861TIP3    H256469   2.253   4.160   8.378
18862TIP3   OH256470   2.475   4.980   9.458
18862TIP3    H156471   2.385   4.943   9.452
18862TIP3    H256472   2.517   4.924   9.389
18863TIP3   OH256473   1.957   4.888   8.327
18863TIP3    H156474   1.930   4.819   8.388
18863TIP3    H256475   1.969   4.841   8.242
18864TIP3   OH256476   1.948   4.516   9.168
18864TIP3    H156477   1.853   4.492   9.163
18864TIP3    H256478   1.986   4.437   9.124
18865TIP3   OH256479   1.082   4.743   8.904
18865TIP3    H156480   1.091   4.826   8.854
18865TIP3    H256481   0.987   4.739   8.917
18866TIP3   OH256482   0.645   4.054   8.627
18866TIP3    H156483   0.710   4.127   8.630
18866TIP3    H256484   0.580   4.091   8.691
18867TIP3   OH256485   1.223   4.508   8.868
18867TIP3    H156486   1.181   4.596   8.881
18867TIP3    H256487   1.176   4.455   8.936
18868TIP3   OH256488   1.046   4.986   8.756
18868TIP3    H156489   0.953   4.987   8.790
18868TIP3    H256490   1.067   5.082   8.762
18869TIP3   OH256491   1.713   4.616   8.228
18869TIP3    H156492   1.765   4.591   8.308
18869TIP3    H256493   1.624   4.590   8.257
18870TIP3   OH256494   1.988   5.249   9.382
18870TIP3    H156495   1.895   5.224   9.383
18870TIP3    H256496   1.984   5.328   9.323
18871TIP3   OH256497   2.051   5.091   8.048
18871TIP3    H156498   2.089   5.163   7.995
18871TIP3    H256499   1.971   5.136   8.082
18872TIP3   OH256500   1.873   4.548   8.444
18872TIP3    H156501   1.863   4.483   8.516
18872TIP3    H256502   1.970   4.547   8.432
18873TIP3   OH256503   1.078   4.596   8.227
18873TIP3    H156504   1.091   4.503   8.199
18873TIP3    H256505   1.060   4.585   8.322
18874TIP3   OH256506   1.026   4.601   8.499
18874TIP3    H156507   1.095   4.576   8.562
18874TIP3    H256508   1.028   4.700   8.505
18875TIP3   OH256509   0.781   4.287   8.676
18875TIP3    H156510   0.718   4.340   8.732
18875TIP3    H256511   0.795   4.355   8.607
18876TIP3   OH256512   1.796   3.680   8.755
18876TIP3    H156513   1.777   3.704   8.662
18876TIP3    H256514   1.832   3.764   8.792
18877TIP3   OH256515   1.290   4.800   8.447
18877TIP3    H156516   1.202   4.823   8.482
18877TIP3    H256517   1.306   4.877   8.391
18878TIP3   OH256518   1.495   3.857   8.867
18878TIP3    H156519   1.556   3.926   8.832
18878TIP3    H256520   1.467   3.899   8.949
18879TIP3   OH256521   1.638   3.578   8.952
18879TIP3    H156522   1.635   3.648   9.018
18879TIP3    H256523   1.691   3.620   8.881
18880TIP3   OH256524   1.033   4.872   8.510
18880TIP3    H156525   1.002   4.943   8.450
18880TIP3    H256526   1.032   4.918   8.597
18881TIP3   OH256527   1.136   3.585   8.754
18881TIP3    H156528   1.129   3.674   8.794
18881TIP3    H256529   1.232   3.570   8.765
18882TIP3   OH256530   2.035   4.283   9.042
18882TIP3    H156531   1.958   4.223   9.050
18882TIP3    H256532   2.106   4.230   9.086
18883TIP3   OH256533   0.761   4.510   8.497
18883TIP3    H156534   0.834   4.574   8.510
18883TIP3    H256535   0.803   4.453   8.429
18884TIP3   OH256536   0.690   3.783   8.644
18884TIP3    H156537   0.688   3.881   8.645
18884TIP3    H256538   0.623   3.761   8.579
18885TIP3   OH256539   2.006   5.231   8.990
18885TIP3    H156540   1.963   5.278   8.915
18885TIP3    H256541   2.100   5.250   8.968
18886TIP3   OH256542   0.641   4.704   8.943
18886TIP3    H156543   0.575   4.753   8.890
18886TIP3    H256544   0.707   4.688   8.874
18887TIP3   OH256545   1.239   4.798   8.137
18887TIP3    H156546   1.181   4.730   8.177
18887TIP3    H256547   1.316   4.744   8.115
18888TIP3   OH256548   1.675   4.840   8.052
18888TIP3    H156549   1.720   4.776   8.111
18888TIP3    H256550   1.734   4.840   7.973
18889TIP3   OH256551   0.891   4.316   8.360
18889TIP3    H156552   0.945   4.283   8.434
18889TIP3    H256553   0.959   4.321   8.289
18890TIP3   OH256554   1.398   4.519   8.168
18890TIP3    H156555   1.399   4.530   8.265
18890TIP3    H256556   1.396   4.421   8.162
18891TIP3   OH256557   1.098   4.222   8.586
18891TIP3    H156558   1.062   4.185   8.669
18891TIP3    H256559   1.129   4.142   8.539
18892TIP3   OH256560   1.195   4.013   8.424
18892TIP3    H156561   1.167   4.019   8.330
18892TIP3    H256562   1.292   4.020   8.415
18893TIP3   OH256563   2.016   4.345   8.088
18893TIP3    H156564   1.995   4.300   8.004
18893TIP3    H256565   1.984   4.436   8.065
18894TIP3   OH256566   1.002   5.077   8.329
18894TIP3    H156567   1.098   5.072   8.309
18894TIP3    H256568   0.973   5.127   8.250
18895TIP3   OH256569   0.492   4.478   8.490
18895TIP3    H156570   0.588   4.488   8.510
18895TIP3    H256571   0.486   4.381   8.476
18896TIP3   OH256572   2.260   5.319   8.944
18896TIP3    H156573   2.286   5.357   9.030
18896TIP3    H256574   2.318   5.367   8.882
18897TIP3   OH256575   2.287   5.347   9.222
18897TIP3    H156576   2.246   5.257   9.218
18897TIP3    H256577   2.370   5.326   9.269
18898TIP3   OH256578   2.152   4.532   8.420
18898TIP3    H156579   2.219   4.597   8.391
18898TIP3    H256580   2.196   4.494   8.499
18899TIP3   OH256581   2.280   4.398   8.624
18899TIP3    H156582   2.213   4.357   8.683
18899TIP3    H256583   2.344   4.437   8.687
18900TIP3   OH256584   2.332   4.786   9.065
18900TIP3    H156585   2.385   4.725   9.011
18900TIP3    H256586   2.324   4.864   9.005
18901TIP3   OH256587   2.168   5.097   9.247
18901TIP3    H156588   2.097   5.144   9.296
18901TIP3    H256589   2.116   5.054   9.175
18902TIP3   OH256590   2.217   4.307   8.271
18902TIP3    H156591   2.146   4.310   8.203
18902TIP3    H256592   2.190   4.384   8.326
18903TIP3   OH256593   2.089   3.980   8.225
18903TIP3    H156594   2.045   4.020   8.149
18903TIP3    H256595   2.064   3.886   8.214
18904TIP3   OH256596   2.093   4.258   8.773
18904TIP3    H156597   2.099   4.161   8.766
18904TIP3    H256598   2.076   4.271   8.869
18905TIP3   OH256599   2.032   3.714   8.210
18905TIP3    H156600   2.105   3.682   8.266
18905TIP3    H256601   1.957   3.656   8.233
18906TIP3   OH256602   2.089   3.975   8.665
18906TIP3    H156603   2.130   3.886   8.680
18906TIP3    H256604   2.147   4.008   8.594
18907TIP3   OH256605   2.252   4.149   9.147
18907TIP3    H156606   2.342   4.177   9.117
18907TIP3    H256607   2.254   4.176   9.239
18908TIP3   OH256608   2.198   3.724   8.701
18908TIP3    H156609   2.248   3.707   8.784
18908TIP3    H256610   2.138   3.648   8.700
18909TIP3   OH256611   2.279   3.656   8.338
18909TIP3    H156612   2.318   3.585   8.281
18909TIP3    H256613   2.345   3.727   8.330
18910TIP3   OH256614   1.845   5.188   8.604
18910TIP3    H156615   1.894   5.175   8.520
18910TIP3    H256616   1.896   5.258   8.646
18911TIP3   OH256617   1.480   5.296   9.178
18911TIP3    H156618   1.398   5.292   9.125
18911TIP3    H256619   1.464   5.379   9.227
18912TIP3   OH256620   1.726   5.223   9.273
18912TIP3    H156621   1.635   5.245   9.243
18912TIP3    H256622   1.777   5.289   9.224
18913TIP3   OH256623   1.930   5.422   9.179
18913TIP3    H156624   1.915   5.507   9.131
18913TIP3    H256625   1.958   5.363   9.106
18914TIP3   OH256626   0.894   4.965   9.119
18914TIP3    H156627   0.916   4.884   9.170
18914TIP3    H256628   0.981   5.010   9.120
18915TIP3   OH256629   1.163   5.054   9.152
18915TIP3    H156630   1.216   4.972   9.143
18915TIP3    H256631   1.176   5.077   9.246
18916TIP3   OH256632   2.277   3.606   9.160
18916TIP3    H156633   2.314   3.645   9.078
18916TIP3    H256634   2.182   3.614   9.142
18917TIP3   OH256635   2.366   3.676   8.914
18917TIP3    H156636   2.440   3.628   8.873
18917TIP3    H256637   2.397   3.769   8.902
18918TIP3   OH256638   2.006   3.586   9.092
18918TIP3    H156639   1.987   3.587   8.997
18918TIP3    H256640   2.013   3.491   9.110
18919TIP3   OH256641   2.016   3.512   8.695
18919TIP3    H156642   1.930   3.557   8.703
18919TIP3    H256643   1.996   3.426   8.738
18920TIP3   OH256644   0.904   3.454   8.651
18920TIP3    H156645   0.954   3.381   8.610
18920TIP3    H256646   0.972   3.498   8.706
18921TIP3   OH256647   1.415   3.611   8.779
18921TIP3    H156648   1.477   3.565   8.838
18921TIP3    H256649   1.435   3.703   8.805
18922TIP3   OH256650   1.270   5.034   8.277
18922TIP3    H156651   1.358   5.058   8.241
18922TIP3    H256652   1.248   4.960   8.217
18923TIP3   OH256653   1.989   5.155   8.370
18923TIP3    H156654   1.981   5.058   8.357
18923TIP3    H256655   1.944   5.189   8.290
18924TIP3   OH256656   0.591   4.882   8.380
18924TIP3    H156657   0.607   4.978   8.390
18924TIP3    H256658   0.675   4.848   8.343
18925TIP3   OH256659   3.485   4.670   8.322
18925TIP3    H156660   3.456   4.762   8.304
18925TIP3    H256661   3.406   4.622   8.291
18926TIP3   OH256662   3.482   4.670   8.704
18926TIP3    H156663   3.513   4.644   8.792
18926TIP3    H256664   3.440   4.589   8.672
18927TIP3   OH256665   2.780   4.569   9.067
18927TIP3    H156666   2.814   4.504   9.131
18927TIP3    H256667   2.856   4.627   9.058
18928TIP3   OH256668   3.725   4.966   8.389
18928TIP3    H156669   3.706   4.913   8.468
18928TIP3    H256670   3.760   5.048   8.429
18929TIP3   OH256671   2.753   4.977   8.797
18929TIP3    H156672   2.745   4.879   8.798
18929TIP3    H256673   2.850   4.985   8.784
18930TIP3   OH256674   2.458   4.179   8.579
18930TIP3    H156675   2.410   4.262   8.595
18930TIP3    H256676   2.388   4.126   8.537
18931TIP3   OH256677   2.517   4.467   8.752
18931TIP3    H156678   2.567   4.390   8.787
18931TIP3    H256679   2.576   4.499   8.682
18932TIP3   OH256680   3.372   5.434   8.403
18932TIP3    H156681   3.417   5.365   8.351
18932TIP3    H256682   3.371   5.397   8.491
18933TIP3   OH256683   3.278   4.897   8.755
18933TIP3    H156684   3.317   4.824   8.704
18933TIP3    H256685   3.361   4.942   8.780
18934TIP3   OH256686   3.703   4.414   8.774
18934TIP3    H156687   3.732   4.323   8.797
18934TIP3    H256688   3.669   4.398   8.684
18935TIP3   OH256689   3.030   4.058   8.752
18935TIP3    H156690   3.011   4.130   8.688
18935TIP3    H256691   2.983   3.984   8.707
18936TIP3   OH256692   3.721   4.152   8.378
18936TIP3    H156693   3.782   4.101   8.434
18936TIP3    H256694   3.778   4.183   8.305
18937TIP3   OH256695   2.663   4.260   8.859
18937TIP3    H156696   2.747   4.241   8.905
18937TIP3    H256697   2.675   4.205   8.779
18938TIP3   OH256698   3.104   4.457   8.651
18938TIP3    H156699   3.198   4.432   8.663
18938TIP3    H256700   3.065   4.374   8.618
18939TIP3   OH256701   4.383   4.453   8.926
18939TIP3    H156702   4.294   4.486   8.911
18939TIP3    H256703   4.377   4.432   9.020
18940TIP3   OH256704   3.022   4.040   9.188
18940TIP3    H156705   2.970   4.081   9.116
18940TIP3    H256706   2.961   4.045   9.261
18941TIP3   OH256707   3.367   4.888   8.196
18941TIP3    H156708   3.331   4.877   8.107
18941TIP3    H256709   3.328   4.974   8.221
18942TIP3   OH256710   3.133   4.817   8.980
18942TIP3    H156711   3.072   4.885   9.016
18942TIP3    H256712   3.176   4.865   8.906
18943TIP3   OH256713   2.900   4.156   8.971
18943TIP3    H156714   2.960   4.231   8.991
18943TIP3    H256715   2.946   4.116   8.893
18944TIP3   OH256716   2.962   5.012   9.079
18944TIP3    H156717   2.937   5.097   9.037
18944TIP3    H256718   2.882   4.997   9.133
18945TIP3   OH256719   2.355   4.701   8.314
18945TIP3    H156720   2.314   4.728   8.229
18945TIP3    H256721   2.385   4.788   8.350
18946TIP3   OH256722   3.793   5.214   8.553
18946TIP3    H156723   3.702   5.210   8.590
18946TIP3    H256724   3.790   5.300   8.506
18947TIP3   OH256725   3.385   3.757   8.901
18947TIP3    H156726   3.370   3.662   8.915
18947TIP3    H256727   3.304   3.795   8.942
18948TIP3   OH256728   3.494   5.263   8.226
18948TIP3    H156729   3.545   5.181   8.204
18948TIP3    H256730   3.555   5.330   8.187
18949TIP3   OH256731   3.635   5.046   8.138
18949TIP3    H156732   3.607   4.968   8.089
18949TIP3    H256733   3.673   5.008   8.220
18950TIP3   OH256734   4.019   5.128   8.900
18950TIP3    H156735   4.012   5.053   8.837
18950TIP3    H256736   4.002   5.205   8.841
18951TIP3   OH256737   3.312   4.523   8.155
18951TIP3    H156738   3.232   4.576   8.136
18951TIP3    H256739   3.356   4.523   8.068
18952TIP3   OH256740   3.271   4.308   7.870
18952TIP3    H156741   3.337   4.360   7.918
18952TIP3    H256742   3.329   4.245   7.823
18953TIP3   OH256743   4.213   4.760   8.736
18953TIP3    H156744   4.135   4.820   8.743
18953TIP3    H256745   4.250   4.791   8.651
18954TIP3   OH256746   3.659   4.605   8.123
18954TIP3    H156747   3.602   4.631   8.199
18954TIP3    H256748   3.742   4.583   8.169
18955TIP3   OH256749   3.897   4.643   9.038
18955TIP3    H156750   3.899   4.727   9.088
18955TIP3    H256751   3.811   4.651   8.994
18956TIP3   OH256752   2.890   4.603   8.545
18956TIP3    H156753   2.850   4.546   8.476
18956TIP3    H256754   2.968   4.550   8.572
18957TIP3   OH256755   3.018   5.010   8.694
18957TIP3    H156756   3.001   4.977   8.604
18957TIP3    H256757   3.109   4.978   8.710
18958TIP3   OH256758   3.030   4.574   8.898
18958TIP3    H156759   3.062   4.553   8.808
18958TIP3    H256760   3.073   4.661   8.916
18959TIP3   OH256761   3.550   5.213   8.674
18959TIP3    H156762   3.539   5.295   8.725
18959TIP3    H256763   3.536   5.143   8.740
18960TIP3   OH256764   3.165   5.133   9.223
18960TIP3    H156765   3.103   5.195   9.265
18960TIP3    H256766   3.102   5.079   9.171
18961TIP3   OH256767   3.500   4.462   7.950
18961TIP3    H156768   3.557   4.524   8.001
18961TIP3    H256769   3.525   4.484   7.857
18962TIP3   OH256770   2.925   4.684   9.324
18962TIP3    H156771   2.925   4.771   9.367
18962TIP3    H256772   2.831   4.659   9.337
18963TIP3   OH256773   3.244   5.144   8.230
18963TIP3    H156774   3.326   5.196   8.241
18963TIP3    H256775   3.184   5.208   8.189
18964TIP3   OH256776   2.961   5.298   9.309
18964TIP3    H156777   2.927   5.303   9.217
18964TIP3    H256778   2.881   5.272   9.359
18965TIP3   OH256779   4.016   3.704   8.002
18965TIP3    H156780   3.934   3.723   8.051
18965TIP3    H256781   4.029   3.787   7.952
18966TIP3   OH256782   2.758   4.446   8.348
18966TIP3    H156783   2.693   4.493   8.292
18966TIP3    H256784   2.716   4.360   8.358
18967TIP3   OH256785   3.816   5.072   7.549
18967TIP3    H156786   3.823   5.169   7.535
18967TIP3    H256787   3.909   5.044   7.534
18968TIP3   OH256788   2.549   4.819   9.252
18968TIP3    H156789   2.479   4.802   9.185
18968TIP3    H256790   2.583   4.729   9.268
18969TIP3   OH256791   2.393   5.018   8.896
18969TIP3    H156792   2.488   5.017   8.879
18969TIP3    H256793   2.383   5.103   8.943
18970TIP3   OH256794   4.260   5.476   8.949
18970TIP3    H156795   4.256   5.379   8.958
18970TIP3    H256796   4.175   5.502   8.990
18971TIP3   OH256797   3.366   5.259   9.080
18971TIP3    H156798   3.363   5.352   9.109
18971TIP3    H256799   3.292   5.220   9.132
18972TIP3   OH256800   3.124   5.387   8.033
18972TIP3    H156801   3.081   5.372   7.946
18972TIP3    H256802   3.094   5.477   8.056
18973TIP3   OH256803   2.562   5.238   8.414
18973TIP3    H156804   2.611   5.229   8.499
18973TIP3    H256805   2.504   5.161   8.418
18974TIP3   OH256806   3.325   5.289   7.669
18974TIP3    H156807   3.385   5.220   7.633
18974TIP3    H256808   3.362   5.301   7.759
18975TIP3   OH256809   3.376   5.340   7.938
18975TIP3    H156810   3.289   5.348   7.984
18975TIP3    H256811   3.432   5.305   8.009
18976TIP3   OH256812   4.146   4.602   9.219
18976TIP3    H156813   4.064   4.618   9.171
18976TIP3    H256814   4.163   4.508   9.200
18977TIP3   OH256815   2.743   5.012   9.243
18977TIP3    H156816   2.787   4.995   9.329
18977TIP3    H256817   2.673   4.943   9.244
18978TIP3   OH256818   3.145   3.835   9.022
18978TIP3    H156819   3.056   3.804   8.995
18978TIP3    H256820   3.121   3.921   9.061
18979TIP3   OH256821   3.690   3.950   9.223
18979TIP3    H156822   3.753   3.912   9.287
18979TIP3    H256823   3.603   3.929   9.263
18980TIP3   OH256824   3.921   4.382   9.135
18980TIP3    H156825   3.872   4.376   9.221
18980TIP3    H256826   3.896   4.471   9.103
18981TIP3   OH256827   3.578   4.506   7.696
18981TIP3    H156828   3.544   4.483   7.607
18981TIP3    H256829   3.654   4.562   7.672
18982TIP3   OH256830   3.289   3.884   7.999
18982TIP3    H156831   3.255   3.882   8.090
18982TIP3    H256832   3.249   3.802   7.964
18983TIP3   OH256833   3.075   4.352   9.048
18983TIP3    H156834   3.026   4.375   9.130
18983TIP3    H256835   3.061   4.433   8.994
18984TIP3   OH256836   2.960   4.237   8.561
18984TIP3    H156837   2.867   4.213   8.577
18984TIP3    H256838   2.973   4.198   8.472
18985TIP3   OH256839   3.449   4.324   8.286
18985TIP3    H156840   3.396   4.396   8.244
18985TIP3    H256841   3.502   4.292   8.211
18986TIP3   OH256842   3.628   4.612   9.366
18986TIP3    H156843   3.603   4.531   9.415
18986TIP3    H256844   3.723   4.619   9.387
18987TIP3   OH256845   3.591   4.350   8.531
18987TIP3    H156846   3.539   4.383   8.455
18987TIP3    H256847   3.632   4.273   8.487
18988TIP3   OH256848   2.892   4.387   9.257
18988TIP3    H156849   2.915   4.459   9.318
18988TIP3    H256850   2.826   4.338   9.307
18989TIP3   OH256851   2.945   3.859   7.965
18989TIP3    H156852   2.935   3.857   8.062
18989TIP3    H256853   2.867   3.912   7.940
18990TIP3   OH256854   2.486   3.903   8.836
18990TIP3    H156855   2.562   3.936   8.888
18990TIP3    H256856   2.527   3.874   8.753
18991TIP3   OH256857   2.459   3.884   8.355
18991TIP3    H156858   2.503   3.922   8.277
18991TIP3    H256859   2.397   3.957   8.376
18992TIP3   OH256860   3.617   4.599   8.948
18992TIP3    H156861   3.654   4.531   8.888
18992TIP3    H256862   3.588   4.544   9.023
18993TIP3   OH256863   3.287   4.060   8.621
18993TIP3    H156864   3.207   4.060   8.676
18993TIP3    H256865   3.358   4.057   8.687
18994TIP3   OH256866   2.720   4.116   8.631
18994TIP3    H156867   2.626   4.125   8.602
18994TIP3    H256868   2.743   4.025   8.605
18995TIP3   OH256869   2.989   4.112   8.318
18995TIP3    H156870   3.083   4.128   8.296
18995TIP3    H256871   2.942   4.135   8.235
18996TIP3   OH256872   3.748   4.149   8.812
18996TIP3    H156873   3.732   4.151   8.909
18996TIP3    H256874   3.694   4.073   8.784
18997TIP3   OH256875   2.834   4.145   8.097
18997TIP3    H156876   2.762   4.101   8.048
18997TIP3    H256877   2.885   4.183   8.022
18998TIP3   OH256878   3.949   5.825   9.042
18998TIP3    H156879   3.946   5.849   8.948
18998TIP3    H256880   4.028   5.874   9.072
18999TIP3   OH256881   2.896   4.935   9.471
18999TIP3    H156882   2.951   5.010   9.495
18999TIP3    H256883   2.837   4.928   9.549
19000TIP3   OH256884   3.370   4.387   8.718
19000TIP3    H156885   3.444   4.355   8.664
19000TIP3    H256886   3.385   4.342   8.802
19001TIP3   OH256887   2.893   3.876   8.599
19001TIP3    H156888   2.858   3.797   8.644
19001TIP3    H256889   2.939   3.838   8.523
19002TIP3   OH256890   3.344   4.279   9.021
19002TIP3    H156891   3.257   4.323   9.024
19002TIP3    H256892   3.404   4.346   9.060
19003TIP3   OH256893   3.084   4.675   8.104
19003TIP3    H156894   3.010   4.611   8.093
19003TIP3    H256895   3.064   4.710   8.195
19004TIP3   OH256896   3.982   4.910   8.733
19004TIP3    H156897   4.013   4.961   8.654
19004TIP3    H256898   3.893   4.882   8.706
19005TIP3   OH256899   3.541   3.985   7.971
19005TIP3    H156900   3.444   3.968   7.975
19005TIP3    H256901   3.547   4.081   7.989
19006TIP3   OH256902   3.474   4.990   9.105
19006TIP3    H156903   3.511   4.980   9.193
19006TIP3    H256904   3.446   5.083   9.104
19007TIP3   OH256905   3.606   4.236   8.069
19007TIP3    H156906   3.702   4.245   8.082
19007TIP3    H256907   3.584   4.315   8.016
19008TIP3   OH256908   2.775   4.697   8.780
19008TIP3    H156909   2.812   4.671   8.693
19008TIP3    H256910   2.817   4.634   8.840
19009TIP3   OH256911   3.228   4.825   7.925
19009TIP3    H156912   3.181   4.911   7.929
19009TIP3    H256913   3.174   4.771   7.986
19010TIP3   OH256914   2.668   4.596   9.384
19010TIP3    H156915   2.635   4.632   9.470
19010TIP3    H256916   2.589   4.546   9.353
19011TIP3   OH256917   3.378   4.732   9.403
19011TIP3    H156918   3.321   4.671   9.354
19011TIP3    H256919   3.467   4.701   9.375
19012TIP3   OH256920   3.642   5.244   9.006
19012TIP3    H156921   3.545   5.253   9.012
19012TIP3    H256922   3.671   5.304   9.077
19013TIP3   OH256923   4.270   5.182   8.989
19013TIP3    H156924   4.172   5.178   8.978
19013TIP3    H256925   4.297   5.154   8.898
19014TIP3   OH256926   3.726   5.147   7.804
19014TIP3    H156927   3.746   5.087   7.877
19014TIP3    H256928   3.763   5.103   7.726
19015TIP3   OH256929   3.736   4.783   8.656
19015TIP3    H156930   3.641   4.762   8.666
19015TIP3    H256931   3.772   4.695   8.640
19016TIP3   OH256932   2.878   5.003   8.406
19016TIP3    H156933   2.880   5.084   8.352
19016TIP3    H256934   2.783   4.988   8.413
19017TIP3   OH256935   2.441   4.306   8.109
19017TIP3    H156936   2.486   4.391   8.129
19017TIP3    H256937   2.363   4.312   8.169
19018TIP3   OH256938   3.012   4.766   8.349
19018TIP3    H156939   2.980   4.857   8.366
19018TIP3    H256940   2.975   4.718   8.425
19019TIP3   OH256941   3.145   5.346   8.873
19019TIP3    H156942   3.184   5.420   8.821
19019TIP3    H256943   3.225   5.312   8.918
19020TIP3   OH256944   2.797   5.240   8.258
19020TIP3    H156945   2.711   5.251   8.302
19020TIP3    H256946   2.830   5.333   8.260
19021TIP3   OH256947   3.531   4.979   8.834
19021TIP3    H156948   3.522   4.976   8.932
19021TIP3    H256949   3.616   4.935   8.821
19022TIP3   OH256950   3.506   4.864   7.715
19022TIP3    H156951   3.560   4.848   7.796
19022TIP3    H256952   3.417   4.847   7.748
19023TIP3   OH256953   3.780   5.515   8.881
19023TIP3    H156954   3.698   5.463   8.867
19023TIP3    H256955   3.771   5.582   8.810
19024TIP3   OH256956   3.843   5.348   7.535
19024TIP3    H156957   3.892   5.423   7.496
19024TIP3    H256958   3.763   5.396   7.563
19025TIP3   OH256959   3.666   4.807   7.933
19025TIP3    H156960   3.658   4.739   8.003
19025TIP3    H256961   3.762   4.810   7.920
19026TIP3   OH256962   2.581   5.210   9.034
19026TIP3    H156963   2.639   5.139   9.067
19026TIP3    H256964   2.614   5.287   9.083
19027TIP3   OH256965   2.874   4.853   7.714
19027TIP3    H156966   2.889   4.761   7.687
19027TIP3    H256967   2.854   4.843   7.810
19028TIP3   OH256968   2.819   4.858   7.987
19028TIP3    H156969   2.893   4.834   8.045
19028TIP3    H256970   2.821   4.956   7.993
19029TIP3   OH256971   2.554   4.552   8.191
19029TIP3    H156972   2.488   4.597   8.247
19029TIP3    H256973   2.568   4.620   8.123
19030TIP3   OH256974   3.704   4.193   9.087
19030TIP3    H156975   3.792   4.230   9.107
19030TIP3    H256976   3.703   4.110   9.139
19031TIP3   OH256977   3.584   3.939   8.247
19031TIP3    H156978   3.568   3.957   8.152
19031TIP3    H256979   3.614   4.026   8.279
19032TIP3   OH256980   3.085   5.054   7.935
19032TIP3    H156981   2.998   5.082   7.970
19032TIP3    H256982   3.105   5.130   7.878
19033TIP3   OH256983   3.274   4.119   8.349
19033TIP3    H156984   3.337   4.192   8.332
19033TIP3    H256985   3.279   4.112   8.447
19034TIP3   OH256986   3.542   4.433   9.150
19034TIP3    H156987   3.563   4.485   9.231
19034TIP3    H256988   3.600   4.355   9.159
19035TIP3   OH256989   3.416   3.844   8.451
19035TIP3    H156990   3.411   3.920   8.511
19035TIP3    H256991   3.478   3.878   8.382
19036TIP3   OH256992   2.828   5.130   8.004
19036TIP3    H156993   2.799   5.200   7.940
19036TIP3    H256994   2.813   5.175   8.090
19037TIP3   OH256995   2.929   3.845   8.242
19037TIP3    H156996   2.927   3.936   8.277
19037TIP3    H256997   3.025   3.827   8.249
19038TIP3   OH256998   4.189   4.344   9.126
19038TIP3    H156999   4.090   4.343   9.128
19038TIP3    H257000   4.202   4.279   9.053
19039TIP3   OH257001   2.546   4.760   7.996
19039TIP3    H157002   2.611   4.832   8.005
19039TIP3    H257003   2.592   4.705   7.929
19040TIP3   OH257004   2.490   4.036   8.130
19040TIP3    H157005   2.491   4.134   8.127
19040TIP3    H257006   2.408   4.015   8.083
19041TIP3   OH257007   3.803   5.486   8.476
19041TIP3    H157008   3.761   5.533   8.401
19041TIP3    H257009   3.897   5.505   8.456
19042TIP3   OH257010   2.880   3.762   9.000
19042TIP3    H157011   2.848   3.728   8.913
19042TIP3    H257012   2.869   3.682   9.056
19043TIP3   OH257013   2.415   4.972   8.382
19043TIP3    H157014   2.346   5.005   8.441
19043TIP3    H257015   2.390   5.014   8.297
19044TIP3   OH257016   2.579   5.518   9.430
19044TIP3    H157017   2.659   5.499   9.481
19044TIP3    H257018   2.533   5.431   9.433
19045TIP3   OH257019   3.060   5.465   9.513
19045TIP3    H157020   3.155   5.460   9.501
19045TIP3    H257021   3.029   5.415   9.435
19046TIP3   OH257022   3.036   5.057   7.625
19046TIP3    H157023   2.981   4.986   7.664
19046TIP3    H257024   3.113   5.007   7.594
19047TIP3   OH257025   3.689   5.393   9.236
19047TIP3    H157026   3.686   5.319   9.301
19047TIP3    H257027   3.771   5.440   9.261
19048TIP3   OH257028   3.473   5.096   7.537
19048TIP3    H157029   3.526   5.046   7.601
19048TIP3    H257030   3.531   5.099   7.459
19049TIP3   OH257031   2.682   4.573   7.849
19049TIP3    H157032   2.739   4.543   7.922
19049TIP3    H257033   2.749   4.578   7.777
19050TIP3   OH257034   3.323   5.004   9.410
19050TIP3    H157035   3.279   5.022   9.325
19050TIP3    H257036   3.348   4.909   9.401
19051TIP3   OH257037   3.190   4.772   7.655
19051TIP3    H157038   3.195   4.786   7.752
19051TIP3    H257039   3.191   4.674   7.651
19052TIP3   OH257040   3.804   5.018   9.033
19052TIP3    H157041   3.881   5.058   8.990
19052TIP3    H257042   3.738   5.089   9.020
19053TIP3   OH257043   2.889   4.478   8.070
19053TIP3    H157044   2.863   4.436   8.153
19053TIP3    H257045   2.926   4.402   8.019
19054TIP3   OH257046   3.165   4.539   9.304
19054TIP3    H157047   3.087   4.598   9.305
19054TIP3    H257048   3.212   4.571   9.223
19055TIP3   OH257049   2.991   4.271   7.911
19055TIP3    H157050   2.965   4.276   7.817
19055TIP3    H257051   3.089   4.277   7.903
19056TIP3   OH257052   3.676   4.942   9.428
19056TIP3    H157053   3.755   4.927   9.374
19056TIP3    H257054   3.686   4.876   9.498
19057TIP3   OH257055   3.824   4.599   7.581
19057TIP3    H157056   3.800   4.555   7.497
19057TIP3    H257057   3.792   4.689   7.560
19058TIP3   OH257058   3.257   4.309   9.439
19058TIP3    H157059   3.265   4.245   9.365
19058TIP3    H257060   3.220   4.388   9.393
19059TIP3   OH257061   3.283   4.112   9.232
19059TIP3    H157062   3.311   4.164   9.153
19059TIP3    H257063   3.188   4.095   9.211
19060TIP3   OH257064   3.311   4.650   9.105
19060TIP3    H157065   3.396   4.665   9.061
19060TIP3    H257066   3.254   4.718   9.062
19061TIP3   OH257067   3.903   4.608   9.476
19061TIP3    H157068   3.951   4.525   9.488
19061TIP3    H257069   3.973   4.668   9.447
19062TIP3   OH257070   3.934   4.872   9.220
19062TIP3    H157071   3.877   4.926   9.160
19062TIP3    H257072   4.022   4.894   9.182
19063TIP3   OH257073   3.425   3.882   9.283
19063TIP3    H157074   3.383   3.962   9.244
19063TIP3    H257075   3.360   3.813   9.260
19064TIP3   OH257076   3.527   4.381   9.465
19064TIP3    H157077   3.557   4.319   9.535
19064TIP3    H257078   3.432   4.360   9.459
19065TIP3   OH257079   3.791   4.334   9.366
19065TIP3    H157080   3.709   4.328   9.417
19065TIP3    H257081   3.859   4.321   9.435
19066TIP3   OH257082   4.002   4.315   9.551
19066TIP3    H157083   4.017   4.220   9.530
19066TIP3    H257084   4.002   4.315   9.647
19067TIP3   OH257085   3.585   3.781   9.500
19067TIP3    H157086   3.625   3.863   9.533
19067TIP3    H257087   3.520   3.814   9.436
19068TIP3   OH257088   2.798   5.330   7.815
19068TIP3    H157089   2.894   5.327   7.797
19068TIP3    H257090   2.769   5.383   7.738
19069TIP3   OH257091   2.278   4.715   8.033
19069TIP3    H157092   2.373   4.737   8.018
19069TIP3    H257093   2.273   4.627   7.990
19070TIP3   OH257094   2.193   5.327   8.446
19070TIP3    H157095   2.126   5.266   8.408
19070TIP3    H257096   2.237   5.268   8.511
19071TIP3   OH257097   2.330   5.176   8.631
19071TIP3    H157098   2.315   5.106   8.695
19071TIP3    H257099   2.381   5.239   8.685
19072TIP3   OH257100   4.054   5.578   8.435
19072TIP3    H157101   4.091   5.624   8.513
19072TIP3    H257102   4.112   5.610   8.364
19073TIP3   OH257103   4.081   5.603   8.723
19073TIP3    H157104   4.045   5.513   8.708
19073TIP3    H257105   4.165   5.580   8.765
19074TIP3   OH257106   4.133   5.275   9.289
19074TIP3    H157107   4.058   5.286   9.351
19074TIP3    H257108   4.174   5.364   9.292
19075TIP3   OH257109   3.944   4.797   7.915
19075TIP3    H157110   4.002   4.868   7.876
19075TIP3    H257111   3.985   4.788   8.002
19076TIP3   OH257112   4.103   4.611   8.080
19076TIP3    H157113   4.033   4.591   8.145
19076TIP3    H257114   4.171   4.657   8.137
19077TIP3   OH257115   4.126   5.039   8.545
19077TIP3    H157116   4.176   4.985   8.482
19077TIP3    H257117   4.131   5.127   8.501
19078TIP3   OH257118   3.960   5.345   8.742
19078TIP3    H157119   3.889   5.394   8.786
19078TIP3    H257120   3.913   5.302   8.668
19079TIP3   OH257121   4.019   4.582   7.771
19079TIP3    H157122   3.955   4.555   7.701
19079TIP3    H257123   3.971   4.664   7.801
19080TIP3   OH257124   3.899   4.243   7.721
19080TIP3    H157125   3.853   4.283   7.646
19080TIP3    H257126   3.869   4.150   7.712
19081TIP3   OH257127   3.894   4.509   8.248
19081TIP3    H157128   3.889   4.411   8.243
19081TIP3    H257129   3.877   4.525   8.342
19082TIP3   OH257130   2.515   4.588   9.000
19082TIP3    H157131   2.513   4.556   8.907
19082TIP3    H257132   2.613   4.589   9.016
19083TIP3   OH257133   4.177   4.938   9.114
19083TIP3    H157134   4.250   4.873   9.105
19083TIP3    H257135   4.205   5.009   9.054
19084TIP3   OH257136   4.361   4.742   9.132
19084TIP3    H157137   4.288   4.690   9.172
19084TIP3    H257138   4.437   4.683   9.151
19085TIP3   OH257139   3.826   3.978   7.704
19085TIP3    H157140   3.899   3.938   7.755
19085TIP3    H257141   3.752   3.916   7.718
19086TIP3   OH257142   3.884   4.228   8.164
19086TIP3    H157143   3.922   4.138   8.176
19086TIP3    H257144   3.933   4.255   8.085
19087TIP3   OH257145   4.110   4.529   8.840
19087TIP3    H157146   4.034   4.553   8.898
19087TIP3    H257147   4.137   4.620   8.811
19088TIP3   OH257148   4.551   4.143   9.426
19088TIP3    H157149   4.620   4.085   9.387
19088TIP3    H257150   4.531   4.203   9.351
19089TIP3   OH257151   3.990   3.979   8.192
19089TIP3    H157152   4.045   3.959   8.270
19089TIP3    H257153   3.932   3.900   8.188
19090TIP3   OH257154   2.694   3.967   9.008
19090TIP3    H157155   2.755   3.891   9.015
19090TIP3    H257156   2.758   4.040   8.998
19091TIP3   OH257157   2.503   4.238   9.089
19091TIP3    H157158   2.549   4.235   9.003
19091TIP3    H257159   2.523   4.328   9.119
19092TIP3   OH257160   4.440   4.285   9.221
19092TIP3    H157161   4.350   4.320   9.241
19092TIP3    H257162   4.420   4.231   9.143
19093TIP3   OH257163   4.076   3.908   7.821
19093TIP3    H157164   4.106   3.829   7.769
19093TIP3    H257165   4.146   3.972   7.800
19094TIP3   OH257166   2.480   3.743   8.584
19094TIP3    H157167   2.387   3.740   8.609
19094TIP3    H257168   2.478   3.801   8.505
19095TIP3   OH257169   3.637   5.447   8.090
19095TIP3    H157170   3.688   5.432   8.007
19095TIP3    H257171   3.695   5.510   8.136
19096TIP3   OH257172   2.746   5.241   9.480
19096TIP3    H157173   2.655   5.230   9.450
19096TIP3    H257174   2.735   5.279   9.569
19097TIP3   OH257175   2.920   5.284   9.023
19097TIP3    H157176   2.872   5.360   8.983
19097TIP3    H257177   3.005   5.297   8.977
19098TIP3   OH257178   3.363   5.525   9.158
19098TIP3    H157179   3.406   5.531   9.246
19098TIP3    H257180   3.427   5.576   9.104
19099TIP3   OH257181   3.542   5.677   9.020
19099TIP3    H157182   3.614   5.632   8.973
19099TIP3    H257183   3.594   5.736   9.080
19100TIP3   OH257184   2.596   5.533   9.052
19100TIP3    H157185   2.508   5.567   9.024
19100TIP3    H257186   2.610   5.588   9.131
19101TIP3   OH257187   2.830   5.515   8.904
19101TIP3    H157188   2.744   5.529   8.948
19101TIP3    H257189   2.812   5.551   8.814
19102TIP3   OH257190   3.256   5.544   8.704
19102TIP3    H157191   3.190   5.565   8.635
19102TIP3    H257192   3.270   5.633   8.744
19103TIP3   OH257193   3.526   5.483   8.755
19103TIP3    H157194   3.433   5.504   8.734
19103TIP3    H257195   3.573   5.556   8.709
19104TIP3   OH257196   3.728   5.675   8.667
19104TIP3    H157197   3.717   5.761   8.621
19104TIP3    H257198   3.759   5.618   8.593
19105TIP3   OH257199   2.505   5.332   8.789
19105TIP3    H157200   2.531   5.307   8.880
19105TIP3    H257201   2.578   5.290   8.739
19106TIP3   OH257202   2.700   5.204   8.649
19106TIP3    H157203   2.717   5.121   8.698
19106TIP3    H257204   2.790   5.242   8.643
19107TIP3   OH257205   2.964   5.299   8.652
19107TIP3    H157206   2.999   5.209   8.638
19107TIP3    H257207   3.011   5.322   8.735
19108TIP3   OH257208   3.536   3.950   8.735
19108TIP3    H157209   3.498   3.877   8.786
19108TIP3    H257210   3.611   3.908   8.689
19109TIP3   OH257211   4.065   3.820   8.633
19109TIP3    H157212   4.109   3.884   8.574
19109TIP3    H257213   3.979   3.863   8.649
19110TIP3   OH257214   4.162   3.951   8.404
19110TIP3    H157215   4.233   3.892   8.370
19110TIP3    H257216   4.202   4.039   8.389
19111TIP3   OH257217   2.791   3.665   8.754
19111TIP3    H157218   2.699   3.632   8.754
19111TIP3    H257219   2.840   3.579   8.751
19112TIP3   OH257220   2.580   3.534   8.404
19112TIP3    H157221   2.609   3.590   8.330
19112TIP3    H257222   2.550   3.600   8.469
19113TIP3   OH257223   3.236   3.696   8.635
19113TIP3    H157224   3.291   3.744   8.572
19113TIP3    H257225   3.262   3.736   8.719
19114TIP3   OH257226   3.767   3.841   8.612
19114TIP3    H157227   3.786   3.795   8.530
19114TIP3    H257228   3.761   3.765   8.675
19115TIP3   OH257229   3.811   3.766   8.181
19115TIP3    H157230   3.723   3.807   8.193
19115TIP3    H257231   3.798   3.681   8.227
19116TIP3   OH257232   2.294   5.106   8.183
19116TIP3    H157233   2.209   5.074   8.148
19116TIP3    H257234   2.286   5.201   8.161
19117TIP3   OH257235   2.695   3.692   8.166
19117TIP3    H157236   2.743   3.630   8.108
19117TIP3    H257237   2.768   3.746   8.201
19118TIP3   OH257238   3.206   3.869   8.264
19118TIP3    H157239   3.266   3.822   8.324
19118TIP3    H257240   3.227   3.962   8.289
19119TIP3   OH257241   3.067   5.292   7.766
19119TIP3    H157242   3.155   5.315   7.730
19119TIP3    H257243   3.045   5.218   7.705
19120TIP3   OH257244   3.777   5.411   7.855
19120TIP3    H157245   3.766   5.314   7.841
19120TIP3    H257246   3.737   5.446   7.773
19121TIP3   OH257247   2.369   5.127   7.819
19121TIP3    H157248   2.371   5.158   7.911
19121TIP3    H257249   2.458   5.087   7.808
19122TIP3   OH257250   4.055   4.050   9.498
19122TIP3    H157251   4.076   3.992   9.575
19122TIP3    H257252   4.143   4.047   9.453
19123TIP3   OH257253   4.009   5.555   9.047
19123TIP3    H157254   3.933   5.526   8.993
19123TIP3    H257255   3.994   5.652   9.046
19124TIP3   OH257256   5.276   4.925   7.813
19124TIP3    H157257   5.248   5.017   7.793
19124TIP3    H257258   5.200   4.877   7.775
19125TIP3   OH257259   5.279   4.930   8.191
19125TIP3    H157260   5.309   4.901   8.279
19125TIP3    H257261   5.237   4.850   8.156
19126TIP3   OH257262   4.576   4.824   8.563
19126TIP3    H157263   4.611   4.756   8.624
19126TIP3    H257264   4.653   4.880   8.551
19127TIP3   OH257265   5.524   5.227   7.874
19127TIP3    H157266   5.506   5.163   7.944
19127TIP3    H257267   5.551   5.306   7.924
19128TIP3   OH257268   4.552   5.234   8.284
19128TIP3    H157269   4.535   5.138   8.284
19128TIP3    H257270   4.649   5.237   8.269
19129TIP3   OH257271   4.319   4.715   8.210
19129TIP3    H157272   4.371   4.653   8.265
19129TIP3    H257273   4.383   4.786   8.194
19130TIP3   OH257274   5.169   5.694   7.891
19130TIP3    H157275   5.213   5.623   7.839
19130TIP3    H257276   5.163   5.653   7.978
19131TIP3   OH257277   5.075   5.152   8.242
19131TIP3    H157278   5.116   5.080   8.192
19131TIP3    H257279   5.158   5.200   8.267
19132TIP3   OH257280   6.090   4.473   8.238
19132TIP3    H157281   6.118   4.557   8.280
19132TIP3    H257282   6.111   4.491   8.145
19133TIP3   OH257283   5.485   4.653   8.273
19133TIP3    H157284   5.531   4.569   8.292
19133TIP3    H257285   5.457   4.639   8.181
19134TIP3   OH257286   4.826   4.315   8.241
19134TIP3    H157287   4.808   4.387   8.177
19134TIP3    H257288   4.780   4.241   8.196
19135TIP3   OH257289   5.520   4.407   7.859
19135TIP3    H157290   5.593   4.392   7.924
19135TIP3    H257291   5.571   4.442   7.784
19136TIP3   OH257292   4.454   4.513   8.349
19136TIP3    H157293   4.535   4.499   8.401
19136TIP3    H257294   4.476   4.463   8.268
19137TIP3   OH257295   4.901   4.712   8.140
19137TIP3    H157296   4.996   4.689   8.151
19137TIP3    H257297   4.864   4.628   8.106
19138TIP3   OH257298   6.162   4.681   8.410
19138TIP3    H157299   6.080   4.729   8.388
19138TIP3    H257300   6.181   4.716   8.498
19139TIP3   OH257301   4.821   4.297   8.673
19139TIP3    H157302   4.764   4.338   8.605
19139TIP3    H257303   4.770   4.319   8.753
19140TIP3   OH257304   5.153   5.139   7.689
19140TIP3    H157305   5.147   5.137   7.592
19140TIP3    H257306   5.118   5.228   7.708
19141TIP3   OH257307   4.928   5.073   8.466
19141TIP3    H157308   4.868   5.141   8.502
19141TIP3    H257309   4.972   5.122   8.393
19142TIP3   OH257310   5.730   4.409   8.033
19142TIP3    H157311   5.719   4.364   8.118
19142TIP3    H257312   5.783   4.487   8.057
19143TIP3   OH257313   4.694   4.415   8.459
19143TIP3    H157314   4.755   4.489   8.481
19143TIP3    H257315   4.744   4.375   8.384
19144TIP3   OH257316   4.758   5.268   8.564
19144TIP3    H157317   4.733   5.353   8.522
19144TIP3    H257318   4.678   5.255   8.620
19145TIP3   OH257319   4.146   4.947   7.806
19145TIP3    H157320   4.120   5.008   7.735
19145TIP3    H257321   4.166   5.014   7.877
19146TIP3   OH257322   5.592   5.474   8.041
19146TIP3    H157323   5.501   5.466   8.079
19146TIP3    H257324   5.584   5.559   7.994
19147TIP3   OH257325   5.883   4.372   8.403
19147TIP3    H157326   5.796   4.402   8.372
19147TIP3    H257327   5.943   4.405   8.333
19148TIP3   OH257328   5.177   4.015   8.384
19148TIP3    H157329   5.164   3.921   8.404
19148TIP3    H257330   5.101   4.054   8.432
19149TIP3   OH257331   5.290   5.521   7.715
19149TIP3    H157332   5.336   5.436   7.692
19149TIP3    H257333   5.352   5.584   7.673
19150TIP3   OH257334   5.423   5.302   7.625
19150TIP3    H157335   5.431   5.228   7.561
19150TIP3    H257336   5.463   5.263   7.705
19151TIP3   OH257337   5.817   5.385   8.385
19151TIP3    H157338   5.806   5.309   8.324
19151TIP3    H257339   5.798   5.461   8.325
19152TIP3   OH257340   5.107   4.778   7.641
19152TIP3    H157341   5.030   4.835   7.622
19152TIP3    H257342   5.156   4.782   7.557
19153TIP3   OH257343   5.066   4.563   7.359
19153TIP3    H157344   5.132   4.617   7.407
19153TIP3    H257345   5.126   4.503   7.310
19154TIP3   OH257346   6.012   5.023   8.230
19154TIP3    H157347   5.929   5.075   8.234
19154TIP3    H257348   6.043   5.047   8.140
19155TIP3   OH257349   5.453   4.848   7.616
19155TIP3    H157350   5.401   4.882   7.693
19155TIP3    H257351   5.541   4.833   7.659
19156TIP3   OH257352   5.691   4.901   8.526
19156TIP3    H157353   5.689   4.985   8.576
19156TIP3    H257354   5.605   4.907   8.479
19157TIP3   OH257355   4.690   4.861   8.035
19157TIP3    H157356   4.648   4.805   7.967
19157TIP3    H257357   4.768   4.808   8.061
19158TIP3   OH257358   4.815   5.262   8.180
19158TIP3    H157359   4.799   5.236   8.088
19158TIP3    H257360   4.907   5.232   8.195
19159TIP3   OH257361   4.818   4.835   8.381
19159TIP3    H157362   4.856   4.811   8.294
19159TIP3    H257363   4.865   4.919   8.403
19160TIP3   OH257364   5.350   5.469   8.161
19160TIP3    H157365   5.335   5.551   8.213
19160TIP3    H257366   5.334   5.398   8.226
19161TIP3   OH257367   4.963   5.386   8.710
19161TIP3    H157368   4.903   5.450   8.754
19161TIP3    H257369   4.898   5.335   8.658
19162TIP3   OH257370   5.295   4.717   7.437
19162TIP3    H157371   5.353   4.777   7.490
19162TIP3    H257372   5.322   4.742   7.346
19163TIP3   OH257373   4.718   4.941   8.814
19163TIP3    H157374   4.723   5.030   8.854
19163TIP3    H257375   4.622   4.925   8.819
19164TIP3   OH257376   5.039   5.403   7.719
19164TIP3    H157377   5.122   5.453   7.728
19164TIP3    H257378   4.980   5.466   7.675
19165TIP3   OH257379   4.758   5.555   8.794
19165TIP3    H157380   4.725   5.557   8.702
19165TIP3    H257381   4.677   5.532   8.845
19166TIP3   OH257382   5.812   3.961   7.488
19166TIP3    H157383   5.731   3.983   7.538
19166TIP3    H257384   5.827   4.044   7.437
19167TIP3   OH257385   4.556   4.703   7.838
19167TIP3    H157386   4.495   4.758   7.783
19167TIP3    H257387   4.531   4.614   7.813
19168TIP3   OH257388   4.334   5.087   8.745
19168TIP3    H157389   4.274   5.070   8.669
19168TIP3    H257390   4.372   4.999   8.765
19169TIP3   OH257391   4.197   5.265   8.420
19169TIP3    H157392   4.249   5.259   8.339
19169TIP3    H257393   4.180   5.360   8.427
19170TIP3   OH257394   6.056   5.733   8.432
19170TIP3    H157395   6.053   5.636   8.445
19170TIP3    H257396   5.972   5.759   8.476
19171TIP3   OH257397   5.162   5.515   8.566
19171TIP3    H157398   5.159   5.609   8.597
19171TIP3    H257399   5.090   5.477   8.621
19172TIP3   OH257400   4.920   5.644   7.519
19172TIP3    H157401   4.876   5.628   7.434
19172TIP3    H257402   4.889   5.734   7.543
19173TIP3   OH257403   4.350   5.485   7.897
19173TIP3    H157404   4.395   5.473   7.984
19173TIP3    H257405   4.289   5.410   7.898
19174TIP3   OH257406   5.133   5.535   7.158
19174TIP3    H157407   5.199   5.467   7.142
19174TIP3    H257408   5.155   5.560   7.250
19175TIP3   OH257409   5.171   5.598   7.423
19175TIP3    H157410   5.084   5.605   7.469
19175TIP3    H257411   5.225   5.556   7.491
19176TIP3   OH257412   5.944   4.861   8.707
19176TIP3    H157413   5.864   4.876   8.655
19176TIP3    H257414   5.958   4.765   8.694
19177TIP3   OH257415   4.542   5.268   8.731
19177TIP3    H157416   4.590   5.252   8.815
19177TIP3    H257417   4.466   5.207   8.739
19178TIP3   OH257418   4.940   4.093   8.515
19178TIP3    H157419   4.850   4.063   8.489
19178TIP3    H257420   4.916   4.176   8.561
19179TIP3   OH257421   5.475   4.208   8.709
19179TIP3    H157422   5.543   4.181   8.774
19179TIP3    H257423   5.391   4.188   8.756
19180TIP3   OH257424   5.712   4.637   8.626
19180TIP3    H157425   5.663   4.635   8.711
19180TIP3    H257426   5.690   4.725   8.591
19181TIP3   OH257427   5.370   4.761   7.181
19181TIP3    H157428   5.344   4.741   7.089
19181TIP3    H257429   5.433   4.834   7.166
19182TIP3   OH257430   5.083   4.142   7.486
19182TIP3    H157431   5.051   4.139   7.578
19182TIP3    H257432   5.046   4.058   7.452
19183TIP3   OH257433   4.871   4.612   8.531
19183TIP3    H157434   4.824   4.634   8.614
19183TIP3    H257435   4.855   4.693   8.478
19184TIP3   OH257436   4.753   4.490   8.047
19184TIP3    H157437   4.657   4.479   8.053
19184TIP3    H257438   4.771   4.452   7.958
19185TIP3   OH257439   5.243   4.577   7.773
19185TIP3    H157440   5.193   4.651   7.731
19185TIP3    H257441   5.301   4.550   7.699
19186TIP3   OH257442   5.421   4.857   8.859
19186TIP3    H157443   5.400   4.785   8.922
19186TIP3    H257444   5.514   4.874   8.881
19187TIP3   OH257445   5.401   4.609   8.014
19187TIP3    H157446   5.344   4.643   7.943
19187TIP3    H257447   5.434   4.528   7.969
19188TIP3   OH257448   4.691   4.638   8.742
19188TIP3    H157449   4.720   4.703   8.808
19188TIP3    H257450   4.678   4.558   8.795
19189TIP3   OH257451   4.738   4.113   7.452
19189TIP3    H157452   4.732   4.114   7.549
19189TIP3    H257453   4.662   4.168   7.427
19190TIP3   OH257454   4.288   4.177   8.302
19190TIP3    H157455   4.362   4.195   8.364
19190TIP3    H257456   4.326   4.114   8.239
19191TIP3   OH257457   4.242   4.169   7.863
19191TIP3    H157458   4.300   4.200   7.791
19191TIP3    H257459   4.157   4.194   7.825
19192TIP3   OH257460   5.411   4.854   8.437
19192TIP3    H157461   5.445   4.782   8.378
19192TIP3    H257462   5.382   4.800   8.514
19193TIP3   OH257463   5.083   4.315   8.109
19193TIP3    H157464   5.005   4.316   8.167
19193TIP3    H257465   5.156   4.316   8.173
19194TIP3   OH257466   4.502   4.354   8.116
19194TIP3    H157467   4.422   4.303   8.136
19194TIP3    H257468   4.564   4.283   8.090
19195TIP3   OH257469   4.785   4.369   7.803
19195TIP3    H157470   4.881   4.383   7.787
19195TIP3    H257471   4.744   4.393   7.717
19196TIP3   OH257472   5.577   4.392   8.311
19196TIP3    H157473   5.542   4.405   8.402
19196TIP3    H257474   5.510   4.333   8.274
19197TIP3   OH257475   4.624   4.403   7.579
19197TIP3    H157476   4.561   4.356   7.522
19197TIP3    H257477   4.681   4.445   7.511
19198TIP3   OH257478   5.746   6.081   8.529
19198TIP3    H157479   5.742   6.106   8.435
19198TIP3    H257480   5.822   6.133   8.561
19199TIP3   OH257481   4.702   5.188   8.952
19199TIP3    H157482   4.782   5.221   8.997
19199TIP3    H257483   4.637   5.194   9.025
19200TIP3   OH257484   5.165   4.642   8.203
19200TIP3    H157485   5.241   4.610   8.152
19200TIP3    H257486   5.180   4.601   8.290
19201TIP3   OH257487   4.681   4.140   8.084
19201TIP3    H157488   4.651   4.059   8.131
19201TIP3    H257489   4.737   4.103   8.015
19202TIP3   OH257490   5.142   4.539   8.502
19202TIP3    H157491   5.054   4.580   8.510
19202TIP3    H257492   5.201   4.603   8.547
19203TIP3   OH257493   4.877   4.928   7.594
19203TIP3    H157494   4.800   4.870   7.581
19203TIP3    H257495   4.860   4.965   7.684
19204TIP3   OH257496   5.780   5.168   8.219
19204TIP3    H157497   5.804   5.218   8.139
19204TIP3    H257498   5.694   5.127   8.193
19205TIP3   OH257499   5.338   4.243   7.456
19205TIP3    H157500   5.240   4.230   7.460
19205TIP3    H257501   5.349   4.339   7.476
19206TIP3   OH257502   5.273   5.248   8.590
19206TIP3    H157503   5.307   5.237   8.680
19206TIP3    H257504   5.240   5.339   8.591
19207TIP3   OH257505   5.407   4.492   7.555
19207TIP3    H157506   5.503   4.502   7.571
19207TIP3    H257507   5.386   4.573   7.504
19208TIP3   OH257508   4.556   4.925   8.268
19208TIP3    H157509   4.600   4.920   8.180
19208TIP3    H257510   4.626   4.890   8.325
19209TIP3   OH257511   5.013   5.077   7.408
19209TIP3    H157512   4.971   5.166   7.416
19209TIP3    H257513   4.965   5.026   7.477
19210TIP3   OH257514   4.452   4.874   8.881
19210TIP3    H157515   4.476   4.865   8.975
19210TIP3    H257516   4.389   4.801   8.870
19211TIP3   OH257517   5.178   4.987   8.902
19211TIP3    H157518   5.120   4.932   8.847
19211TIP3    H257519   5.267   4.956   8.872
19212TIP3   OH257520   5.438   5.503   8.489
19212TIP3    H157521   5.342   5.509   8.497
19212TIP3    H257522   5.467   5.559   8.563
19213TIP3   OH257523   5.850   4.585   7.391
19213TIP3    H157524   5.788   4.539   7.329
19213TIP3    H257525   5.844   4.674   7.351
19214TIP3   OH257526   6.067   5.439   8.473
19214TIP3    H157527   5.969   5.435   8.464
19214TIP3    H257528   6.093   5.410   8.383
19215TIP3   OH257529   5.548   5.389   7.276
19215TIP3    H157530   5.521   5.321   7.340
19215TIP3    H257531   5.544   5.337   7.193
19216TIP3   OH257532   5.545   5.031   8.141
19216TIP3    H157533   5.451   5.007   8.151
19216TIP3    H257534   5.578   4.952   8.093
19217TIP3   OH257535   4.673   5.260   7.894
19217TIP3    H157536   4.673   5.340   7.839
19217TIP3    H257537   4.579   5.244   7.904
19218TIP3   OH257538   4.246   4.567   7.597
19218TIP3    H157539   4.295   4.652   7.607
19218TIP3    H257540   4.157   4.594   7.627
19219TIP3   OH257541   4.804   5.022   7.836
19219TIP3    H157542   4.775   5.114   7.851
19219TIP3    H257543   4.769   4.978   7.915
19220TIP3   OH257544   4.942   5.602   8.360
19220TIP3    H157545   4.981   5.676   8.308
19220TIP3    H257546   5.020   5.569   8.407
19221TIP3   OH257547   4.591   5.496   7.745
19221TIP3    H157548   4.504   5.503   7.789
19221TIP3    H257549   4.622   5.589   7.748
19222TIP3   OH257550   5.328   5.236   8.321
19222TIP3    H157551   5.319   5.233   8.418
19222TIP3    H257552   5.410   5.187   8.306
19223TIP3   OH257553   5.578   5.769   8.368
19223TIP3    H157554   5.496   5.717   8.358
19223TIP3    H257555   5.565   5.836   8.296
19224TIP3   OH257556   5.653   5.617   7.023
19224TIP3    H157557   5.682   5.694   6.972
19224TIP3    H257558   5.565   5.647   7.052
19225TIP3   OH257559   4.659   4.381   8.884
19225TIP3    H157560   4.564   4.399   8.898
19225TIP3    H257561   4.683   4.331   8.964
19226TIP3   OH257562   5.470   5.086   7.463
19226TIP3    H157563   5.463   4.999   7.505
19226TIP3    H257564   5.544   5.073   7.402
19227TIP3   OH257565   4.381   5.480   8.523
19227TIP3    H157566   4.419   5.393   8.540
19227TIP3    H257567   4.430   5.536   8.585
19228TIP3   OH257568   4.665   5.113   7.201
19228TIP3    H157569   4.692   5.023   7.174
19228TIP3    H257570   4.651   5.101   7.297
19229TIP3   OH257571   4.618   5.114   7.475
19229TIP3    H157572   4.693   5.093   7.531
19229TIP3    H257573   4.616   5.212   7.479
19230TIP3   OH257574   4.349   4.809   7.679
19230TIP3    H157575   4.285   4.861   7.732
19230TIP3    H257576   4.368   4.874   7.608
19231TIP3   OH257577   5.501   4.445   8.569
19231TIP3    H157578   5.581   4.484   8.607
19231TIP3    H257579   5.488   4.364   8.624
19232TIP3   OH257580   5.380   4.196   7.735
19232TIP3    H157581   5.367   4.219   7.641
19232TIP3    H257582   5.420   4.278   7.770
19233TIP3   OH257583   4.879   5.313   7.424
19233TIP3    H157584   4.792   5.341   7.458
19233TIP3    H257585   4.900   5.386   7.365
19234TIP3   OH257586   5.065   4.376   7.837
19234TIP3    H157587   5.130   4.447   7.816
19234TIP3    H257588   5.075   4.369   7.934
19235TIP3   OH257589   5.338   4.692   8.645
19235TIP3    H157590   5.361   4.748   8.722
19235TIP3    H257591   5.395   4.614   8.657
19236TIP3   OH257592   5.214   4.100   7.937
19236TIP3    H157593   5.209   4.176   7.998
19236TIP3    H257594   5.275   4.136   7.868
19237TIP3   OH257595   4.621   5.386   7.490
19237TIP3    H157596   4.593   5.457   7.428
19237TIP3    H257597   4.606   5.430   7.577
19238TIP3   OH257598   4.724   4.102   7.729
19238TIP3    H157599   4.726   4.194   7.763
19238TIP3    H257600   4.820   4.082   7.736
19239TIP3   OH257601   5.979   4.594   8.627
19239TIP3    H157602   5.881   4.591   8.632
19239TIP3    H257603   5.992   4.559   8.537
19240TIP3   OH257604   5.630   4.788   8.015
19240TIP3    H157605   5.554   4.728   8.025
19240TIP3    H257606   5.702   4.741   8.062
19241TIP3   OH257607   4.340   5.013   7.485
19241TIP3    H157608   4.396   5.092   7.498
19241TIP3    H257609   4.393   4.967   7.416
19242TIP3   OH257610   4.268   4.292   7.624
19242TIP3    H157611   4.281   4.388   7.610
19242TIP3    H257612   4.216   4.268   7.547
19243TIP3   OH257613   5.599   5.744   7.962
19243TIP3    H157614   5.556   5.791   7.887
19243TIP3    H257615   5.693   5.763   7.941
19244TIP3   OH257616   4.675   4.011   8.490
19244TIP3    H157617   4.646   3.978   8.403
19244TIP3    H257618   4.668   3.931   8.546
19245TIP3   OH257619   4.371   5.774   8.945
19245TIP3    H157620   4.458   5.775   8.990
19245TIP3    H257621   4.353   5.679   8.940
19246TIP3   OH257622   4.848   5.735   8.990
19246TIP3    H157623   4.944   5.726   8.994
19246TIP3    H257624   4.827   5.677   8.914
19247TIP3   OH257625   4.833   5.314   7.112
19247TIP3    H157626   4.779   5.242   7.151
19247TIP3    H257627   4.913   5.265   7.084
19248TIP3   OH257628   5.492   5.644   8.719
19248TIP3    H157629   5.484   5.575   8.788
19248TIP3    H257630   5.568   5.696   8.750
19249TIP3   OH257631   4.500   5.179   9.144
19249TIP3    H157632   4.517   5.083   9.144
19249TIP3    H257633   4.413   5.183   9.098
19250TIP3   OH257634   4.479   4.825   7.337
19250TIP3    H157635   4.540   4.802   7.409
19250TIP3    H257636   4.544   4.832   7.263
19251TIP3   OH257637   5.106   5.264   8.917
19251TIP3    H157638   5.068   5.286   8.829
19251TIP3    H257639   5.139   5.173   8.905
19252TIP3   OH257640   4.974   5.025   7.140
19252TIP3    H157641   4.998   5.044   7.234
19252TIP3    H257642   4.980   4.927   7.140
19253TIP3   OH257643   5.601   5.275   8.522
19253TIP3    H157644   5.677   5.317   8.477
19253TIP3    H257645   5.532   5.343   8.508
19254TIP3   OH257646   4.617   4.912   9.125
19254TIP3    H157647   4.696   4.866   9.096
19254TIP3    H257648   4.645   4.947   9.212
19255TIP3   OH257649   4.677   4.734   7.551
19255TIP3    H157650   4.669   4.693   7.638
19255TIP3    H257651   4.721   4.664   7.499
19256TIP3   OH257652   4.954   4.796   8.783
19256TIP3    H157653   4.878   4.858   8.786
19256TIP3    H257654   5.005   4.831   8.707
19257TIP3   OH257655   4.789   4.527   7.401
19257TIP3    H157656   4.763   4.533   7.306
19257TIP3    H257657   4.887   4.533   7.393
19258TIP3   OH257658   5.470   5.198   8.919
19258TIP3    H157659   5.551   5.179   8.871
19258TIP3    H257660   5.471   5.133   8.991
19259TIP3   OH257661   5.613   4.874   7.058
19259TIP3    H157662   5.576   4.846   6.973
19259TIP3    H257663   5.582   4.968   7.060
19260TIP3   OH257664   5.078   4.588   8.912
19260TIP3    H157665   5.080   4.508   8.855
19260TIP3    H257666   5.035   4.654   8.853
19261TIP3   OH257667   5.081   4.372   8.720
19261TIP3    H157668   5.109   4.416   8.638
19261TIP3    H257669   4.987   4.350   8.700
19262TIP3   OH257670   5.107   4.908   8.592
19262TIP3    H157671   5.192   4.921   8.548
19262TIP3    H257672   5.051   4.976   8.548
19263TIP3   OH257673   5.690   4.876   8.973
19263TIP3    H157674   5.742   4.794   8.978
19263TIP3    H257675   5.755   4.939   8.939
19264TIP3   OH257676   5.731   5.128   8.707
19264TIP3    H157677   5.673   5.182   8.649
19264TIP3    H257678   5.818   5.150   8.668
19265TIP3   OH257679   4.958   4.698   9.145
19265TIP3    H157680   4.890   4.629   9.157
19265TIP3    H257681   4.992   4.676   9.055
19266TIP3   OH257682   5.214   4.137   8.787
19266TIP3    H157683   5.165   4.219   8.764
19266TIP3    H257684   5.145   4.068   8.774
19267TIP3   OH257685   5.340   4.640   9.002
19267TIP3    H157686   5.327   4.628   9.098
19267TIP3    H257687   5.250   4.616   8.971
19268TIP3   OH257688   5.579   4.589   8.857
19268TIP3    H157689   5.503   4.592   8.919
19268TIP3    H257690   5.652   4.560   8.914
19269TIP3   OH257691   5.808   4.532   9.009
19269TIP3    H157692   5.820   4.436   9.026
19269TIP3    H257693   5.804   4.570   9.099
19270TIP3   OH257694   4.800   4.475   9.194
19270TIP3    H157695   4.807   4.383   9.161
19270TIP3    H257696   4.837   4.464   9.284
19271TIP3   OH257697   5.308   4.146   9.044
19271TIP3    H157698   5.375   4.075   9.037
19271TIP3    H257699   5.268   4.141   8.955
19272TIP3   OH257700   5.373   4.362   9.202
19272TIP3    H157701   5.352   4.290   9.137
19272TIP3    H257702   5.295   4.421   9.194
19273TIP3   OH257703   4.596   5.588   7.301
19273TIP3    H157704   4.692   5.584   7.283
19273TIP3    H257705   4.567   5.640   7.224
19274TIP3   OH257706   4.070   4.973   7.506
19274TIP3    H157707   4.165   4.997   7.503
19274TIP3    H257708   4.071   4.883   7.469
19275TIP3   OH257709   3.983   5.585   7.924
19275TIP3    H157710   3.918   5.518   7.894
19275TIP3    H257711   4.028   5.535   7.997
19276TIP3   OH257712   4.108   5.453   8.120
19276TIP3    H157713   4.126   5.358   8.102
19276TIP3    H257714   4.178   5.477   8.183
19277TIP3   OH257715   5.854   5.831   7.920
19277TIP3    H157716   5.879   5.870   8.006
19277TIP3    H257717   5.911   5.879   7.858
19278TIP3   OH257718   5.880   5.857   8.203
19278TIP3    H157719   5.837   5.769   8.196
19278TIP3    H257720   5.956   5.834   8.258
19279TIP3   OH257721   5.929   5.530   8.776
19279TIP3    H157722   5.854   5.541   8.839
19279TIP3    H257723   5.969   5.619   8.778
19280TIP3   OH257724   5.747   5.036   7.391
19280TIP3    H157725   5.806   5.108   7.360
19280TIP3    H257726   5.794   5.006   7.471
19281TIP3   OH257727   5.878   4.908   7.600
19281TIP3    H157728   5.807   4.871   7.657
19281TIP3    H257729   5.937   4.952   7.664
19282TIP3   OH257730   5.928   5.305   8.032
19282TIP3    H157731   5.977   5.241   7.979
19282TIP3    H257732   5.921   5.381   7.971
19283TIP3   OH257733   5.757   5.604   8.227
19283TIP3    H157734   5.685   5.650   8.276
19283TIP3    H257735   5.708   5.559   8.155
19284TIP3   OH257736   5.806   4.817   7.241
19284TIP3    H157737   5.737   4.828   7.172
19284TIP3    H257738   5.782   4.894   7.297
19285TIP3   OH257739   5.684   4.489   7.199
19285TIP3    H157740   5.638   4.540   7.132
19285TIP3    H257741   5.655   4.398   7.179
19286TIP3   OH257742   5.688   4.771   7.747
19286TIP3    H157743   5.695   4.674   7.740
19286TIP3    H257744   5.673   4.785   7.843
19287TIP3   OH257745   4.315   4.828   8.490
19287TIP3    H157746   4.317   4.828   8.393
19287TIP3    H257747   4.412   4.836   8.510
19288TIP3   OH257748   5.974   5.194   8.601
19288TIP3    H157749   6.047   5.130   8.590
19288TIP3    H257750   5.999   5.264   8.539
19289TIP3   OH257751   6.159   4.998   8.615
19289TIP3    H157752   6.084   4.949   8.656
19289TIP3    H257753   6.232   4.934   8.631
19290TIP3   OH257754   5.627   4.221   7.176
19290TIP3    H157755   5.699   4.197   7.238
19290TIP3    H257756   5.552   4.168   7.207
19291TIP3   OH257757   5.682   4.486   7.640
19291TIP3    H157758   5.724   4.398   7.653
19291TIP3    H257759   5.738   4.522   7.570
19292TIP3   OH257760   5.844   4.657   8.135
19292TIP3    H157761   5.929   4.684   8.093
19292TIP3    H257762   5.857   4.697   8.223
19293TIP3   OH257763   5.913   4.804   8.366
19293TIP3    H157764   5.835   4.839   8.413
19293TIP3    H257765   5.945   4.884   8.320
19294TIP3   OH257766   4.538   4.546   9.193
19294TIP3    H157767   4.635   4.531   9.183
19294TIP3    H257768   4.509   4.456   9.217
19295TIP3   OH257769   6.366   4.396   8.922
19295TIP3    H157770   6.424   4.330   8.878
19295TIP3    H257771   6.334   4.449   8.846
19296TIP3   OH257772   5.792   4.236   7.676
19296TIP3    H157773   5.840   4.219   7.760
19296TIP3    H257774   5.731   4.159   7.675
19297TIP3   OH257775   4.494   4.219   8.475
19297TIP3    H157776   4.554   4.145   8.496
19297TIP3    H257777   4.554   4.294   8.483
19298TIP3   OH257778   4.262   4.486   8.584
19298TIP3    H157779   4.306   4.473   8.497
19298TIP3    H257780   4.278   4.582   8.593
19299TIP3   OH257781   6.234   4.533   8.729
19299TIP3    H157782   6.147   4.575   8.748
19299TIP3    H257783   6.203   4.462   8.669
19300TIP3   OH257784   5.871   4.169   7.311
19300TIP3    H157785   5.911   4.099   7.256
19300TIP3    H257786   5.936   4.242   7.304
19301TIP3   OH257787   4.278   4.001   8.072
19301TIP3    H157788   4.184   3.989   8.093
19301TIP3    H257789   4.274   4.068   8.000
19302TIP3   OH257790   5.435   5.702   7.574
19302TIP3    H157791   5.484   5.684   7.491
19302TIP3    H257792   5.490   5.769   7.617
19303TIP3   OH257793   4.538   5.502   8.960
19303TIP3    H157794   4.444   5.479   8.944
19303TIP3    H257795   4.545   5.496   9.055
19304TIP3   OH257796   4.716   5.540   8.510
19304TIP3    H157797   4.667   5.615   8.470
19304TIP3    H257798   4.802   5.554   8.464
19305TIP3   OH257799   5.158   5.782   8.645
19305TIP3    H157800   5.200   5.784   8.734
19305TIP3    H257801   5.224   5.834   8.593
19306TIP3   OH257802   5.338   5.935   8.507
19306TIP3    H157803   5.410   5.887   8.463
19306TIP3    H257804   5.389   5.993   8.568
19307TIP3   OH257805   6.133   4.297   8.606
19307TIP3    H157806   6.043   4.292   8.570
19307TIP3    H257807   6.164   4.204   8.594
19308TIP3   OH257808   4.394   5.800   8.534
19308TIP3    H157809   4.303   5.828   8.508
19308TIP3    H257810   4.402   5.845   8.620
19309TIP3   OH257811   4.628   5.773   8.390
19309TIP3    H157812   4.541   5.787   8.435
19309TIP3    H257813   4.608   5.806   8.301
19310TIP3   OH257814   5.053   5.801   8.190
19310TIP3    H157815   4.985   5.821   8.122
19310TIP3    H257816   5.066   5.890   8.231
19311TIP3   OH257817   5.322   5.741   8.241
19311TIP3    H157818   5.228   5.759   8.222
19311TIP3    H257819   5.366   5.816   8.197
19312TIP3   OH257820   5.529   5.934   8.155
19312TIP3    H157821   5.515   6.019   8.108
19312TIP3    H257822   5.555   5.875   8.080
19313TIP3   OH257823   4.302   5.587   8.282
19313TIP3    H157824   4.332   5.564   8.373
19313TIP3    H257825   4.375   5.546   8.230
19314TIP3   OH257826   4.493   5.460   8.134
19314TIP3    H157827   4.510   5.377   8.183
19314TIP3    H257828   4.583   5.498   8.129
19315TIP3   OH257829   4.761   5.557   8.138
19315TIP3    H157830   4.794   5.467   8.123
19315TIP3    H257831   4.806   5.578   8.222
19316TIP3   OH257832   5.336   4.211   8.222
19316TIP3    H157833   5.295   4.140   8.274
19316TIP3    H257834   5.412   4.166   8.180
19317TIP3   OH257835   5.860   4.092   8.131
19317TIP3    H157836   5.898   4.143   8.056
19317TIP3    H257837   5.765   4.113   8.124
19318TIP3   OH257838   5.956   4.190   7.895
19318TIP3    H157839   6.029   4.139   7.854
19318TIP3    H257840   5.989   4.282   7.880
19319TIP3   OH257841   4.586   3.921   8.240
19319TIP3    H157842   4.495   3.885   8.243
19319TIP3    H257843   4.637   3.837   8.237
19320TIP3   OH257844   4.373   3.789   7.889
19320TIP3    H157845   4.408   3.843   7.817
19320TIP3    H257846   4.348   3.856   7.955
19321TIP3   OH257847   5.029   3.955   8.124
19321TIP3    H157848   5.086   4.002   8.060
19321TIP3    H257849   5.060   3.991   8.208
19322TIP3   OH257850   5.574   4.100   8.107
19322TIP3    H157851   5.577   4.064   8.017
19322TIP3    H257852   5.562   4.019   8.161
19323TIP3   OH257853   5.607   4.023   7.668
19323TIP3    H157854   5.521   4.067   7.680
19323TIP3    H257855   5.592   3.938   7.714
19324TIP3   OH257856   4.102   5.351   7.637
19324TIP3    H157857   4.009   5.326   7.624
19324TIP3    H257858   4.093   5.437   7.679
19325TIP3   OH257859   4.491   3.950   7.656
19325TIP3    H157860   4.538   3.887   7.598
19325TIP3    H257861   4.565   4.004   7.689
19326TIP3   OH257862   5.002   4.125   7.752
19326TIP3    H157863   5.064   4.079   7.811
19326TIP3    H257864   5.023   4.218   7.776
19327TIP3   OH257865   4.866   5.549   7.250
19327TIP3    H157866   4.953   5.571   7.212
19327TIP3    H257867   4.842   5.473   7.191
19328TIP3   OH257868   5.580   5.659   7.341
19328TIP3    H157869   5.577   5.562   7.321
19328TIP3    H257870   5.539   5.694   7.260
19329TIP3   OH257871   4.792   4.198   9.135
19329TIP3    H157872   4.762   4.127   9.195
19329TIP3    H257873   4.887   4.201   9.158
19330TIP3   OH257874   5.043   4.202   9.250
19330TIP3    H157875   5.128   4.174   9.212
19330TIP3    H257876   5.030   4.134   9.321
19331TIP3   OH257877   4.165   5.383   7.310
19331TIP3    H157878   4.162   5.399   7.406
19331TIP3    H257879   4.254   5.345   7.297
19332TIP3   OH257880   5.869   4.261   9.038
19332TIP3    H157881   5.889   4.230   9.129
19332TIP3    H257882   5.958   4.256   8.996
19333TIP3   OH257883   5.808   5.812   8.530
19333TIP3    H157884   5.729   5.781   8.481
19333TIP3    H257885   5.789   5.908   8.534
19334TIP3   OH257886   7.074   5.185   7.298
19334TIP3    H157887   7.044   5.276   7.275
19334TIP3    H257888   6.999   5.134   7.262
19335TIP3   OH257889   7.076   5.187   7.678
19335TIP3    H157890   7.105   5.154   7.765
19335TIP3    H257891   7.033   5.108   7.640
19336TIP3   OH257892   6.373   5.080   8.044
19336TIP3    H157893   6.406   5.013   8.106
19336TIP3    H257894   6.452   5.136   8.033
19337TIP3   OH257895   7.319   5.487   7.360
19337TIP3    H157896   7.301   5.418   7.425
19337TIP3    H257897   7.346   5.562   7.415
19338TIP3   OH257898   6.346   5.491   7.770
19338TIP3    H157899   6.337   5.393   7.771
19338TIP3    H257900   6.443   5.499   7.759
19339TIP3   OH257901   6.051   4.690   7.553
19339TIP3    H157902   6.004   4.774   7.570
19339TIP3    H257903   5.980   4.640   7.508
19340TIP3   OH257904   6.112   4.983   7.730
19340TIP3    H157905   6.162   4.905   7.761
19340TIP3    H257906   6.165   5.012   7.654
19341TIP3   OH257907   6.968   5.951   7.377
19341TIP3    H157908   7.012   5.879   7.326
19341TIP3    H257909   6.956   5.909   7.463
19342TIP3   OH257910   6.871   5.410   7.728
19342TIP3    H157911   6.909   5.335   7.679
19342TIP3    H257912   6.955   5.456   7.752
19343TIP3   OH257913   7.887   4.729   7.724
19343TIP3    H157914   7.915   4.814   7.763
19343TIP3    H257915   7.908   4.743   7.630
19344TIP3   OH257916   7.283   4.910   7.759
19344TIP3    H157917   7.328   4.825   7.777
19344TIP3    H257918   7.253   4.897   7.668
19345TIP3   OH257919   6.623   4.571   7.724
19345TIP3    H157920   6.603   4.644   7.661
19345TIP3    H257921   6.574   4.498   7.680
19346TIP3   OH257922   7.316   4.665   7.346
19346TIP3    H157923   7.390   4.648   7.409
19346TIP3    H257924   7.368   4.697   7.269
19347TIP3   OH257925   6.256   4.772   7.832
19347TIP3    H157926   6.339   4.753   7.879
19347TIP3    H257927   6.268   4.717   7.752
19348TIP3   OH257928   6.696   4.971   7.626
19348TIP3    H157929   6.790   4.946   7.637
19348TIP3    H257930   6.657   4.887   7.592
19349TIP3   OH257931   7.961   4.939   7.895
19349TIP3    H157932   7.877   4.986   7.872
19349TIP3    H257933   7.973   4.968   7.986
19350TIP3   OH257934   6.619   4.555   8.159
19350TIP3    H157935   6.560   4.592   8.090
19350TIP3    H257936   6.566   4.575   8.239
19351TIP3   OH257937   6.964   5.405   7.167
19351TIP3    H157938   6.923   5.387   7.081
19351TIP3    H257939   6.920   5.489   7.192
19352TIP3   OH257940   6.726   5.331   7.953
19352TIP3    H157941   6.664   5.397   7.989
19352TIP3    H257942   6.767   5.379   7.879
19353TIP3   OH257943   7.525   4.666   7.520
19353TIP3    H157944   7.522   4.614   7.601
19353TIP3    H257945   7.580   4.742   7.545
19354TIP3   OH257946   6.491   4.669   7.943
19354TIP3    H157947   6.552   4.742   7.965
19354TIP3    H257948   6.539   4.629   7.867
19355TIP3   OH257949   6.555   5.525   8.052
19355TIP3    H157950   6.529   5.610   8.011
19355TIP3    H257951   6.475   5.509   8.107
19356TIP3   OH257952   5.948   5.210   7.296
19356TIP3    H157953   5.909   5.222   7.206
19356TIP3    H257954   5.972   5.302   7.320
19357TIP3   OH257955   7.389   5.731   7.529
19357TIP3    H157956   7.299   5.722   7.568
19357TIP3    H257957   7.380   5.816   7.481
19358TIP3   OH257958   7.678   4.632   7.892
19358TIP3    H157959   7.590   4.656   7.859
19358TIP3    H257960   7.737   4.662   7.820
19359TIP3   OH257961   6.975   4.273   7.873
19359TIP3    H157962   6.960   4.178   7.889
19359TIP3    H257963   6.897   4.311   7.919
19360TIP3   OH257964   7.089   5.776   7.202
19360TIP3    H157965   7.138   5.694   7.180
19360TIP3    H257966   7.150   5.842   7.161
19361TIP3   OH257967   7.231   5.561   7.108
19361TIP3    H157968   7.196   5.482   7.066
19361TIP3    H257969   7.267   5.525   7.192
19362TIP3   OH257970   7.615   5.642   7.871
19362TIP3    H157971   7.601   5.565   7.811
19362TIP3    H257972   7.595   5.717   7.811
19363TIP3   OH257973   6.906   5.037   7.129
19363TIP3    H157974   6.826   5.089   7.108
19363TIP3    H257975   6.951   5.034   7.043
19364TIP3   OH257976   6.863   4.821   6.843
19364TIP3    H157977   6.930   4.873   6.892
19364TIP3    H257978   6.921   4.758   6.796
19365TIP3   OH257979   7.809   5.282   7.718
19365TIP3    H157980   7.724   5.333   7.721
19365TIP3    H257981   7.838   5.304   7.627
19366TIP3   OH257982   7.251   5.120   7.099
19366TIP3    H157983   7.197   5.144   7.178
19366TIP3    H257984   7.335   5.093   7.142
19367TIP3   OH257985   7.487   5.158   8.012
19367TIP3    H157986   7.483   5.243   8.059
19367TIP3    H257987   7.400   5.159   7.966
19368TIP3   OH257988   6.483   5.116   7.517
19368TIP3    H157989   6.442   5.059   7.449
19368TIP3    H257990   6.560   5.062   7.545
19369TIP3   OH257991   6.613   5.527   7.665
19369TIP3    H157992   6.591   5.491   7.578
19369TIP3    H257993   6.702   5.491   7.681
19370TIP3   OH257994   6.623   5.087   7.873
19370TIP3    H157995   6.653   5.066   7.782
19370TIP3    H257996   6.664   5.174   7.889
19371TIP3   OH257997   7.148   5.726   7.649
19371TIP3    H157998   7.132   5.806   7.702
19371TIP3    H257999   7.131   5.653   7.711
19372TIP3   OH258000   6.759   5.644   8.197
19372TIP3    H158001   6.698   5.707   8.241
19372TIP3    H258002   6.694   5.591   8.145
19373TIP3   OH258003   7.091   4.978   6.925
19373TIP3    H158004   7.151   5.037   6.976
19373TIP3    H258005   7.117   5.001   6.832
19374TIP3   OH258006   6.515   5.198   8.300
19374TIP3    H158007   6.518   5.287   8.341
19374TIP3    H258008   6.418   5.180   8.306
19375TIP3   OH258009   6.837   5.656   7.204
19375TIP3    H158010   6.916   5.711   7.215
19375TIP3    H258011   6.775   5.716   7.159
19376TIP3   OH258012   6.554   5.812   8.282
19376TIP3    H158013   6.519   5.813   8.191
19376TIP3    H258014   6.474   5.789   8.335
19377TIP3   OH258015   7.611   4.222   6.971
19377TIP3    H158016   7.530   4.241   7.023
19377TIP3    H258017   7.598   4.286   6.897
19378TIP3   OH258018   6.351   4.960   7.320
19378TIP3    H158019   6.286   5.009   7.265
19378TIP3    H258020   6.305   4.876   7.332
19379TIP3   OH258021   7.407   5.585   6.523
19379TIP3    H158022   7.415   5.682   6.508
19379TIP3    H258023   7.500   5.556   6.510
19380TIP3   OH258024   6.131   5.344   8.229
19380TIP3    H158025   6.065   5.325   8.159
19380TIP3    H258026   6.168   5.255   8.249
19381TIP3   OH258027   5.986   5.533   7.868
19381TIP3    H158028   6.081   5.534   7.852
19381TIP3    H258029   5.973   5.617   7.915
19382TIP3   OH258030   7.851   5.990   7.918
19382TIP3    H158031   7.849   5.893   7.928
19382TIP3    H258032   7.766   6.013   7.962
19383TIP3   OH258033   6.958   5.771   8.054
19383TIP3    H158034   6.955   5.865   8.085
19383TIP3    H258035   6.884   5.733   8.107
19384TIP3   OH258036   6.719   5.903   7.004
19384TIP3    H158037   6.672   5.883   6.921
19384TIP3    H258038   6.685   5.991   7.028
19385TIP3   OH258039   6.156   5.752   7.386
19385TIP3    H158040   6.199   5.740   7.474
19385TIP3    H258041   6.102   5.671   7.382
19386TIP3   OH258042   6.919   5.805   6.643
19386TIP3    H158043   6.978   5.734   6.607
19386TIP3    H258044   6.954   5.814   6.734
19387TIP3   OH258045   6.970   5.852   6.913
19387TIP3    H158046   6.881   5.863   6.953
19387TIP3    H258047   7.019   5.810   6.986
19388TIP3   OH258048   7.739   5.118   8.192
19388TIP3    H158049   7.659   5.132   8.139
19388TIP3    H258050   7.755   5.023   8.179
19389TIP3   OH258051   6.337   5.525   8.216
19389TIP3    H158052   6.385   5.509   8.300
19389TIP3    H258053   6.262   5.463   8.223
19390TIP3   OH258054   6.736   4.349   8.002
19390TIP3    H158055   6.647   4.319   7.975
19390TIP3    H258056   6.711   4.432   8.047
19391TIP3   OH258057   7.270   4.466   8.196
19391TIP3    H158058   7.337   4.436   8.260
19391TIP3    H258059   7.185   4.445   8.241
19392TIP3   OH258060   7.511   4.895   8.116
19392TIP3    H158061   7.458   4.892   8.199
19392TIP3    H258062   7.485   4.981   8.077
19393TIP3   OH258063   7.167   5.025   6.669
19393TIP3    H158064   7.135   4.998   6.581
19393TIP3    H258065   7.251   5.069   6.646
19394TIP3   OH258066   6.872   4.407   6.970
19394TIP3    H158067   6.844   4.399   7.064
19394TIP3    H258068   6.849   4.318   6.938
19395TIP3   OH258069   6.669   4.865   8.021
19395TIP3    H158070   6.617   4.886   8.101
19395TIP3    H258071   6.653   4.946   7.966
19396TIP3   OH258072   6.553   4.751   7.534
19396TIP3    H158073   6.459   4.727   7.551
19396TIP3    H258074   6.565   4.711   7.445
19397TIP3   OH258075   7.042   4.836   7.263
19397TIP3    H158076   6.991   4.908   7.219
19397TIP3    H258077   7.098   4.805   7.189
19398TIP3   OH258078   7.217   5.115   8.348
19398TIP3    H158079   7.194   5.042   8.410
19398TIP3    H258080   7.311   5.127   8.369
19399TIP3   OH258081   7.199   4.866   7.500
19399TIP3    H158082   7.138   4.894   7.428
19399TIP3    H258083   7.234   4.785   7.457
19400TIP3   OH258084   6.489   4.895   8.228
19400TIP3    H158085   6.510   4.961   8.296
19400TIP3    H258086   6.476   4.814   8.281
19401TIP3   OH258087   6.528   4.360   6.939
19401TIP3    H158088   6.525   4.366   7.036
19401TIP3    H258089   6.458   4.424   6.914
19402TIP3   OH258090   6.080   4.413   7.812
19402TIP3    H158091   6.155   4.448   7.865
19402TIP3    H258092   6.122   4.388   7.728
19403TIP3   OH258093   6.051   4.398   7.327
19403TIP3    H158094   6.094   4.438   7.248
19403TIP3    H258095   5.989   4.471   7.349
19404TIP3   OH258096   7.213   5.111   7.925
19404TIP3    H158097   7.244   5.039   7.864
19404TIP3    H258098   7.180   5.057   8.000
19405TIP3   OH258099   6.881   4.572   7.595
19405TIP3    H158100   6.798   4.572   7.648
19405TIP3    H258101   6.949   4.572   7.665
19406TIP3   OH258102   6.313   4.630   7.604
19406TIP3    H158103   6.219   4.638   7.576
19406TIP3    H258104   6.336   4.539   7.578
19407TIP3   OH258105   6.582   4.624   7.293
19407TIP3    H158106   6.676   4.641   7.272
19407TIP3    H258107   6.535   4.648   7.210
19408TIP3   OH258108   7.373   4.649   7.802
19408TIP3    H158109   7.333   4.662   7.891
19408TIP3    H258110   7.309   4.589   7.761
19409TIP3   OH258111   6.428   4.655   7.070
19409TIP3    H158112   6.355   4.615   7.020
19409TIP3    H258113   6.479   4.696   6.997
19410TIP3   OH258114   7.541   6.337   8.015
19410TIP3    H158115   7.536   6.360   7.921
19410TIP3    H258116   7.618   6.389   8.044
19411TIP3   OH258117   6.499   5.446   8.438
19411TIP3    H158118   6.577   5.479   8.485
19411TIP3    H258119   6.432   5.448   8.510
19412TIP3   OH258120   6.963   4.902   7.692
19412TIP3    H158121   7.035   4.865   7.639
19412TIP3    H258122   6.974   4.857   7.777
19413TIP3   OH258123   6.485   4.390   7.572
19413TIP3    H158124   6.450   4.310   7.618
19413TIP3    H258125   6.535   4.351   7.499
19414TIP3   OH258126   6.938   4.796   7.987
19414TIP3    H158127   6.848   4.834   7.996
19414TIP3    H258128   6.994   4.860   8.033
19415TIP3   OH258129   6.677   5.189   7.079
19415TIP3    H158130   6.604   5.125   7.066
19415TIP3    H258131   6.657   5.223   7.169
19416TIP3   OH258132   7.575   5.425   7.707
19416TIP3    H158133   7.598   5.475   7.625
19416TIP3    H258134   7.490   5.383   7.681
19417TIP3   OH258135   7.133   4.502   6.947
19417TIP3    H158136   7.036   4.488   6.945
19417TIP3    H258137   7.143   4.597   6.966
19418TIP3   OH258138   7.077   5.509   8.074
19418TIP3    H158139   7.094   5.489   8.167
19418TIP3    H258140   7.036   5.597   8.079
19419TIP3   OH258141   7.202   4.751   7.046
19419TIP3    H158142   7.300   4.753   7.057
19419TIP3    H258143   7.186   4.829   6.989
19420TIP3   OH258144   6.370   5.213   7.754
19420TIP3    H158145   6.405   5.185   7.667
19420TIP3    H258146   6.408   5.147   7.813
19421TIP3   OH258147   6.820   5.340   6.899
19421TIP3    H158148   6.773   5.426   6.904
19421TIP3    H258149   6.766   5.285   6.960
19422TIP3   OH258150   6.250   5.129   8.365
19422TIP3    H158151   6.266   5.116   8.461
19422TIP3    H258152   6.177   5.066   8.348
19423TIP3   OH258153   6.973   5.246   8.388
19423TIP3    H158154   6.912   5.189   8.337
19423TIP3    H258155   7.060   5.211   8.357
19424TIP3   OH258156   7.236   5.767   7.971
19424TIP3    H158157   7.140   5.764   7.982
19424TIP3    H258158   7.262   5.820   8.050
19425TIP3   OH258159   7.645   4.836   6.880
19425TIP3    H158160   7.583   4.785   6.822
19425TIP3    H258161   7.638   4.922   6.835
19426TIP3   OH258162   7.865   5.700   7.958
19426TIP3    H158163   7.767   5.693   7.950
19426TIP3    H258164   7.891   5.668   7.869
19427TIP3   OH258165   7.349   5.658   6.788
19427TIP3    H158166   7.318   5.587   6.848
19427TIP3    H258167   7.358   5.612   6.703
19428TIP3   OH258168   7.342   5.287   7.627
19428TIP3    H158169   7.248   5.262   7.638
19428TIP3    H258170   7.375   5.207   7.580
19429TIP3   OH258171   6.469   5.516   7.380
19429TIP3    H158172   6.467   5.597   7.325
19429TIP3    H258173   6.374   5.497   7.387
19430TIP3   OH258174   6.033   4.820   7.083
19430TIP3    H158175   6.075   4.907   7.100
19430TIP3    H258176   5.953   4.826   7.140
19431TIP3   OH258177   6.606   5.281   7.323
19431TIP3    H158178   6.571   5.371   7.340
19431TIP3    H258179   6.567   5.232   7.398
19432TIP3   OH258180   6.738   5.859   7.847
19432TIP3    H158181   6.777   5.932   7.795
19432TIP3    H258182   6.816   5.825   7.893
19433TIP3   OH258183   6.389   5.753   7.232
19433TIP3    H158184   6.303   5.762   7.276
19433TIP3    H258185   6.421   5.846   7.233
19434TIP3   OH258186   7.126   5.494   7.806
19434TIP3    H158187   7.117   5.491   7.904
19434TIP3    H258188   7.203   5.438   7.791
19435TIP3   OH258189   7.102   5.387   6.689
19435TIP3    H158190   7.154   5.361   6.768
19435TIP3    H258191   7.013   5.359   6.716
19436TIP3   OH258192   7.375   6.027   7.856
19436TIP3    H158193   7.295   5.971   7.849
19436TIP3    H258194   7.359   6.091   7.783
19437TIP3   OH258195   7.440   5.861   6.508
19437TIP3    H158196   7.475   5.932   6.453
19437TIP3    H258197   7.360   5.906   6.543
19438TIP3   OH258198   6.458   4.638   8.375
19438TIP3    H158199   6.362   4.641   8.386
19438TIP3    H258200   6.485   4.577   8.446
19439TIP3   OH258201   7.261   5.322   6.907
19439TIP3    H158202   7.251   5.254   6.976
19439TIP3    H258203   7.358   5.318   6.893
19440TIP3   OH258204   6.177   5.723   8.005
19440TIP3    H158205   6.229   5.648   8.038
19440TIP3    H258206   6.205   5.793   8.065
19441TIP3   OH258207   6.468   5.366   6.686
19441TIP3    H158208   6.480   5.273   6.659
19441TIP3    H258209   6.449   5.356   6.782
19442TIP3   OH258210   6.418   5.372   6.957
19442TIP3    H158211   6.485   5.347   7.022
19442TIP3    H258212   6.418   5.470   6.966
19443TIP3   OH258213   6.148   5.068   7.164
19443TIP3    H158214   6.079   5.109   7.220
19443TIP3    H258215   6.157   5.136   7.095
19444TIP3   OH258216   7.294   4.706   8.061
19444TIP3    H158217   7.379   4.739   8.094
19444TIP3    H258218   7.281   4.623   8.112
19445TIP3   OH258219   7.171   4.454   7.223
19445TIP3    H158220   7.161   4.473   7.127
19445TIP3    H258221   7.214   4.536   7.255
19446TIP3   OH258222   6.680   5.571   6.910
19446TIP3    H158223   6.592   5.595   6.945
19446TIP3    H258224   6.693   5.643   6.847
19447TIP3   OH258225   6.864   4.633   7.323
19447TIP3    H158226   6.929   4.703   7.304
19447TIP3    H258227   6.871   4.626   7.421
19448TIP3   OH258228   7.134   4.950   8.130
19448TIP3    H158229   7.157   5.002   8.209
19448TIP3    H258230   7.189   4.870   8.139
19449TIP3   OH258231   7.009   4.358   7.426
19449TIP3    H158232   7.000   4.436   7.482
19449TIP3    H258233   7.069   4.393   7.356
19450TIP3   OH258234   6.423   5.644   6.978
19450TIP3    H158235   6.392   5.713   6.914
19450TIP3    H258236   6.405   5.687   7.064
19451TIP3   OH258237   6.522   4.360   7.216
19451TIP3    H158238   6.521   4.451   7.251
19451TIP3    H258239   6.618   4.342   7.224
19452TIP3   OH258240   7.777   4.851   8.112
19452TIP3    H158241   7.679   4.850   8.119
19452TIP3    H258242   7.787   4.810   8.025
19453TIP3   OH258243   7.426   5.045   7.501
19453TIP3    H158244   7.350   4.985   7.509
19453TIP3    H258245   7.497   4.996   7.547
19454TIP3   OH258246   6.148   5.274   6.966
19454TIP3    H158247   6.211   5.348   6.973
19454TIP3    H258248   6.193   5.220   6.898
19455TIP3   OH258249   6.081   4.550   7.101
19455TIP3    H158250   6.085   4.648   7.100
19455TIP3    H258251   5.994   4.534   7.063
19456TIP3   OH258252   7.395   6.003   7.450
19456TIP3    H158253   7.351   6.049   7.375
19456TIP3    H258254   7.489   6.020   7.427
19457TIP3   OH258255   6.471   4.270   7.976
19457TIP3    H158256   6.440   4.237   7.889
19457TIP3    H258257   6.460   4.191   8.032
19458TIP3   OH258258   6.014   5.496   7.358
19458TIP3    H158259   5.938   5.518   7.414
19458TIP3    H258260   5.983   5.531   7.271
19459TIP3   OH258261   6.167   6.031   8.428
19459TIP3    H158262   6.253   6.031   8.475
19459TIP3    H258263   6.145   5.937   8.427
19460TIP3   OH258264   6.649   5.992   8.475
19460TIP3    H158265   6.744   5.974   8.477
19460TIP3    H258266   6.621   5.934   8.401
19461TIP3   OH258267   6.630   5.570   6.600
19461TIP3    H158268   6.573   5.499   6.638
19461TIP3    H258269   6.705   5.518   6.566
19462TIP3   OH258270   7.287   5.902   8.207
19462TIP3    H158271   7.279   5.832   8.275
19462TIP3    H258272   7.364   5.953   8.238
19463TIP3   OH258273   7.066   5.610   6.513
19463TIP3    H158274   7.109   5.545   6.571
19463TIP3    H258275   7.122   5.609   6.433
19464TIP3   OH258276   6.297   5.436   8.628
19464TIP3    H158277   6.312   5.340   8.632
19464TIP3    H258278   6.209   5.441   8.585
19465TIP3   OH258279   6.277   5.085   6.820
19465TIP3    H158280   6.332   5.057   6.895
19465TIP3    H258281   6.345   5.090   6.749
19466TIP3   OH258282   6.905   5.522   8.401
19466TIP3    H158283   6.861   5.541   8.316
19466TIP3    H258284   6.934   5.429   8.392
19467TIP3   OH258285   6.788   5.285   6.629
19467TIP3    H158286   6.788   5.298   6.726
19467TIP3    H258287   6.785   5.187   6.624
19468TIP3   OH258288   7.399   5.531   8.011
19468TIP3    H158289   7.472   5.576   7.965
19468TIP3    H258290   7.326   5.594   7.996
19469TIP3   OH258291   6.415   5.170   8.613
19469TIP3    H158292   6.492   5.119   8.587
19469TIP3    H258293   6.442   5.204   8.701
19470TIP3   OH258294   6.485   4.992   7.044
19470TIP3    H158295   6.454   4.951   7.127
19470TIP3    H258296   6.519   4.915   6.995
19471TIP3   OH258297   6.754   5.057   8.275
19471TIP3    H158298   6.674   5.114   8.275
19471TIP3    H258299   6.802   5.090   8.195
19472TIP3   OH258300   6.584   4.783   6.885
19472TIP3    H158301   6.557   4.790   6.791
19472TIP3    H258302   6.681   4.789   6.877
19473TIP3   OH258303   7.269   5.458   8.408
19473TIP3    H158304   7.345   5.430   8.354
19473TIP3    H258305   7.265   5.389   8.476
19474TIP3   OH258306   7.404   5.116   6.548
19474TIP3    H158307   7.383   5.068   6.466
19474TIP3    H258308   7.371   5.206   6.524
19475TIP3   OH258309   6.877   4.844   8.397
19475TIP3    H158310   6.875   4.765   8.339
19475TIP3    H258311   6.833   4.911   8.340
19476TIP3   OH258312   6.878   4.629   8.207
19476TIP3    H158313   6.905   4.672   8.123
19476TIP3    H258314   6.784   4.607   8.188
19477TIP3   OH258315   6.904   5.168   8.081
19477TIP3    H158316   6.987   5.176   8.031
19477TIP3    H258317   6.846   5.232   8.035
19478TIP3   OH258318   7.489   5.132   8.462
19478TIP3    H158319   7.536   5.048   8.461
19478TIP3    H258320   7.554   5.192   8.422
19479TIP3   OH258321   7.527   5.387   8.199
19479TIP3    H158322   7.469   5.440   8.139
19479TIP3    H258323   7.615   5.406   8.158
19480TIP3   OH258324   6.757   4.952   8.631
19480TIP3    H158325   6.686   4.886   8.644
19480TIP3    H258326   6.787   4.931   8.541
19481TIP3   OH258327   7.010   4.394   8.275
19481TIP3    H158328   6.961   4.476   8.251
19481TIP3    H258329   6.941   4.326   8.261
19482TIP3   OH258330   7.135   4.896   8.489
19482TIP3    H158331   7.117   4.885   8.584
19482TIP3    H258332   7.047   4.873   8.454
19483TIP3   OH258333   7.376   4.851   8.346
19483TIP3    H158334   7.299   4.850   8.406
19483TIP3    H258335   7.448   4.818   8.403
19484TIP3   OH258336   7.607   4.790   8.497
19484TIP3    H158337   7.618   4.694   8.513
19484TIP3    H258338   7.602   4.827   8.587
19485TIP3   OH258339   6.591   4.735   8.682
19485TIP3    H158340   6.596   4.644   8.647
19485TIP3    H258341   6.627   4.722   8.772
19486TIP3   OH258342   7.104   4.402   8.532
19486TIP3    H158343   7.170   4.330   8.524
19486TIP3    H258344   7.063   4.399   8.443
19487TIP3   OH258345   7.169   4.616   8.692
19487TIP3    H158346   7.147   4.547   8.626
19487TIP3    H258347   7.092   4.677   8.683
19488TIP3   OH258348   6.392   5.846   6.791
19488TIP3    H158349   6.487   5.842   6.770
19488TIP3    H258350   6.360   5.895   6.713
19489TIP3   OH258351   5.893   5.209   7.032
19489TIP3    H158352   5.979   5.236   6.995
19489TIP3    H258353   5.865   5.136   6.973
19490TIP3   OH258354   5.781   5.840   7.418
19490TIP3    H158355   5.717   5.776   7.380
19490TIP3    H258356   5.828   5.782   7.483
19491TIP3   OH258357   5.919   5.694   7.607
19491TIP3    H158358   5.906   5.619   7.666
19491TIP3    H258359   5.972   5.754   7.663
19492TIP3   OH258360   7.649   6.090   7.406
19492TIP3    H158361   7.677   6.126   7.492
19492TIP3    H258362   7.710   6.134   7.344
19493TIP3   OH258363   7.677   6.114   7.690
19493TIP3    H158364   7.631   6.028   7.682
19493TIP3    H258365   7.753   6.087   7.744
19494TIP3   OH258366   7.725   5.788   8.262
19494TIP3    H158367   7.651   5.796   8.326
19494TIP3    H258368   7.764   5.877   8.266
19495TIP3   OH258369   7.540   5.302   6.881
19495TIP3    H158370   7.608   5.366   6.852
19495TIP3    H258371   7.583   5.263   6.960
19496TIP3   OH258372   7.667   5.171   7.085
19496TIP3    H158373   7.601   5.127   7.142
19496TIP3    H258374   7.731   5.208   7.151
19497TIP3   OH258375   7.725   5.563   7.519
19497TIP3    H158376   7.774   5.496   7.468
19497TIP3    H258377   7.717   5.636   7.455
19498TIP3   OH258378   7.553   5.863   7.713
19498TIP3    H158379   7.480   5.905   7.762
19498TIP3    H258380   7.505   5.815   7.642
19499TIP3   OH258381   7.605   5.077   6.731
19499TIP3    H158382   7.533   5.078   6.664
19499TIP3    H258383   7.577   5.153   6.786
19500TIP3   OH258384   7.472   4.735   6.694
19500TIP3    H158385   7.430   4.748   6.608
19500TIP3    H258386   7.482   4.638   6.698
19501TIP3   OH258387   7.481   5.027   7.229
19501TIP3    H158388   7.488   4.930   7.219
19501TIP3    H258389   7.468   5.037   7.326
19502TIP3   OH258390   6.108   5.095   7.981
19502TIP3    H158391   6.105   5.066   7.887
19502TIP3    H258392   6.205   5.099   7.995
19503TIP3   OH258393   7.771   5.451   8.090
19503TIP3    H158394   7.843   5.385   8.079
19503TIP3    H258395   7.793   5.518   8.023
19504TIP3   OH258396   7.956   5.255   8.105
19504TIP3    H158397   7.880   5.206   8.143
19504TIP3    H258398   8.028   5.191   8.120
19505TIP3   OH258399   7.479   4.746   7.125
19505TIP3    H158400   7.517   4.656   7.142
19505TIP3    H258401   7.535   4.773   7.051
19506TIP3   OH258402   7.640   4.916   7.622
19506TIP3    H158403   7.726   4.941   7.580
19506TIP3    H258404   7.655   4.954   7.711
19507TIP3   OH258405   7.711   5.062   7.854
19507TIP3    H158406   7.631   5.095   7.900
19507TIP3    H258407   7.742   5.142   7.807
19508TIP3   OH258408   6.324   4.784   8.651
19508TIP3    H158409   6.421   4.779   8.653
19508TIP3    H258410   6.301   4.699   8.693
19509TIP3   OH258411   8.161   4.651   8.409
19509TIP3    H158412   8.220   4.586   8.365
19509TIP3    H258413   8.131   4.705   8.332
19510TIP3   OH258414   7.581   4.497   7.171
19510TIP3    H158415   7.632   4.474   7.251
19510TIP3    H258416   7.526   4.417   7.160
19511TIP3   OH258417   6.287   4.479   7.986
19511TIP3    H158418   6.350   4.404   7.993
19511TIP3    H258419   6.348   4.554   7.977
19512TIP3   OH258420   6.090   4.751   8.057
19512TIP3    H158421   6.138   4.746   7.972
19512TIP3    H258422   6.113   4.841   8.086
19513TIP3   OH258423   8.029   4.790   8.215
19513TIP3    H158424   7.942   4.831   8.229
19513TIP3    H258425   8.003   4.717   8.155
19514TIP3   OH258426   6.072   4.254   7.555
19514TIP3    H158427   5.979   4.253   7.583
19514TIP3    H258428   6.069   4.314   7.477
19515TIP3   OH258429   7.235   5.958   7.065
19515TIP3    H158430   7.282   5.943   6.980
19515TIP3    H258431   7.288   6.029   7.104
19516TIP3   OH258432   6.293   4.335   8.372
19516TIP3    H158433   6.241   4.332   8.454
19516TIP3    H258434   6.228   4.374   8.310
19517TIP3   OH258435   6.334   5.760   8.449
19517TIP3    H158436   6.241   5.737   8.430
19517TIP3    H258437   6.339   5.747   8.544
19518TIP3   OH258438   6.512   5.797   7.997
19518TIP3    H158439   6.462   5.871   7.958
19518TIP3    H258440   6.597   5.811   7.951
19519TIP3   OH258441   6.955   6.038   8.134
19519TIP3    H158442   6.997   6.041   8.222
19519TIP3    H258443   7.020   6.090   8.081
19520TIP3   OH258444   7.133   6.192   7.993
19520TIP3    H158445   7.203   6.142   7.949
19520TIP3    H258446   7.186   6.248   8.054
19521TIP3   OH258447   7.928   4.553   8.094
19521TIP3    H158448   7.839   4.546   8.056
19521TIP3    H258449   7.961   4.460   8.081
19522TIP3   OH258450   6.188   6.052   8.021
19522TIP3    H158451   6.099   6.084   7.995
19522TIP3    H258452   6.196   6.094   8.108
19523TIP3   OH258453   6.424   6.031   7.878
19523TIP3    H158454   6.337   6.044   7.922
19523TIP3    H258455   6.404   6.064   7.788
19524TIP3   OH258456   6.850   6.059   7.676
19524TIP3    H158457   6.780   6.076   7.610
19524TIP3    H258458   6.861   6.147   7.716
19525TIP3   OH258459   7.118   6.000   7.729
19525TIP3    H158460   7.024   6.015   7.709
19525TIP3    H258461   7.160   6.073   7.681
19526TIP3   OH258462   7.330   6.193   7.642
19526TIP3    H158463   7.311   6.276   7.593
19526TIP3    H258464   7.352   6.131   7.568
19527TIP3   OH258465   6.098   5.847   7.764
19527TIP3    H158466   6.125   5.820   7.855
19527TIP3    H258467   6.170   5.803   7.713
19528TIP3   OH258468   6.292   5.718   7.623
19528TIP3    H158469   6.309   5.634   7.672
19528TIP3    H258470   6.383   5.755   7.616
19529TIP3   OH258471   6.559   5.813   7.624
19529TIP3    H158472   6.590   5.721   7.610
19529TIP3    H258473   6.603   5.833   7.709
19530TIP3   OH258474   7.137   4.470   7.715
19530TIP3    H158475   7.093   4.398   7.763
19530TIP3    H258476   7.207   4.423   7.667
19531TIP3   OH258477   7.657   4.355   7.623
19531TIP3    H158478   7.695   4.402   7.545
19531TIP3    H258479   7.561   4.368   7.610
19532TIP3   OH258480   7.754   4.446   7.385
19532TIP3    H158481   7.826   4.396   7.340
19532TIP3    H258482   7.784   4.538   7.367
19533TIP3   OH258483   6.383   4.177   7.728
19533TIP3    H158484   6.290   4.145   7.729
19533TIP3    H258485   6.431   4.092   7.724
19534TIP3   OH258486   6.171   4.048   7.383
19534TIP3    H158487   6.193   4.106   7.309
19534TIP3    H258488   6.139   4.113   7.450
19535TIP3   OH258489   6.827   4.209   7.609
19535TIP3    H158490   6.884   4.257   7.546
19535TIP3    H258491   6.852   4.250   7.692
19536TIP3   OH258492   7.374   4.357   7.592
19536TIP3    H158493   7.372   4.322   7.502
19536TIP3    H258494   7.360   4.275   7.645
19537TIP3   OH258495   7.407   4.277   7.158
19537TIP3    H158496   7.320   4.318   7.157
19537TIP3    H258497   7.388   4.192   7.203
19538TIP3   OH258498   5.892   5.618   7.153
19538TIP3    H158499   5.810   5.577   7.119
19538TIP3    H258500   5.873   5.710   7.130
19539TIP3   OH258501   6.290   4.212   7.136
19539TIP3    H158502   6.348   4.137   7.121
19539TIP3    H258503   6.353   4.277   7.174
19540TIP3   OH258504   6.799   4.381   7.238
19540TIP3    H158505   6.861   4.336   7.297
19540TIP3    H258506   6.820   4.474   7.262
19541TIP3   OH258507   6.660   5.805   6.739
19541TIP3    H158508   6.747   5.829   6.701
19541TIP3    H258509   6.637   5.732   6.678
19542TIP3   OH258510   7.378   5.925   6.831
19542TIP3    H158511   7.370   5.827   6.818
19542TIP3    H258512   7.332   5.958   6.751
19543TIP3   OH258513   6.590   4.458   8.620
19543TIP3    H158514   6.556   4.387   8.677
19543TIP3    H258515   6.685   4.459   8.646
19544TIP3   OH258516   6.840   4.457   8.739
19544TIP3    H158517   6.923   4.430   8.696
19544TIP3    H258518   6.827   4.385   8.804
19545TIP3   OH258519   5.962   5.645   6.792
19545TIP3    H158520   5.955   5.664   6.887
19545TIP3    H258521   6.051   5.603   6.785
19546TIP3   OH258522   7.667   4.518   8.527
19546TIP3    H158523   7.691   4.487   8.616
19546TIP3    H258524   7.753   4.515   8.480
19547TIP3   OH258525   7.603   6.068   8.019
19547TIP3    H158526   7.525   6.036   7.969
19547TIP3    H258527   7.582   6.164   8.022
19548TIP3   OH258528   8.870   5.442   6.784
19548TIP3    H158529   8.840   5.533   6.762
19548TIP3    H258530   8.794   5.391   6.753
19549TIP3   OH258531   8.870   5.442   7.166
19549TIP3    H158532   8.901   5.413   7.253
19549TIP3    H258533   8.828   5.362   7.131
19550TIP3   OH258534   8.169   5.338   7.531
19550TIP3    H158535   8.201   5.269   7.593
19550TIP3    H258536   8.250   5.388   7.516
19551TIP3   OH258537   9.112   5.742   6.848
19551TIP3    H158538   9.097   5.667   6.907
19551TIP3    H258539   9.146   5.809   6.909
19552TIP3   OH258540   8.143   5.748   7.258
19552TIP3    H158541   8.133   5.651   7.258
19552TIP3    H258542   8.239   5.756   7.246
19553TIP3   OH258543   7.846   4.953   7.041
19553TIP3    H158544   7.790   5.032   7.052
19553TIP3    H258545   7.784   4.893   6.997
19554TIP3   OH258546   7.907   5.238   7.216
19554TIP3    H158547   7.954   5.159   7.249
19554TIP3    H258548   7.958   5.261   7.137
19555TIP3   OH258549   8.766   6.206   6.866
19555TIP3    H158550   8.809   6.135   6.815
19555TIP3    H258551   8.750   6.164   6.951
19556TIP3   OH258552   8.667   5.667   7.215
19556TIP3    H158553   8.705   5.591   7.168
19556TIP3    H258554   8.751   5.712   7.239
19557TIP3   OH258555   9.682   4.985   7.210
19557TIP3    H158556   9.709   5.069   7.252
19557TIP3    H258557   9.708   5.001   7.118
19558TIP3   OH258558   9.080   5.168   7.246
19558TIP3    H158559   9.124   5.083   7.264
19558TIP3    H258560   9.049   5.153   7.155
19559TIP3   OH258561   8.421   4.828   7.211
19559TIP3    H158562   8.398   4.900   7.148
19559TIP3    H258563   8.374   4.754   7.167
19560TIP3   OH258564   9.113   4.922   6.832
19560TIP3    H158565   9.185   4.905   6.898
19560TIP3    H258566   9.167   4.954   6.757
19561TIP3   OH258567   8.051   5.028   7.318
19561TIP3    H158568   8.135   5.007   7.364
19561TIP3    H258569   8.061   4.973   7.238
19562TIP3   OH258570   8.491   5.228   7.114
19562TIP3    H158571   8.585   5.202   7.124
19562TIP3    H258572   8.452   5.144   7.080
19563TIP3   OH258573   9.752   5.191   7.384
19563TIP3    H158574   9.670   5.242   7.366
19563TIP3    H258575   9.786   5.237   7.464
19564TIP3   OH258576   8.415   4.813   7.646
19564TIP3    H158577   8.356   4.847   7.577
19564TIP3    H258578   8.362   4.831   7.726
19565TIP3   OH258579   8.758   5.661   6.655
19565TIP3    H158580   8.719   5.644   6.568
19565TIP3    H258581   8.716   5.746   6.678
19566TIP3   OH258582   8.522   5.587   7.440
19566TIP3    H158583   8.460   5.654   7.476
19566TIP3    H258584   8.564   5.636   7.366
19567TIP3   OH258585   9.321   4.924   7.006
19567TIP3    H158586   9.318   4.870   7.085
19567TIP3    H258587   9.376   4.999   7.033
19568TIP3   OH258588   8.287   4.926   7.429
19568TIP3    H158589   8.350   4.998   7.451
19568TIP3    H258590   8.335   4.885   7.353
19569TIP3   OH258591   8.351   5.782   7.540
19569TIP3    H158592   8.325   5.867   7.498
19569TIP3    H258593   8.271   5.766   7.595
19570TIP3   OH258594   7.744   5.471   6.774
19570TIP3    H158595   7.701   5.497   6.690
19570TIP3    H258596   7.773   5.557   6.809
19571TIP3   OH258597   9.182   5.977   7.018
19571TIP3    H158598   9.093   5.970   7.060
19571TIP3    H258599   9.162   6.027   6.938
19572TIP3   OH258600   9.474   4.886   7.377
19572TIP3    H158601   9.387   4.913   7.344
19572TIP3    H258602   9.534   4.918   7.306
19573TIP3   OH258603   8.773   4.530   7.362
19573TIP3    H158604   8.756   4.435   7.375
19573TIP3    H258605   8.694   4.568   7.407
19574TIP3   OH258606   8.891   6.036   6.692
19574TIP3    H158607   8.936   5.952   6.667
19574TIP3    H258608   8.953   6.101   6.650
19575TIP3   OH258609   9.025   5.818   6.596
19575TIP3    H158610   8.997   5.739   6.550
19575TIP3    H258611   9.061   5.781   6.680
19576TIP3   OH258612   9.406   5.898   7.364
19576TIP3    H158613   9.402   5.820   7.305
19576TIP3    H258614   9.395   5.972   7.300
19577TIP3   OH258615   8.701   5.292   6.615
19577TIP3    H158616   8.621   5.345   6.595
19577TIP3    H258617   8.748   5.295   6.530
19578TIP3   OH258618   8.663   5.074   6.327
19578TIP3    H158619   8.723   5.127   6.383
19578TIP3    H258620   8.729   5.023   6.276
19579TIP3   OH258621   9.608   5.539   7.203
19579TIP3    H158622   9.524   5.591   7.209
19579TIP3    H258623   9.634   5.560   7.111
19580TIP3   OH258624   9.048   5.375   6.586
19580TIP3    H158625   8.994   5.399   6.665
19580TIP3    H258626   9.132   5.349   6.629
19581TIP3   OH258627   9.283   5.413   7.499
19581TIP3    H158628   9.282   5.499   7.545
19581TIP3    H258629   9.196   5.417   7.454
19582TIP3   OH258630   8.280   5.373   7.003
19582TIP3    H158631   8.238   5.316   6.935
19582TIP3    H258632   8.356   5.319   7.032
19583TIP3   OH258633   8.409   5.784   7.152
19583TIP3    H158634   8.388   5.746   7.066
19583TIP3    H258635   8.499   5.748   7.169
19584TIP3   OH258636   8.418   5.344   7.360
19584TIP3    H158637   8.448   5.321   7.270
19584TIP3    H258638   8.460   5.431   7.376
19585TIP3   OH258639   8.942   5.981   7.134
19585TIP3    H158640   8.923   6.061   7.186
19585TIP3    H258641   8.925   5.909   7.198
19586TIP3   OH258642   8.553   5.903   7.685
19586TIP3    H158643   8.491   5.965   7.728
19586TIP3    H258644   8.491   5.849   7.633
19587TIP3   OH258645   8.888   5.234   6.412
19587TIP3    H158646   8.948   5.293   6.464
19587TIP3    H258647   8.915   5.257   6.320
19588TIP3   OH258648   8.311   5.455   7.787
19588TIP3    H158649   8.313   5.544   7.828
19588TIP3    H258650   8.215   5.436   7.792
19589TIP3   OH258651   8.634   5.913   6.687
19589TIP3    H158652   8.711   5.971   6.705
19589TIP3    H258653   8.571   5.974   6.646
19590TIP3   OH258654   8.348   6.075   7.771
19590TIP3    H158655   8.316   6.073   7.679
19590TIP3    H258656   8.267   6.049   7.821
19591TIP3   OH258657   9.409   4.476   6.463
19591TIP3    H158658   9.324   4.491   6.510
19591TIP3    H258659   9.418   4.558   6.411
19592TIP3   OH258660   8.148   5.217   6.806
19592TIP3    H158661   8.079   5.261   6.752
19592TIP3    H258662   8.110   5.130   6.819
19593TIP3   OH258663   9.205   5.842   6.012
19593TIP3    H158664   9.214   5.938   5.994
19593TIP3    H258665   9.297   5.811   5.998
19594TIP3   OH258666   7.928   5.601   7.715
19594TIP3    H158667   7.861   5.581   7.646
19594TIP3    H258668   7.964   5.513   7.736
19595TIP3   OH258669   7.781   5.792   7.350
19595TIP3    H158670   7.877   5.788   7.338
19595TIP3    H258671   7.771   5.874   7.401
19596TIP3   OH258672   8.754   6.027   7.540
19596TIP3    H158673   8.750   6.121   7.565
19596TIP3    H258674   8.681   5.989   7.594
19597TIP3   OH258675   8.516   6.160   6.490
19597TIP3    H158676   8.467   6.141   6.408
19597TIP3    H258677   8.481   6.247   6.516
19598TIP3   OH258678   7.952   6.007   6.874
19598TIP3    H158679   7.998   5.997   6.960
19598TIP3    H258680   7.895   5.928   6.874
19599TIP3   OH258681   8.716   6.061   6.130
19599TIP3    H158682   8.774   5.990   6.093
19599TIP3    H258683   8.751   6.069   6.221
19600TIP3   OH258684   8.768   6.110   6.401
19600TIP3    H158685   8.678   6.122   6.440
19600TIP3    H258686   8.812   6.060   6.472
19601TIP3   OH258687   9.544   5.380   7.670
19601TIP3    H158688   9.463   5.392   7.619
19601TIP3    H258689   9.558   5.283   7.663
19602TIP3   OH258690   8.132   5.785   7.705
19602TIP3    H158691   8.183   5.764   7.787
19602TIP3    H258692   8.058   5.721   7.710
19603TIP3   OH258693   8.533   4.606   7.489
19603TIP3    H158694   8.444   4.574   7.460
19603TIP3    H258695   8.506   4.688   7.534
19604TIP3   OH258696   9.066   4.724   7.683
19604TIP3    H158697   9.133   4.692   7.747
19604TIP3    H258698   8.981   4.702   7.728
19605TIP3   OH258699   9.304   5.150   7.600
19605TIP3    H158700   9.253   5.150   7.684
19605TIP3    H258701   9.282   5.237   7.562
19606TIP3   OH258702   8.963   5.280   6.156
19606TIP3    H158703   8.931   5.255   6.067
19606TIP3    H258704   9.047   5.324   6.133
19607TIP3   OH258705   8.466   5.122   7.508
19607TIP3    H158706   8.412   5.142   7.588
19607TIP3    H258707   8.450   5.202   7.454
19608TIP3   OH258708   8.346   5.009   7.023
19608TIP3    H158709   8.253   4.981   7.040
19608TIP3    H258710   8.360   4.970   6.934
19609TIP3   OH258711   8.841   5.095   6.749
19609TIP3    H158712   8.787   5.165   6.706
19609TIP3    H258713   8.895   5.064   6.674
19610TIP3   OH258714   9.012   5.373   7.838
19610TIP3    H158715   8.990   5.299   7.899
19610TIP3    H258716   9.108   5.379   7.851
19611TIP3   OH258717   8.996   5.122   6.987
19611TIP3    H158718   8.935   5.151   6.916
19611TIP3    H258719   9.031   5.041   6.944
19612TIP3   OH258720   8.285   5.151   7.715
19612TIP3    H158721   8.308   5.215   7.784
19612TIP3    H258722   8.271   5.069   7.766
19613TIP3   OH258723   7.872   4.673   7.302
19613TIP3    H158724   7.954   4.703   7.346
19613TIP3    H258725   7.902   4.642   7.214
19614TIP3   OH258726   7.886   4.687   6.839
19614TIP3    H158727   7.913   4.707   6.747
19614TIP3    H258728   7.800   4.731   6.842
19615TIP3   OH258729   9.007   5.368   7.410
19615TIP3    H158730   9.039   5.296   7.350
19615TIP3    H258731   8.975   5.314   7.486
19616TIP3   OH258732   8.678   4.831   7.080
19616TIP3    H158733   8.594   4.829   7.131
19616TIP3    H258734   8.744   4.828   7.151
19617TIP3   OH258735   8.107   4.885   7.090
19617TIP3    H158736   8.014   4.894   7.061
19617TIP3    H258737   8.129   4.794   7.063
19618TIP3   OH258738   8.378   4.888   6.781
19618TIP3    H158739   8.472   4.895   6.757
19618TIP3    H258740   8.330   4.906   6.697
19619TIP3   OH258741   9.167   4.906   7.288
19619TIP3    H158742   9.127   4.918   7.377
19619TIP3    H258743   9.103   4.845   7.248
19620TIP3   OH258744   8.222   4.917   6.560
19620TIP3    H158745   8.145   4.871   6.522
19620TIP3    H258746   8.267   4.946   6.478
19621TIP3   OH258747   8.294   5.705   7.924
19621TIP3    H158748   8.373   5.734   7.973
19621TIP3    H258749   8.229   5.702   7.997
19622TIP3   OH258750   8.759   5.160   7.180
19622TIP3    H158751   8.829   5.119   7.127
19622TIP3    H258752   8.767   5.114   7.265
19623TIP3   OH258753   8.287   4.645   7.059
19623TIP3    H158754   8.248   4.567   7.104
19623TIP3    H258755   8.323   4.607   6.978
19624TIP3   OH258756   8.735   5.054   7.471
19624TIP3    H158757   8.644   5.090   7.483
19624TIP3    H258758   8.791   5.117   7.519
19625TIP3   OH258759   8.472   5.445   6.564
19625TIP3    H158760   8.400   5.379   6.553
19625TIP3    H258761   8.452   5.479   6.655
19626TIP3   OH258762   9.374   5.683   7.193
19626TIP3    H158763   9.398   5.733   7.112
19626TIP3    H258764   9.288   5.641   7.167
19627TIP3   OH258765   8.919   4.765   6.423
19627TIP3    H158766   8.826   4.773   6.446
19627TIP3    H258767   8.955   4.853   6.446
19628TIP3   OH258768   8.867   5.762   7.561
19628TIP3    H158769   8.893   5.745   7.651
19628TIP3    H258770   8.834   5.853   7.564
19629TIP3   OH258771   9.003   5.004   6.525
19629TIP3    H158772   9.099   5.012   6.545
19629TIP3    H258773   8.985   5.085   6.474
19630TIP3   OH258774   8.167   5.472   7.240
19630TIP3    H158775   8.202   5.442   7.153
19630TIP3    H258776   8.202   5.404   7.299
19631TIP3   OH258777   8.616   5.595   6.386
19631TIP3    H158778   8.569   5.682   6.391
19631TIP3    H258779   8.562   5.541   6.447
19632TIP3   OH258780   8.044   5.387   7.853
19632TIP3    H158781   8.060   5.371   7.948
19632TIP3    H258782   7.974   5.323   7.833
19633TIP3   OH258783   8.769   5.503   7.875
19633TIP3    H158784   8.707   5.446   7.825
19633TIP3    H258785   8.855   5.468   7.844
19634TIP3   OH258786   9.031   6.015   7.459
19634TIP3    H158787   8.934   6.021   7.470
19634TIP3    H258788   9.061   6.073   7.532
19635TIP3   OH258789   9.439   5.097   6.367
19635TIP3    H158790   9.377   5.052   6.305
19635TIP3    H258791   9.438   5.185   6.324
19636TIP3   OH258792   9.660   5.939   7.457
19636TIP3    H158793   9.564   5.949   7.439
19636TIP3    H258794   9.689   5.916   7.366
19637TIP3   OH258795   9.140   5.914   6.274
19637TIP3    H158796   9.118   5.840   6.332
19637TIP3    H258797   9.156   5.871   6.188
19638TIP3   OH258798   9.137   5.545   7.111
19638TIP3    H158799   9.043   5.519   7.124
19638TIP3    H258800   9.171   5.465   7.067
19639TIP3   OH258801   8.265   5.773   6.867
19639TIP3    H158802   8.264   5.854   6.812
19639TIP3    H258803   8.171   5.754   6.874
19640TIP3   OH258804   7.827   5.075   6.569
19640TIP3    H158805   7.873   5.159   6.590
19640TIP3    H258806   7.750   5.079   6.630
19641TIP3   OH258807   8.402   5.538   6.809
19641TIP3    H158808   8.367   5.627   6.828
19641TIP3    H258809   8.365   5.487   6.883
19642TIP3   OH258810   8.534   6.116   7.334
19642TIP3    H158811   8.573   6.189   7.282
19642TIP3    H258812   8.612   6.081   7.379
19643TIP3   OH258813   8.186   6.009   6.718
19643TIP3    H158814   8.099   6.019   6.762
19643TIP3    H258815   8.218   6.102   6.720
19644TIP3   OH258816   8.921   5.750   7.292
19644TIP3    H158817   8.912   5.747   7.390
19644TIP3    H258818   9.000   5.696   7.278
19645TIP3   OH258819   8.897   5.644   6.177
19645TIP3    H158820   8.950   5.618   6.256
19645TIP3    H258821   8.809   5.616   6.206
19646TIP3   OH258822   9.153   6.292   7.359
19646TIP3    H158823   9.079   6.238   7.326
19646TIP3    H258824   9.158   6.362   7.291
19647TIP3   OH258825   9.235   6.117   5.995
19647TIP3    H158826   9.274   6.188   5.941
19647TIP3    H258827   9.155   6.163   6.027
19648TIP3   OH258828   8.254   4.896   7.861
19648TIP3    H158829   8.156   4.898   7.870
19648TIP3    H258830   8.279   4.833   7.930
19649TIP3   OH258831   9.057   5.580   6.396
19649TIP3    H158832   9.048   5.510   6.464
19649TIP3    H258833   9.154   5.575   6.380
19650TIP3   OH258834   7.972   5.979   7.492
19650TIP3    H158835   8.023   5.902   7.522
19650TIP3    H258836   8.005   6.048   7.552
19651TIP3   OH258837   8.264   5.623   6.175
19651TIP3    H158838   8.276   5.531   6.147
19651TIP3    H258839   8.243   5.612   6.270
19652TIP3   OH258840   8.209   5.628   6.447
19652TIP3    H158841   8.279   5.602   6.507
19652TIP3    H258842   8.212   5.726   6.454
19653TIP3   OH258843   7.944   5.323   6.651
19653TIP3    H158844   7.876   5.366   6.708
19653TIP3    H258845   7.955   5.392   6.583
19654TIP3   OH258846   9.088   4.964   7.549
19654TIP3    H158847   9.176   4.996   7.577
19654TIP3    H258848   9.078   4.880   7.599
19655TIP3   OH258849   8.966   4.716   6.711
19655TIP3    H158850   8.963   4.736   6.616
19655TIP3    H258851   9.012   4.795   6.748
19656TIP3   OH258852   8.475   5.826   6.396
19656TIP3    H158853   8.387   5.852   6.432
19656TIP3    H258854   8.489   5.898   6.333
19657TIP3   OH258855   8.663   4.889   6.807
19657TIP3    H158856   8.728   4.961   6.793
19657TIP3    H258857   8.666   4.880   6.904
19658TIP3   OH258858   8.930   5.207   7.616
19658TIP3    H158859   8.954   5.256   7.697
19658TIP3    H258860   8.985   5.126   7.623
19659TIP3   OH258861   8.808   4.615   6.915
19659TIP3    H158862   8.795   4.694   6.969
19659TIP3    H258863   8.866   4.650   6.843
19660TIP3   OH258864   8.219   5.901   6.463
19660TIP3    H158865   8.188   5.970   6.400
19660TIP3    H258866   8.201   5.944   6.550
19661TIP3   OH258867   8.316   4.604   6.705
19661TIP3    H158868   8.305   4.697   6.730
19661TIP3    H258869   8.413   4.597   6.708
19662TIP3   OH258870   9.571   5.107   7.605
19662TIP3    H158871   9.472   5.104   7.604
19662TIP3    H258872   9.589   5.080   7.513
19663TIP3   OH258873   9.222   5.303   6.988
19663TIP3    H158874   9.147   5.242   6.998
19663TIP3    H258875   9.294   5.255   7.035
19664TIP3   OH258876   7.935   5.530   6.457
19664TIP3    H158877   8.000   5.602   6.464
19664TIP3    H258878   7.980   5.475   6.389
19665TIP3   OH258879   7.883   4.803   6.584
19665TIP3    H158880   7.872   4.900   6.583
19665TIP3    H258881   7.797   4.772   6.552
19666TIP3   OH258882   8.268   4.527   7.463
19666TIP3    H158883   8.237   4.495   7.375
19666TIP3    H258884   8.256   4.447   7.519
19667TIP3   OH258885   7.806   5.746   6.843
19667TIP3    H158886   7.735   5.775   6.902
19667TIP3    H258887   7.776   5.786   6.758
19668TIP3   OH258888   7.963   6.284   7.914
19668TIP3    H158889   8.051   6.279   7.957
19668TIP3    H258890   7.940   6.189   7.910
19669TIP3   OH258891   8.455   6.246   7.964
19669TIP3    H158892   8.548   6.218   7.957
19669TIP3    H258893   8.416   6.193   7.891
19670TIP3   OH258894   8.426   5.827   6.087
19670TIP3    H158895   8.371   5.755   6.125
19670TIP3    H258896   8.501   5.776   6.052
19671TIP3   OH258897   9.094   6.152   7.689
19671TIP3    H158898   9.069   6.089   7.761
19671TIP3    H258899   9.162   6.206   7.731
19672TIP3   OH258900   8.861   5.867   6.000
19672TIP3    H158901   8.907   5.803   6.057
19672TIP3    H258902   8.916   5.866   5.919
19673TIP3   OH258903   8.093   5.694   8.116
19673TIP3    H158904   8.109   5.598   8.120
19673TIP3    H258905   8.006   5.696   8.070
19674TIP3   OH258906   8.070   5.345   6.308
19674TIP3    H158907   8.124   5.311   6.381
19674TIP3    H258908   8.138   5.349   6.237
19675TIP3   OH258909   8.698   5.778   7.890
19675TIP3    H158910   8.658   5.796   7.803
19675TIP3    H258911   8.729   5.685   7.880
19676TIP3   OH258912   8.582   5.541   6.116
19676TIP3    H158913   8.584   5.554   6.213
19676TIP3    H258914   8.579   5.443   6.111
19677TIP3   OH258915   9.191   5.788   7.498
19677TIP3    H158916   9.267   5.828   7.451
19677TIP3    H258917   9.123   5.855   7.481
19678TIP3   OH258918   8.211   5.431   8.098
19678TIP3    H158919   8.286   5.375   8.072
19678TIP3    H258920   8.240   5.460   8.187
19679TIP3   OH258921   8.283   5.242   6.532
19679TIP3    H158922   8.250   5.207   6.616
19679TIP3    H258923   8.313   5.162   6.486
19680TIP3   OH258924   8.550   5.314   7.762
19680TIP3    H158925   8.470   5.371   7.762
19680TIP3    H258926   8.598   5.347   7.682
19681TIP3   OH258927   8.383   5.030   6.364
19681TIP3    H158928   8.354   5.048   6.272
19681TIP3    H258929   8.479   5.048   6.359
19682TIP3   OH258930   9.068   5.717   7.894
19682TIP3    H158931   9.142   5.689   7.839
19682TIP3    H258932   9.060   5.644   7.958
19683TIP3   OH258933   9.198   5.370   6.037
19683TIP3    H158934   9.182   5.325   5.952
19683TIP3    H258935   9.167   5.461   6.012
19684TIP3   OH258936   8.673   5.100   7.884
19684TIP3    H158937   8.671   5.021   7.826
19684TIP3    H258938   8.628   5.167   7.826
19685TIP3   OH258939   8.674   4.887   7.694
19685TIP3    H158940   8.701   4.928   7.609
19685TIP3    H258941   8.580   4.864   7.675
19686TIP3   OH258942   8.701   5.424   7.568
19686TIP3    H158943   8.783   5.431   7.518
19686TIP3    H258944   8.644   5.490   7.522
19687TIP3   OH258945   9.300   5.386   7.964
19687TIP3    H158946   9.338   5.304   7.931
19687TIP3    H258947   9.360   5.452   7.927
19688TIP3   OH258948   9.320   5.639   7.681
19688TIP3    H158949   9.264   5.694   7.622
19688TIP3    H258950   9.409   5.659   7.642
19689TIP3   OH258951   8.550   5.209   8.116
19689TIP3    H158952   8.481   5.141   8.129
19689TIP3    H258953   8.583   5.186   8.026
19690TIP3   OH258954   8.806   4.651   7.762
19690TIP3    H158955   8.756   4.732   7.737
19690TIP3    H258956   8.738   4.582   7.748
19691TIP3   OH258957   8.930   5.153   7.976
19691TIP3    H158958   8.911   5.140   8.071
19691TIP3    H258959   8.842   5.130   7.939
19692TIP3   OH258960   9.174   5.116   7.836
19692TIP3    H158961   9.095   5.107   7.892
19692TIP3    H258962   9.244   5.077   7.893
19693TIP3   OH258963   9.390   5.043   7.996
19693TIP3    H158964   9.405   4.947   8.005
19693TIP3    H258965   9.392   5.074   8.088
19694TIP3   OH258966   8.388   4.991   8.169
19694TIP3    H158967   8.392   4.900   8.133
19694TIP3    H258968   8.424   4.977   8.259
19695TIP3   OH258969   8.900   4.660   8.019
19695TIP3    H158970   8.966   4.588   8.012
19695TIP3    H258971   8.859   4.656   7.930
19696TIP3   OH258972   8.967   4.876   8.175
19696TIP3    H158973   8.945   4.804   8.112
19696TIP3    H258974   8.889   4.934   8.168
19697TIP3   OH258975   8.187   6.102   6.274
19697TIP3    H158976   8.282   6.100   6.254
19697TIP3    H258977   8.155   6.155   6.198
19698TIP3   OH258978   7.666   5.485   6.493
19698TIP3    H158979   7.761   5.506   6.478
19698TIP3    H258980   7.660   5.397   6.451
19699TIP3   OH258981   7.581   6.096   6.906
19699TIP3    H158982   7.514   6.035   6.868
19699TIP3    H258983   7.626   6.037   6.971
19700TIP3   OH258984   7.718   5.947   7.092
19700TIP3    H158985   7.703   5.875   7.155
19700TIP3    H258986   7.769   6.009   7.147
19701TIP3   OH258987   9.450   6.370   7.148
19701TIP3    H158988   9.441   6.277   7.173
19701TIP3    H258989   9.545   6.386   7.160
19702TIP3   OH258990   9.335   5.560   6.368
19702TIP3    H158991   9.403   5.623   6.337
19702TIP3    H258992   9.380   5.520   6.446
19703TIP3   OH258993   9.463   5.427   6.571
19703TIP3    H158994   9.399   5.385   6.631
19703TIP3    H258995   9.530   5.463   6.633
19704TIP3   OH258996   9.518   5.818   7.000
19704TIP3    H158997   9.573   5.753   6.952
19704TIP3    H258998   9.517   5.893   6.938
19705TIP3   OH258999   9.345   6.110   7.202
19705TIP3    H159000   9.276   6.149   7.258
19705TIP3    H259001   9.293   6.060   7.136
19706TIP3   OH259002   9.401   5.334   6.218
19706TIP3    H159003   9.330   5.336   6.150
19706TIP3    H259004   9.374   5.411   6.272
19707TIP3   OH259005   9.268   5.007   6.176
19707TIP3    H159006   9.238   5.044   6.093
19707TIP3    H259007   9.242   4.913   6.166
19708TIP3   OH259008   9.276   5.283   6.718
19708TIP3    H159009   9.287   5.187   6.711
19708TIP3    H259010   9.263   5.296   6.814
19709TIP3   OH259011   7.903   5.353   7.467
19709TIP3    H159012   7.901   5.323   7.374
19709TIP3    H259013   8.001   5.357   7.482
19710TIP3   OH259014   9.559   5.707   7.575
19710TIP3    H159015   9.640   5.653   7.581
19710TIP3    H259016   9.594   5.788   7.534
19711TIP3   OH259017   9.761   5.526   7.595
19711TIP3    H159018   9.682   5.473   7.621
19711TIP3    H259019   9.830   5.459   7.612
19712TIP3   OH259020   9.211   4.740   6.165
19712TIP3    H159021   9.291   4.711   6.214
19712TIP3    H259022   9.146   4.671   6.185
19713TIP3   OH259023   9.274   5.000   6.611
19713TIP3    H159024   9.315   4.911   6.627
19713TIP3    H259025   9.333   5.032   6.540
19714TIP3   OH259026   9.436   5.173   7.108
19714TIP3    H159027   9.522   5.199   7.066
19714TIP3    H259028   9.451   5.210   7.197
19715TIP3   OH259029   9.506   5.319   7.341
19715TIP3    H159030   9.426   5.353   7.386
19715TIP3    H259031   9.539   5.399   7.294
19716TIP3   OH259032   8.121   5.043   8.144
19716TIP3    H159033   8.219   5.036   8.142
19716TIP3    H259034   8.098   4.956   8.182
19717TIP3   OH259035   9.999   4.935   7.875
19717TIP3    H159036  10.024   4.849   7.835
19717TIP3    H259037   9.938   4.972   7.807
19718TIP3   OH259038   9.381   4.750   6.652
19718TIP3    H159039   9.430   4.732   6.735
19718TIP3    H259040   9.322   4.672   6.648
19719TIP3   OH259041   8.084   4.736   7.476
19719TIP3    H159042   8.146   4.660   7.480
19719TIP3    H259043   8.147   4.809   7.464
19720TIP3   OH259044   7.887   5.009   7.545
19720TIP3    H159045   7.933   4.998   7.460
19720TIP3    H259046   7.915   5.098   7.569
19721TIP3   OH259047   9.813   5.034   7.707
19721TIP3    H159048   9.727   5.082   7.702
19721TIP3    H259049   9.793   4.964   7.641
19722TIP3   OH259050   9.463   4.685   6.282
19722TIP3    H159051   9.503   4.614   6.228
19722TIP3    H259052   9.530   4.756   6.276
19723TIP3   OH259053   7.865   4.520   7.050
19723TIP3    H159054   7.769   4.512   7.057
19723TIP3    H259055   7.875   4.579   6.972
19724TIP3   OH259056   9.040   6.224   6.557
19724TIP3    H159057   9.079   6.190   6.474
19724TIP3    H259058   9.081   6.311   6.561
19725TIP3   OH259059   8.090   4.594   7.861
19725TIP3    H159060   8.036   4.588   7.941
19725TIP3    H259061   8.025   4.631   7.798
19726TIP3   OH259062   8.128   6.022   7.937
19726TIP3    H159063   8.038   5.994   7.915
19726TIP3    H259064   8.135   5.996   8.030
19727TIP3   OH259065   8.309   6.055   7.486
19727TIP3    H159066   8.260   6.129   7.445
19727TIP3    H259067   8.394   6.068   7.440
19728TIP3   OH259068   8.747   6.297   7.605
19728TIP3    H159069   8.783   6.295   7.696
19728TIP3    H259070   8.818   6.347   7.559
19729TIP3   OH259071   8.940   6.442   7.479
19729TIP3    H159072   9.006   6.380   7.445
19729TIP3    H259073   8.991   6.526   7.467
19730TIP3   OH259074   9.723   4.806   7.578
19730TIP3    H159075   9.633   4.800   7.541
19730TIP3    H259076   9.755   4.714   7.564
19731TIP3   OH259077   7.984   6.310   7.506
19731TIP3    H159078   7.895   6.343   7.480
19731TIP3    H259079   7.988   6.345   7.596
19732TIP3   OH259080   8.220   6.288   7.364
19732TIP3    H159081   8.133   6.301   7.408
19732TIP3    H259082   8.201   6.319   7.274
19733TIP3   OH259083   8.642   6.314   7.162
19733TIP3    H159084   8.574   6.335   7.095
19733TIP3    H259085   8.657   6.402   7.203
19734TIP3   OH259086   8.905   6.242   7.221
19734TIP3    H159087   8.813   6.266   7.199
19734TIP3    H259088   8.954   6.316   7.179
19735TIP3   OH259089   9.082   6.425   7.120
19735TIP3    H159090   9.075   6.519   7.094
19735TIP3    H259091   9.138   6.389   7.051
19736TIP3   OH259092   7.894   6.103   7.251
19736TIP3    H159093   7.921   6.076   7.341
19736TIP3    H259094   7.966   6.060   7.199
19737TIP3   OH259095   8.088   5.975   7.110
19737TIP3    H159096   8.105   5.891   7.158
19737TIP3    H259097   8.179   6.011   7.103
19738TIP3   OH259098   8.355   6.068   7.112
19738TIP3    H159099   8.386   5.977   7.098
19738TIP3    H259100   8.401   6.090   7.195
19739TIP3   OH259101   8.934   4.726   7.202
19739TIP3    H159102   8.889   4.654   7.251
19739TIP3    H259103   9.002   4.678   7.152
19740TIP3   OH259104   9.454   4.615   7.111
19740TIP3    H159105   9.490   4.660   7.032
19740TIP3    H259106   9.358   4.622   7.097
19741TIP3   OH259107   9.548   4.704   6.870
19741TIP3    H159108   9.620   4.652   6.828
19741TIP3    H259109   9.581   4.795   6.854
19742TIP3   OH259110   8.179   4.435   7.216
19742TIP3    H159111   8.086   4.404   7.214
19742TIP3    H259112   8.226   4.349   7.211
19743TIP3   OH259113   7.969   4.298   6.861
19743TIP3    H159114   7.986   4.356   6.785
19743TIP3    H259115   7.926   4.361   6.922
19744TIP3   OH259116   8.626   4.463   7.095
19744TIP3    H159117   8.680   4.513   7.032
19744TIP3    H259118   8.646   4.507   7.179
19745TIP3   OH259119   9.172   4.611   7.075
19745TIP3    H159120   9.169   4.571   6.987
19745TIP3    H259121   9.158   4.532   7.133
19746TIP3   OH259122   9.202   4.536   6.639
19746TIP3    H159123   9.110   4.569   6.643
19746TIP3    H259124   9.190   4.451   6.687
19747TIP3   OH259125   7.683   5.876   6.642
19747TIP3    H159126   7.598   5.843   6.608
19747TIP3    H259127   7.673   5.971   6.619
19748TIP3   OH259128   8.085   4.464   6.622
19748TIP3    H159129   8.136   4.400   6.569
19748TIP3    H259130   8.157   4.518   6.661
19749TIP3   OH259131   8.586   4.636   6.731
19749TIP3    H159132   8.654   4.587   6.781
19749TIP3    H259133   8.616   4.728   6.747
19750TIP3   OH259134   8.456   6.063   6.224
19750TIP3    H159135   8.544   6.084   6.187
19750TIP3    H259136   8.433   5.988   6.164
19751TIP3   OH259137   9.169   6.180   6.318
19751TIP3    H159138   9.163   6.082   6.303
19751TIP3    H259139   9.127   6.213   6.235
19752TIP3   OH259140   8.386   4.717   8.109
19752TIP3    H159141   8.353   4.644   8.164
19752TIP3    H259142   8.481   4.716   8.134
19753TIP3   OH259143   8.638   4.714   8.225
19753TIP3    H159144   8.720   4.686   8.182
19753TIP3    H259145   8.625   4.642   8.291
19754TIP3   OH259146   7.758   5.898   6.280
19754TIP3    H159147   7.757   5.927   6.372
19754TIP3    H259148   7.847   5.858   6.270
19755TIP3   OH259149   9.461   4.778   8.007
19755TIP3    H159150   9.480   4.743   8.097
19755TIP3    H259151   9.549   4.771   7.964
19756TIP3   OH259152   9.964   5.571   6.996
19756TIP3    H159153   9.996   5.502   7.058
19756TIP3    H259154  10.004   5.650   7.038
19757TIP3   OH259155   9.929   5.997   6.734
19757TIP3    H159156   9.929   5.898   6.738
19757TIP3    H259157  10.024   6.014   6.733
19758TIP3   OH259158   9.640   5.204   6.526
19758TIP3    H159159   9.594   5.288   6.541
19758TIP3    H259160   9.570   5.152   6.483
19759TIP3   OH259161   9.699   5.493   6.699
19759TIP3    H159162   9.749   5.417   6.735
19759TIP3    H259163   9.760   5.526   6.631
19760TIP3   OH259164  10.398   5.921   6.665
19760TIP3    H159165  10.446   5.870   6.597
19760TIP3    H259166  10.464   5.926   6.737
19761TIP3   OH259167  10.199   5.086   6.709
19761TIP3    H159168  10.201   5.153   6.638
19761TIP3    H259169  10.167   5.009   6.659
19762TIP3   OH259170   9.843   5.286   6.803
19762TIP3    H159171   9.925   5.269   6.853
19762TIP3    H259172   9.860   5.232   6.723
19763TIP3   OH259173  10.250   5.503   6.582
19763TIP3    H159174  10.346   5.486   6.593
19763TIP3    H259175  10.218   5.415   6.553
19764TIP3   OH259176  10.198   5.067   7.133
19764TIP3    H159177  10.141   5.104   7.062
19764TIP3    H259178  10.142   5.087   7.211
19765TIP3   OH259179  10.266   5.846   6.944
19765TIP3    H159180  10.214   5.917   6.984
19765TIP3    H259181  10.347   5.895   6.917
19766TIP3   OH259182  10.067   5.181   6.921
19766TIP3    H159183  10.131   5.253   6.942
19766TIP3    H259184  10.114   5.141   6.844
19767TIP3   OH259185   9.537   5.727   6.261
19767TIP3    H159186   9.500   5.753   6.174
19767TIP3    H259187   9.570   5.812   6.295
19768TIP3   OH259188  10.049   5.648   6.477
19768TIP3    H159189  10.012   5.587   6.410
19768TIP3    H259190  10.126   5.596   6.510
19769TIP3   OH259191  10.182   6.068   6.618
19769TIP3    H159192  10.150   6.030   6.533
19769TIP3    H259193  10.257   6.007   6.638
19770TIP3   OH259194  10.240   5.591   6.848
19770TIP3    H159195  10.243   5.588   6.751
19770TIP3    H259196  10.249   5.687   6.868
19771TIP3   OH259197  10.019   5.753   7.196
19771TIP3    H159198  10.025   5.848   7.212
19771TIP3    H259199   9.948   5.724   7.256
19772TIP3   OH259200  10.398   6.205   6.206
19772TIP3    H159201  10.454   6.280   6.226
19772TIP3    H259202  10.341   6.239   6.135
19773TIP3   OH259203   9.939   5.470   6.292
19773TIP3    H159204   9.874   5.514   6.234
19773TIP3    H259205   9.899   5.383   6.303
19774TIP3   OH259206   9.714   5.849   7.205
19774TIP3    H159207   9.652   5.833   7.131
19774TIP3    H259208   9.743   5.758   7.228
19775TIP3   OH259209   9.586   6.050   6.837
19775TIP3    H159210   9.679   6.029   6.817
19775TIP3    H259211   9.601   6.118   6.905
19776TIP3   OH259212  10.312   6.398   5.995
19776TIP3    H159213  10.275   6.377   5.908
19776TIP3    H259214  10.274   6.486   6.012
19777TIP3   OH259215   9.744   6.262   6.360
19777TIP3    H159216   9.791   6.253   6.446
19777TIP3    H259217   9.696   6.177   6.358
19778TIP3   OH259218   9.900   6.044   7.192
19778TIP3    H159219   9.935   6.040   7.283
19778TIP3    H259220   9.830   5.976   7.196
19779TIP3   OH259221  10.316   4.853   6.992
19779TIP3    H159222  10.229   4.826   6.957
19779TIP3    H259223  10.294   4.941   7.024
19780TIP3   OH259224  10.261   5.358   6.978
19780TIP3    H159225  10.232   5.396   7.063
19780TIP3    H259226  10.255   5.439   6.922
19781TIP3   OH259227  10.144   5.261   6.506
19781TIP3    H159228  10.053   5.233   6.529
19781TIP3    H259229  10.149   5.230   6.413
19782TIP3   OH259230  10.058   5.395   7.200
19782TIP3    H159231  10.088   5.456   7.269
19782TIP3    H259232  10.051   5.311   7.248
19783TIP3   OH259233  10.110   4.893   5.911
19783TIP3    H159234  10.078   4.884   6.002
19783TIP3    H259235  10.039   4.942   5.868
19784TIP3   OH259236   9.670   4.928   6.785
19784TIP3    H159237   9.746   4.961   6.838
19784TIP3    H259238   9.710   4.900   6.702
19785TIP3   OH259239   9.643   4.911   6.305
19785TIP3    H159240   9.685   4.948   6.224
19785TIP3    H259241   9.582   4.983   6.326
19786TIP3   OH259242   9.904   5.144   6.577
19786TIP3    H159243   9.809   5.149   6.549
19786TIP3    H259244   9.930   5.053   6.555
19787TIP3   OH259245  10.152   5.167   6.246
19787TIP3    H159246  10.226   5.193   6.189
19787TIP3    H259247  10.079   5.172   6.181
19788TIP3   OH259248   9.993   5.174   6.033
19788TIP3    H159249   9.931   5.131   5.971
19788TIP3    H259250  10.060   5.207   5.970
19789TIP3   OH259251  10.072   4.906   6.539
19789TIP3    H159252  10.039   4.828   6.589
19789TIP3    H259253  10.126   4.865   6.471
19790TIP3   OH259254  10.206   5.736   6.047
19790TIP3    H159255  10.168   5.646   6.048
19790TIP3    H259256  10.253   5.741   6.131
19791TIP3   OH259257   9.958   5.723   6.732
19791TIP3    H159258   9.992   5.696   6.644
19791TIP3    H259259   9.995   5.656   6.791
19792TIP3   OH259260   9.826   5.632   7.349
19792TIP3    H159261   9.817   5.608   7.444
19792TIP3    H259262   9.758   5.575   7.310
19793TIP3   OH259263  10.061   6.029   6.356
19793TIP3    H159264  10.065   6.107   6.298
19793TIP3    H259265   9.966   6.010   6.356
19794TIP3   OH259266   9.625   5.332   6.054
19794TIP3    H159267   9.671   5.416   6.074
19794TIP3    H259268   9.548   5.338   6.115
19795TIP3   OH259269  10.238   5.812   6.334
19795TIP3    H159270  10.184   5.892   6.324
19795TIP3    H259271  10.176   5.753   6.381
19796TIP3   OH259272   9.976   6.263   6.202
19796TIP3    H159273   9.892   6.273   6.250
19796TIP3    H259274  10.010   6.355   6.205
19797TIP3   OH259275  10.039   5.149   7.344
19797TIP3    H159276   9.943   5.152   7.358
19797TIP3    H259277  10.069   5.097   7.420
19798TIP3   OH259278   9.776   6.197   6.991
19798TIP3    H159279   9.824   6.135   7.050
19798TIP3    H259280   9.788   6.279   7.042
19799TIP3   OH259281  10.064   5.876   5.662
19799TIP3    H159282  10.076   5.783   5.637
19799TIP3    H259283  10.046   5.868   5.758
19800TIP3   OH259284  10.004   5.881   5.932
19800TIP3    H159285  10.085   5.841   5.973
19800TIP3    H259286  10.017   5.976   5.950
19801TIP3   OH259287   9.738   5.577   6.137
19801TIP3    H159288   9.672   5.624   6.193
19801TIP3    H259289   9.756   5.645   6.070
19802TIP3   OH259290  10.268   6.108   5.896
19802TIP3    H159291  10.176   6.118   5.928
19802TIP3    H259292  10.272   6.177   5.829
19803TIP3   OH259293  10.004   6.159   5.949
19803TIP3    H159294   9.974   6.230   5.888
19803TIP3    H259295   9.988   6.200   6.037
19804TIP3   OH259296  10.116   4.882   6.195
19804TIP3    H159297  10.090   4.964   6.239
19804TIP3    H259298  10.198   4.914   6.150
19805TIP3   OH259299   9.732   5.790   5.944
19805TIP3    H159300   9.807   5.852   5.954
19805TIP3    H259301   9.774   5.730   5.879
19806TIP3   OH259302   9.672   5.061   6.082
19806TIP3    H159303   9.678   5.159   6.075
19806TIP3    H259304   9.597   5.042   6.024
19807TIP3   OH259305  10.050   4.783   6.950
19807TIP3    H159306  10.025   4.751   6.860
19807TIP3    H259307  10.046   4.702   7.004
19808TIP3   OH259308   9.603   6.008   6.332
19808TIP3    H159309   9.524   6.033   6.380
19808TIP3    H259310   9.583   6.044   6.243
19809TIP3   OH259311  10.207   6.094   5.578
19809TIP3    H159312  10.157   6.017   5.614
19809TIP3    H259313  10.300   6.061   5.588
19810TIP3   OH259314   9.866   5.600   5.807
19810TIP3    H159315   9.927   5.569   5.877
19810TIP3    H259316   9.929   5.607   5.732
19811TIP3   OH259317  10.068   5.496   6.017
19811TIP3    H159318  10.049   5.458   6.104
19811TIP3    H259319  10.110   5.421   5.970
19812TIP3   OH259320  10.322   5.535   7.190
19812TIP3    H159321  10.305   5.603   7.259
19812TIP3    H259322  10.323   5.590   7.111
19813TIP3   OH259323  10.176   5.292   5.867
19813TIP3    H159324  10.138   5.294   5.777
19813TIP3    H259325  10.270   5.304   5.846
19814TIP3   OH259326  10.453   5.323   7.313
19814TIP3    H159327  10.463   5.232   7.276
19814TIP3    H259328  10.379   5.359   7.260
19815TIP3   OH259329  10.464   5.097   7.172
19815TIP3    H159330  10.493   5.112   7.080
19815TIP3    H259331  10.369   5.074   7.159
19816TIP3   OH259332  10.161   5.280   7.599
19816TIP3    H159333  10.176   5.184   7.604
19816TIP3    H259334  10.204   5.317   7.677
19817TIP3   OH259335   9.982   6.365   5.762
19817TIP3    H159336  10.078   6.360   5.746
19817TIP3    H259337   9.954   6.414   5.682
19818TIP3   OH259338   9.464   5.740   5.982
19818TIP3    H159339   9.558   5.763   5.965
19818TIP3    H259340   9.458   5.651   5.940
19819TIP3   OH259341   9.371   6.354   6.397
19819TIP3    H159342   9.310   6.289   6.355
19819TIP3    H259343   9.419   6.296   6.461
19820TIP3   OH259344   9.505   6.213   6.592
19820TIP3    H159345   9.510   6.132   6.644
19820TIP3    H259346   9.566   6.270   6.642
19821TIP3   OH259347   9.698   5.611   6.950
19821TIP3    H159348   9.691   5.580   6.857
19821TIP3    H259349   9.796   5.607   6.961
19822TIP3   OH259350   9.888   5.286   7.603
19822TIP3    H159351   9.986   5.298   7.598
19822TIP3    H259352   9.881   5.213   7.666
19823TIP3   OH259353   9.871   4.992   6.965
19823TIP3    H159354   9.934   4.917   6.968
19823TIP3    H259355   9.933   5.067   6.953
19824TIP3   OH259356   9.681   5.267   7.030
19824TIP3    H159357   9.728   5.256   6.945
19824TIP3    H259358   9.717   5.352   7.059
19825TIP3   OH259359   9.665   4.769   6.533
19825TIP3    H159360   9.571   4.764   6.557
19825TIP3    H259361   9.664   4.827   6.454
19826TIP3   OH259362   9.883   4.850   7.348
19826TIP3    H159363   9.826   4.844   7.426
19826TIP3    H259364   9.820   4.889   7.283
19827TIP3   OH259365   9.694   6.361   6.749
19827TIP3    H159366   9.727   6.338   6.838
19827TIP3    H259367   9.760   6.310   6.695
19828TIP3   OH259368   9.869   6.224   6.595
19828TIP3    H159369   9.891   6.141   6.644
19828TIP3    H259370   9.959   6.261   6.580
19829TIP3   OH259371  10.117   6.326   6.563
19829TIP3    H159372  10.156   6.236   6.573
19829TIP3    H259373  10.155   6.374   6.639
19830TIP3   OH259374   9.969   4.697   6.697
19830TIP3    H159375   9.875   4.669   6.697
19830TIP3    H259376  10.012   4.608   6.699
19831TIP3   OH259377   9.771   4.560   6.349
19831TIP3    H159378   9.792   4.620   6.275
19831TIP3    H259379   9.736   4.622   6.415
19832TIP3   OH259380   9.476   6.133   6.130
19832TIP3    H159381   9.392   6.100   6.094
19832TIP3    H259382   9.468   6.227   6.106
19833TIP3   OH259383   9.873   4.723   6.120
19833TIP3    H159384   9.912   4.659   6.057
19833TIP3    H259385   9.952   4.769   6.155
19834TIP3   OH259386  10.255   6.327   5.715
19834TIP3    H159387  10.352   6.333   5.707
19834TIP3    H259388  10.234   6.256   5.650
19835TIP3   OH259389  10.150   4.996   7.595
19835TIP3    H159390  10.102   4.924   7.638
19835TIP3    H259391  10.237   4.953   7.583
19836TIP3   OH259392  10.382   4.871   7.668
19836TIP3    H159393  10.448   4.929   7.625
19836TIP3    H259394  10.366   4.921   7.748
19837TIP3   OH259395   9.557   6.160   5.768
19837TIP3    H159396   9.560   6.180   5.862
19837TIP3    H259397   9.643   6.116   5.753
19838TIP3   OH259398   1.322   6.228   8.474
19838TIP3    H159399   1.294   6.320   8.454
19838TIP3    H259400   1.244   6.180   8.440
19839TIP3   OH259401   1.334   6.224   8.844
19839TIP3    H159402   1.355   6.200   8.937
19839TIP3    H259403   1.282   6.147   8.815
19840TIP3   OH259404   1.567   6.529   8.538
19840TIP3    H159405   1.549   6.465   8.607
19840TIP3    H259406   1.595   6.607   8.588
19841TIP3   OH259407   1.214   6.996   8.547
19841TIP3    H159408   1.257   6.921   8.502
19841TIP3    H259409   1.191   6.957   8.633
19842TIP3   OH259410   1.108   6.398   8.883
19842TIP3    H159411   1.189   6.357   8.847
19842TIP3    H259412   1.146   6.479   8.920
19843TIP3   OH259413   2.133   5.774   8.901
19843TIP3    H159414   2.161   5.856   8.945
19843TIP3    H259415   2.155   5.794   8.808
19844TIP3   OH259416   1.533   5.956   8.937
19844TIP3    H159417   1.577   5.870   8.952
19844TIP3    H259418   1.501   5.944   8.845
19845TIP3   OH259419   0.906   5.619   8.897
19845TIP3    H159420   0.864   5.694   8.851
19845TIP3    H259421   0.868   5.544   8.848
19846TIP3   OH259422   1.565   5.708   8.522
19846TIP3    H159423   1.638   5.693   8.587
19846TIP3    H259424   1.616   5.743   8.447
19847TIP3   OH259425   0.943   6.026   8.820
19847TIP3    H159426   1.036   5.997   8.821
19847TIP3    H259427   0.900   5.952   8.773
19848TIP3   OH259428   2.203   5.978   9.078
19848TIP3    H159429   2.123   6.030   9.056
19848TIP3    H259430   2.231   6.020   9.161
19849TIP3   OH259431   1.211   6.448   8.343
19849TIP3    H159432   1.176   6.434   8.254
19849TIP3    H259433   1.168   6.533   8.367
19850TIP3   OH259434   1.775   5.711   8.695
19850TIP3    H159435   1.766   5.662   8.778
19850TIP3    H259436   1.828   5.788   8.722
19851TIP3   OH259437   1.637   6.775   8.703
19851TIP3    H159438   1.548   6.768   8.744
19851TIP3    H259439   1.629   6.860   8.656
19852TIP3   OH259440   1.924   5.676   9.065
19852TIP3    H159441   1.838   5.701   9.028
19852TIP3    H259442   1.986   5.708   8.996
19853TIP3   OH259443   1.230   5.312   9.047
19853TIP3    H159444   1.208   5.218   9.065
19853TIP3    H259445   1.150   5.354   9.085
19854TIP3   OH259446   1.336   6.817   8.379
19854TIP3    H159447   1.386   6.735   8.356
19854TIP3    H259448   1.399   6.884   8.343
19855TIP3   OH259449   1.478   6.604   8.286
19855TIP3    H159450   1.445   6.524   8.243
19855TIP3    H259451   1.516   6.568   8.369
19856TIP3   OH259452   1.863   6.687   9.048
19856TIP3    H159453   1.851   6.611   8.988
19856TIP3    H259454   1.844   6.763   8.988
19857TIP3   OH259455   1.155   6.078   8.305
19857TIP3    H159456   1.074   6.130   8.283
19857TIP3    H259457   1.202   6.080   8.220
19858TIP3   OH259458   1.114   5.865   8.022
19858TIP3    H159459   1.180   5.918   8.071
19858TIP3    H259460   1.173   5.803   7.974
19859TIP3   OH259461   2.056   6.322   8.892
19859TIP3    H159462   1.974   6.376   8.896
19859TIP3    H259463   2.088   6.348   8.803
19860TIP3   OH259464   1.500   6.162   8.277
19860TIP3    H159465   1.445   6.188   8.355
19860TIP3    H259466   1.585   6.139   8.321
19861TIP3   OH259467   1.737   6.196   9.194
19861TIP3    H159468   1.736   6.282   9.239
19861TIP3    H259469   1.652   6.202   9.145
19862TIP3   OH259470   0.877   6.117   9.066
19862TIP3    H159471   0.902   6.085   8.976
19862TIP3    H259472   0.925   6.201   9.070
19863TIP3   OH259473   1.398   6.774   8.827
19863TIP3    H159474   1.378   6.847   8.887
19863TIP3    H259475   1.380   6.694   8.882
19864TIP3   OH259476   1.343   6.020   8.102
19864TIP3    H159477   1.400   6.081   8.153
19864TIP3    H259478   1.368   6.043   8.010
19865TIP3   OH259479   1.081   6.705   8.382
19865TIP3    H159480   1.168   6.749   8.396
19865TIP3    H259481   1.035   6.771   8.328
19866TIP3   OH259482   1.857   5.262   8.151
19866TIP3    H159483   1.776   5.284   8.201
19866TIP3    H259484   1.871   5.345   8.101
19867TIP3   OH259485   1.655   6.629   7.698
19867TIP3    H159486   1.662   6.726   7.684
19867TIP3    H259487   1.749   6.601   7.687
19868TIP3   OH259488   2.100   7.032   9.099
19868TIP3    H159489   2.098   6.935   9.108
19868TIP3    H259490   2.014   7.056   9.141
19869TIP3   OH259491   1.199   6.764   9.249
19869TIP3    H159492   1.209   6.862   9.255
19869TIP3    H259493   1.117   6.755   9.197
19870TIP3   OH259494   0.996   6.927   8.202
19870TIP3    H159495   0.959   6.905   8.114
19870TIP3    H259496   0.977   7.021   8.209
19871TIP3   OH259497   1.162   6.841   7.825
19871TIP3    H159498   1.219   6.776   7.779
19871TIP3    H259499   1.209   6.852   7.911
19872TIP3   OH259500   1.239   6.877   8.089
19872TIP3    H159501   1.154   6.885   8.138
19872TIP3    H259502   1.297   6.845   8.160
19873TIP3   OH259503   1.997   6.158   9.366
19873TIP3    H159504   1.913   6.182   9.325
19873TIP3    H259505   2.003   6.062   9.344
19874TIP3   OH259506   0.989   5.393   9.145
19874TIP3    H159507   0.929   5.342   9.200
19874TIP3    H259508   0.988   5.480   9.186
19875TIP3   OH259509   1.443   5.522   9.333
19875TIP3    H159510   1.507   5.508   9.406
19875TIP3    H259511   1.358   5.517   9.379
19876TIP3   OH259512   1.741   5.934   9.325
19876TIP3    H159513   1.763   5.967   9.414
19876TIP3    H259514   1.730   6.017   9.274
19877TIP3   OH259515   1.416   6.062   7.845
19877TIP3    H159516   1.384   6.041   7.756
19877TIP3    H259517   1.494   6.117   7.824
19878TIP3   OH259518   1.132   5.442   8.149
19878TIP3    H159519   1.100   5.439   8.241
19878TIP3    H259520   1.091   5.361   8.114
19879TIP3   OH259521   0.909   5.889   9.207
19879TIP3    H159522   0.869   5.925   9.286
19879TIP3    H259523   0.897   5.966   9.146
19880TIP3   OH259524   0.789   5.787   8.712
19880TIP3    H159525   0.697   5.810   8.694
19880TIP3    H259526   0.813   5.744   8.627
19881TIP3   OH259527   1.290   5.880   8.438
19881TIP3    H159528   1.239   5.953   8.396
19881TIP3    H259529   1.346   5.851   8.363
19882TIP3   OH259530   1.447   5.910   8.679
19882TIP3    H159531   1.388   5.943   8.608
19882TIP3    H259532   1.480   5.829   8.633
19883TIP3   OH259533   0.790   5.417   8.119
19883TIP3    H159534   0.776   5.417   8.216
19883TIP3    H259535   0.701   5.429   8.085
19884TIP3   OH259536   1.456   6.160   9.097
19884TIP3    H159537   1.491   6.089   9.037
19884TIP3    H259538   1.430   6.105   9.174
19885TIP3   OH259539   1.147   5.617   8.766
19885TIP3    H159540   1.065   5.622   8.819
19885TIP3    H259541   1.215   5.615   8.835
19886TIP3   OH259542   0.837   5.677   8.465
19886TIP3    H159543   0.932   5.693   8.448
19886TIP3    H259544   0.793   5.712   8.384
19887TIP3   OH259545   1.620   5.692   8.975
19887TIP3    H159546   1.576   5.710   9.061
19887TIP3    H259547   1.557   5.630   8.935
19888TIP3   OH259548   0.659   5.729   8.245
19888TIP3    H159549   0.619   5.643   8.225
19888TIP3    H259550   0.717   5.746   8.168
19889TIP3   OH259551   1.797   7.370   9.179
19889TIP3    H159552   1.789   7.399   9.087
19889TIP3    H259553   1.846   7.444   9.218
19890TIP3   OH259554   1.211   5.945   8.866
19890TIP3    H159555   1.285   5.909   8.815
19890TIP3    H259556   1.221   5.901   8.952
19891TIP3   OH259557   0.771   5.433   8.749
19891TIP3    H159558   0.702   5.364   8.764
19891TIP3    H259559   0.807   5.404   8.665
19892TIP3   OH259560   1.185   5.844   9.156
19892TIP3    H159561   1.093   5.875   9.166
19892TIP3    H259562   1.236   5.912   9.204
19893TIP3   OH259563   0.931   6.226   8.242
19893TIP3    H159564   0.854   6.165   8.238
19893TIP3    H259565   0.920   6.265   8.332
19894TIP3   OH259566   1.825   6.469   8.883
19894TIP3    H159567   1.849   6.520   8.803
19894TIP3    H259568   1.739   6.429   8.857
19895TIP3   OH259569   1.383   5.545   8.118
19895TIP3    H159570   1.286   5.529   8.124
19895TIP3    H259571   1.392   5.640   8.140
19896TIP3   OH259572   1.349   6.539   9.246
19896TIP3    H159573   1.305   6.486   9.315
19896TIP3    H259574   1.297   6.622   9.251
19897TIP3   OH259575   1.451   5.793   8.220
19897TIP3    H159576   1.548   5.802   8.235
19897TIP3    H259577   1.431   5.874   8.168
19898TIP3   OH259578   1.082   6.378   8.075
19898TIP3    H159579   1.034   6.464   8.080
19898TIP3    H259580   1.024   6.322   8.131
19899TIP3   OH259581   1.491   6.813   9.142
19899TIP3    H159582   1.397   6.799   9.159
19899TIP3    H259583   1.518   6.863   9.221
19900TIP3   OH259584   1.893   5.885   8.056
19900TIP3    H159585   1.831   5.840   7.993
19900TIP3    H259586   1.889   5.975   8.015
19901TIP3   OH259587   2.113   6.740   9.136
19901TIP3    H159588   2.016   6.737   9.127
19901TIP3    H259589   2.139   6.711   9.045
19902TIP3   OH259590   1.598   6.701   7.964
19902TIP3    H159591   1.566   6.631   8.022
19902TIP3    H259592   1.607   6.657   7.878
19903TIP3   OH259593   1.592   6.331   8.804
19903TIP3    H159594   1.498   6.305   8.814
19903TIP3    H259595   1.626   6.253   8.755
19904TIP3   OH259596   0.902   6.325   8.491
19904TIP3    H159597   0.902   6.421   8.502
19904TIP3    H259598   0.834   6.297   8.553
19905TIP3   OH259599   1.381   6.537   8.976
19905TIP3    H159600   1.375   6.534   9.074
19905TIP3    H259601   1.459   6.483   8.960
19906TIP3   OH259602   1.352   6.426   7.864
19906TIP3    H159603   1.399   6.403   7.947
19906TIP3    H259604   1.261   6.404   7.888
19907TIP3   OH259605   1.622   7.074   9.032
19907TIP3    H159606   1.544   7.016   9.023
19907TIP3    H259607   1.609   7.137   8.957
19908TIP3   OH259608   1.691   6.902   7.684
19908TIP3    H159609   1.720   6.972   7.623
19908TIP3    H259610   1.617   6.951   7.727
19909TIP3   OH259611   1.510   6.365   8.085
19909TIP3    H159612   1.501   6.297   8.155
19909TIP3    H259613   1.607   6.363   8.070
19910TIP3   OH259614   0.771   6.379   7.890
19910TIP3    H159615   0.779   6.291   7.847
19910TIP3    H259616   0.747   6.353   7.980
19911TIP3   OH259617   1.531   5.766   9.226
19911TIP3    H159618   1.618   5.788   9.262
19911TIP3    H259619   1.506   5.682   9.270
19912TIP3   OH259620   1.427   5.497   8.398
19912TIP3    H159621   1.412   5.519   8.304
19912TIP3    H259622   1.466   5.580   8.433
19913TIP3   OH259623   0.935   6.604   8.096
19913TIP3    H159624   0.844   6.631   8.113
19913TIP3    H259625   0.953   6.648   8.011
19914TIP3   OH259626   1.114   5.678   8.499
19914TIP3    H159627   1.178   5.750   8.479
19914TIP3    H259628   1.124   5.670   8.596
19915TIP3   OH259629   1.381   5.995   9.299
19915TIP3    H159630   1.392   6.003   9.395
19915TIP3    H259631   1.426   5.911   9.280
19916TIP3   OH259632   1.261   5.405   8.604
19916TIP3    H159633   1.247   5.484   8.659
19916TIP3    H259634   1.322   5.440   8.535
19917TIP3   OH259635   0.779   5.420   8.404
19917TIP3    H159636   0.799   5.509   8.439
19917TIP3    H259637   0.870   5.383   8.403
19918TIP3   OH259638   2.013   5.893   9.291
19918TIP3    H159639   1.917   5.877   9.292
19918TIP3    H259640   2.037   5.865   9.202
19919TIP3   OH259641   1.676   6.089   8.677
19919TIP3    H159642   1.599   6.031   8.688
19919TIP3    H259643   1.747   6.041   8.725
19920TIP3   OH259644   1.644   7.047   8.628
19920TIP3    H159645   1.601   7.095   8.553
19920TIP3    H259646   1.738   7.065   8.606
19921TIP3   OH259647   0.925   6.598   7.807
19921TIP3    H159648   0.870   6.520   7.828
19921TIP3    H259649   0.967   6.570   7.724
19922TIP3   OH259650   1.539   6.947   9.381
19922TIP3    H159651   1.515   6.887   9.455
19922TIP3    H259652   1.602   7.007   9.422
19923TIP3   OH259653   1.317   6.656   7.689
19923TIP3    H159654   1.363   6.593   7.747
19923TIP3    H259655   1.372   6.657   7.608
19924TIP3   OH259656   1.192   6.424   9.440
19924TIP3    H159657   1.121   6.489   9.447
19924TIP3    H259658   1.222   6.411   9.532
19925TIP3   OH259659   1.059   6.321   7.801
19925TIP3    H159660   1.046   6.341   7.896
19925TIP3    H259661   1.045   6.224   7.800
19926TIP3   OH259662   1.651   6.571   9.184
19926TIP3    H159663   1.719   6.624   9.138
19926TIP3    H259664   1.573   6.628   9.174
19927TIP3   OH259665   0.738   6.031   8.224
19927TIP3    H159666   0.701   5.976   8.293
19927TIP3    H259667   0.772   5.964   8.161
19928TIP3   OH259668   1.074   6.101   9.417
19928TIP3    H159669   0.980   6.123   9.405
19928TIP3    H259670   1.112   6.133   9.332
19929TIP3   OH259671   0.837   5.826   8.062
19929TIP3    H159672   0.812   5.838   7.967
19929TIP3    H259673   0.934   5.833   8.055
19930TIP3   OH259674   1.574   6.529   9.560
19930TIP3    H159675   1.653   6.534   9.503
19930TIP3    H259676   1.577   6.436   9.585
19931TIP3   OH259677   1.654   6.158   7.725
19931TIP3    H159678   1.632   6.115   7.641
19931TIP3    H259679   1.623   6.249   7.704
19932TIP3   OH259680   1.103   5.648   9.342
19932TIP3    H159681   1.142   5.697   9.266
19932TIP3    H259682   1.014   5.688   9.347
19933TIP3   OH259683   1.157   6.221   9.188
19933TIP3    H159684   1.248   6.217   9.157
19933TIP3    H259685   1.144   6.316   9.201
19934TIP3   OH259686   1.776   6.428   9.370
19934TIP3    H159687   1.719   6.479   9.307
19934TIP3    H259688   1.865   6.451   9.332
19935TIP3   OH259689   1.899   7.132   8.584
19935TIP3    H159690   1.924   7.175   8.668
19935TIP3    H259691   1.954   7.180   8.520
19936TIP3   OH259692   1.923   7.158   8.868
19936TIP3    H159693   1.882   7.069   8.861
19936TIP3    H259694   2.003   7.137   8.917
19937TIP3   OH259695   1.990   6.837   9.416
19937TIP3    H159696   1.910   6.840   9.472
19937TIP3    H259697   2.023   6.928   9.424
19938TIP3   OH259698   1.789   6.345   8.057
19938TIP3    H159699   1.854   6.412   8.027
19938TIP3    H259700   1.835   6.308   8.135
19939TIP3   OH259701   1.918   6.212   8.260
19939TIP3    H159702   1.851   6.173   8.320
19939TIP3    H259703   1.982   6.252   8.323
19940TIP3   OH259704   1.972   6.606   8.695
19940TIP3    H159705   2.023   6.542   8.642
19940TIP3    H259706   1.966   6.683   8.634
19941TIP3   OH259707   1.801   6.905   8.890
19941TIP3    H159708   1.729   6.949   8.938
19941TIP3    H259709   1.753   6.859   8.818
19942TIP3   OH259710   1.854   6.120   7.908
19942TIP3    H159711   1.783   6.124   7.840
19942TIP3    H259712   1.828   6.198   7.963
19943TIP3   OH259713   1.727   5.793   7.862
19943TIP3    H159714   1.682   5.837   7.790
19943TIP3    H259715   1.700   5.700   7.848
19944TIP3   OH259716   1.730   6.072   8.408
19944TIP3    H159717   1.738   5.975   8.402
19944TIP3    H259718   1.716   6.086   8.504
19945TIP3   OH259719   2.020   6.498   9.270
19945TIP3    H159720   2.093   6.433   9.257
19945TIP3    H259721   2.041   6.567   9.204
19946TIP3   OH259722   2.204   6.306   9.281
19946TIP3    H159723   2.132   6.252   9.320
19946TIP3    H259724   2.280   6.244   9.293
19947TIP3   OH259725   1.670   5.526   7.844
19947TIP3    H159726   1.743   5.498   7.903
19947TIP3    H259727   1.596   5.470   7.871
19948TIP3   OH259728   1.727   5.787   8.303
19948TIP3    H159729   1.768   5.699   8.316
19948TIP3    H259730   1.784   5.822   8.232
19949TIP3   OH259731   1.889   5.958   8.799
19949TIP3    H159732   1.973   5.985   8.756
19949TIP3    H259733   1.902   5.999   8.886
19950TIP3   OH259734   1.957   6.105   9.030
19950TIP3    H159735   1.879   6.142   9.077
19950TIP3    H259736   1.990   6.184   8.982
19951TIP3   OH259737   2.395   5.674   9.566
19951TIP3    H159738   2.467   5.625   9.522
19951TIP3    H259739   2.405   5.763   9.528
19952TIP3   OH259740   1.836   5.537   8.340
19952TIP3    H159741   1.884   5.521   8.424
19952TIP3    H259742   1.775   5.461   8.338
19953TIP3   OH259743   2.279   5.850   9.380
19953TIP3    H159744   2.184   5.867   9.395
19953TIP3    H259745   2.273   5.772   9.324
19954TIP3   OH259746   1.916   5.471   7.975
19954TIP3    H159747   1.957   5.401   7.920
19954TIP3    H259748   1.981   5.543   7.969
19955TIP3   OH259749   1.490   6.997   8.250
19955TIP3    H159750   1.531   6.982   8.163
19955TIP3    H259751   1.534   7.078   8.278
19956TIP3   OH259752   1.272   7.025   9.274
19956TIP3    H159753   1.338   7.024   9.345
19956TIP3    H259754   1.309   7.093   9.215
19957TIP3   OH259755   1.398   7.242   9.158
19957TIP3    H159756   1.464   7.192   9.108
19957TIP3    H259757   1.454   7.304   9.207
19958TIP3   OH259758   2.177   5.600   9.252
19958TIP3    H159759   2.088   5.592   9.213
19958TIP3    H259760   2.209   5.507   9.245
19959TIP3   OH259761   1.101   7.113   8.817
19959TIP3    H159762   1.008   7.127   8.794
19959TIP3    H259763   1.125   7.202   8.852
19960TIP3   OH259764   1.366   7.056   8.909
19960TIP3    H159765   1.276   7.061   8.871
19960TIP3    H259766   1.414   7.117   8.852
19961TIP3   OH259767   1.574   7.241   8.815
19961TIP3    H159768   1.556   7.324   8.766
19961TIP3    H259769   1.602   7.181   8.742
19962TIP3   OH259770   1.387   5.515   8.894
19962TIP3    H159771   1.343   5.445   8.945
19962TIP3    H259772   1.455   5.465   8.846
19963TIP3   OH259773   1.906   5.394   8.796
19963TIP3    H159774   1.943   5.445   8.720
19963TIP3    H259775   1.811   5.411   8.787
19964TIP3   OH259776   2.001   5.491   8.559
19964TIP3    H159777   2.074   5.440   8.517
19964TIP3    H259778   2.034   5.583   8.544
19965TIP3   OH259779   1.086   5.256   8.782
19965TIP3    H159780   1.144   5.311   8.727
19965TIP3    H259781   1.096   5.296   8.869
19966TIP3   OH259782   1.626   5.404   8.767
19966TIP3    H159783   1.618   5.368   8.678
19966TIP3    H259784   1.609   5.323   8.821
19967TIP3   OH259785   1.652   5.325   8.332
19967TIP3    H159786   1.566   5.369   8.344
19967TIP3    H259787   1.636   5.239   8.377
19968TIP3   OH259788   0.581   5.165   8.354
19968TIP3    H159789   0.564   5.161   8.258
19968TIP3    H259790   0.588   5.261   8.368
19969TIP3   OH259791   1.056   5.425   8.414
19969TIP3    H159792   1.115   5.380   8.477
19969TIP3    H259793   1.076   5.519   8.438
19970TIP3   OH259794   0.913   6.857   7.945
19970TIP3    H159795   1.002   6.860   7.902
19970TIP3    H259796   0.864   6.818   7.869
19971TIP3   OH259797   1.630   6.968   8.014
19971TIP3    H159798   1.620   6.872   7.996
19971TIP3    H259799   1.584   7.007   7.936
19972TIP3   OH259800   1.848   7.106   9.202
19972TIP3    H159801   1.772   7.077   9.148
19972TIP3    H259802   1.837   7.203   9.195
19973TIP3   OH259803   3.117   6.484   7.962
19973TIP3    H159804   3.090   6.576   7.941
19973TIP3    H259805   3.040   6.437   7.926
19974TIP3   OH259806   3.118   6.487   8.342
19974TIP3    H159807   3.150   6.458   8.429
19974TIP3    H259808   3.077   6.407   8.307
19975TIP3   OH259809   2.417   6.381   8.709
19975TIP3    H159810   2.450   6.314   8.772
19975TIP3    H259811   2.496   6.436   8.697
19976TIP3   OH259812   3.360   6.788   8.025
19976TIP3    H159813   3.350   6.721   8.094
19976TIP3    H259814   3.393   6.864   8.075
19977TIP3   OH259815   2.390   6.790   8.433
19977TIP3    H159816   2.381   6.693   8.435
19977TIP3    H259817   2.487   6.799   8.422
19978TIP3   OH259818   2.095   5.991   8.217
19978TIP3    H159819   2.049   6.076   8.233
19978TIP3    H259820   2.023   5.941   8.173
19979TIP3   OH259821   2.154   6.281   8.390
19979TIP3    H159822   2.205   6.205   8.424
19979TIP3    H259823   2.214   6.317   8.323
19980TIP3   OH259824   3.012   7.251   8.041
19980TIP3    H159825   3.055   7.180   7.989
19980TIP3    H259826   3.007   7.210   8.128
19981TIP3   OH259827   2.916   6.711   8.392
19981TIP3    H159828   2.956   6.637   8.344
19981TIP3    H259829   2.999   6.758   8.416
19982TIP3   OH259830   3.930   6.030   8.388
19982TIP3    H159831   3.958   6.114   8.431
19982TIP3    H259832   3.954   6.047   8.295
19983TIP3   OH259833   3.326   6.211   8.424
19983TIP3    H159834   3.372   6.128   8.442
19983TIP3    H259835   3.298   6.197   8.331
19984TIP3   OH259836   2.667   5.872   8.388
19984TIP3    H159837   2.648   5.946   8.326
19984TIP3    H259838   2.619   5.800   8.343
19985TIP3   OH259839   3.361   5.964   8.009
19985TIP3    H159840   3.433   5.950   8.075
19985TIP3    H259841   3.413   5.999   7.934
19986TIP3   OH259842   2.300   6.074   8.496
19986TIP3    H159843   2.384   6.056   8.542
19986TIP3    H259844   2.314   6.019   8.415
19987TIP3   OH259845   2.741   6.272   8.290
19987TIP3    H159846   2.835   6.247   8.301
19987TIP3    H259847   2.703   6.188   8.256
19988TIP3   OH259848   4.002   6.236   8.563
19988TIP3    H159849   3.921   6.287   8.542
19988TIP3    H259850   4.030   6.280   8.645
19989TIP3   OH259851   2.663   5.855   8.822
19989TIP3    H159852   2.605   5.893   8.753
19989TIP3    H259853   2.610   5.875   8.902
19990TIP3   OH259854   3.005   6.703   7.831
19990TIP3    H159855   2.970   6.691   7.741
19990TIP3    H259856   2.964   6.788   7.856
19991TIP3   OH259857   2.770   6.631   8.616
19991TIP3    H159858   2.709   6.699   8.652
19991TIP3    H259859   2.813   6.680   8.543
19992TIP3   OH259860   3.569   5.968   8.183
19992TIP3    H159861   3.565   5.920   8.267
19992TIP3    H259862   3.625   6.045   8.206
19993TIP3   OH259863   2.535   5.971   8.607
19993TIP3    H159864   2.596   6.044   8.629
19993TIP3    H259865   2.583   5.931   8.531
19994TIP3   OH259866   2.600   6.827   8.715
19994TIP3    H159867   2.574   6.912   8.674
19994TIP3    H259868   2.520   6.811   8.770
19995TIP3   OH259869   1.991   6.516   7.951
19995TIP3    H159870   1.951   6.542   7.866
19995TIP3    H259871   2.021   6.602   7.986
19996TIP3   OH259872   3.430   7.031   8.190
19996TIP3    H159873   3.339   7.024   8.227
19996TIP3    H259874   3.425   7.117   8.144
19997TIP3   OH259875   3.724   5.927   8.553
19997TIP3    H159876   3.638   5.960   8.522
19997TIP3    H259877   3.785   5.961   8.485
19998TIP3   OH259878   3.020   5.575   8.537
19998TIP3    H159879   3.004   5.480   8.552
19998TIP3    H259880   2.943   5.614   8.583
19999TIP3   OH259881   3.131   7.078   7.863
19999TIP3    H159882   3.181   6.996   7.842
19999TIP3    H259883   3.192   7.144   7.823
20000TIP3   OH259884   3.272   6.862   7.773
20000TIP3    H159885   3.245   6.781   7.728
20000TIP3    H259886   3.309   6.827   7.857
20001TIP3   OH259887   3.655   6.943   8.537
20001TIP3    H159888   3.648   6.867   8.474
20001TIP3    H259889   3.640   7.019   8.476
20002TIP3   OH259890   2.949   6.336   7.791
20002TIP3    H159891   2.869   6.391   7.772
20002TIP3    H259892   2.995   6.340   7.706
20003TIP3   OH259893   2.911   6.118   7.510
20003TIP3    H159894   2.976   6.172   7.559
20003TIP3    H259895   2.971   6.058   7.462
20004TIP3   OH259896   3.851   6.577   8.378
20004TIP3    H159897   3.770   6.633   8.382
20004TIP3    H259898   3.885   6.603   8.290
20005TIP3   OH259899   3.295   6.418   7.764
20005TIP3    H159900   3.242   6.444   7.842
20005TIP3    H259901   3.380   6.395   7.807
20006TIP3   OH259902   3.531   6.458   8.677
20006TIP3    H159903   3.530   6.544   8.723
20006TIP3    H259904   3.446   6.463   8.629
20007TIP3   OH259905   2.527   6.417   8.182
20007TIP3    H159906   2.487   6.360   8.113
20007TIP3    H259907   2.606   6.364   8.209
20008TIP3   OH259908   2.656   6.825   8.331
20008TIP3    H159909   2.638   6.792   8.241
20008TIP3    H259910   2.747   6.792   8.346
20009TIP3   OH259911   2.664   6.389   8.535
20009TIP3    H159912   2.697   6.367   8.445
20009TIP3    H259913   2.708   6.475   8.553
20010TIP3   OH259914   3.188   7.028   8.311
20010TIP3    H159915   3.176   7.109   8.364
20010TIP3    H259916   3.174   6.956   8.375
20011TIP3   OH259917   2.803   6.945   8.862
20011TIP3    H159918   2.741   7.008   8.904
20011TIP3    H259919   2.740   6.892   8.809
20012TIP3   OH259920   3.139   6.276   7.587
20012TIP3    H159921   3.196   6.337   7.639
20012TIP3    H259922   3.164   6.300   7.495
20013TIP3   OH259923   2.560   6.500   8.963
20013TIP3    H159924   2.563   6.588   9.005
20013TIP3    H259925   2.464   6.482   8.969
20014TIP3   OH259926   2.880   6.958   7.870
20014TIP3    H159927   2.962   7.011   7.878
20014TIP3    H259928   2.822   7.018   7.822
20015TIP3   OH259929   2.598   7.114   8.945
20015TIP3    H159930   2.565   7.116   8.854
20015TIP3    H259931   2.518   7.091   8.997
20016TIP3   OH259932   3.649   5.521   7.634
20016TIP3    H159933   3.570   5.543   7.687
20016TIP3    H259934   3.665   5.604   7.586
20017TIP3   OH259935   2.395   6.260   7.985
20017TIP3    H159936   2.332   6.308   7.928
20017TIP3    H259937   2.351   6.175   7.995
20018TIP3   OH259938   3.452   6.886   7.188
20018TIP3    H159939   3.460   6.983   7.171
20018TIP3    H259940   3.545   6.857   7.175
20019TIP3   OH259941   2.176   6.645   8.891
20019TIP3    H159942   2.110   6.625   8.822
20019TIP3    H259943   2.213   6.557   8.913
20020TIP3   OH259944   2.031   6.835   8.531
20020TIP3    H159945   2.126   6.834   8.516
20020TIP3    H259946   2.019   6.918   8.579
20021TIP3   OH259947   3.894   7.290   8.586
20021TIP3    H159948   3.894   7.193   8.594
20021TIP3    H259949   3.810   7.313   8.630
20022TIP3   OH259950   3.003   7.073   8.718
20022TIP3    H159951   2.999   7.167   8.747
20022TIP3    H259952   2.929   7.034   8.771
20023TIP3   OH259953   2.762   7.202   7.668
20023TIP3    H159954   2.719   7.182   7.583
20023TIP3    H259955   2.729   7.291   7.689
20024TIP3   OH259956   2.199   7.053   8.051
20024TIP3    H159957   2.247   7.043   8.137
20024TIP3    H259958   2.140   6.976   8.054
20025TIP3   OH259959   2.963   7.106   7.306
20025TIP3    H159960   3.022   7.037   7.268
20025TIP3    H259961   2.999   7.114   7.397
20026TIP3   OH259962   3.014   7.155   7.577
20026TIP3    H159963   2.926   7.162   7.619
20026TIP3    H259964   3.066   7.115   7.649
20027TIP3   OH259965   3.780   6.416   8.859
20027TIP3    H159966   3.705   6.430   8.800
20027TIP3    H259967   3.798   6.320   8.847
20028TIP3   OH259968   2.382   6.827   8.880
20028TIP3    H159969   2.431   6.810   8.963
20028TIP3    H259970   2.307   6.765   8.887
20029TIP3   OH259971   2.781   5.649   8.667
20029TIP3    H159972   2.692   5.621   8.639
20029TIP3    H259973   2.758   5.733   8.711
20030TIP3   OH259974   3.315   5.765   8.859
20030TIP3    H159975   3.384   5.739   8.924
20030TIP3    H259976   3.231   5.747   8.906
20031TIP3   OH259977   3.550   6.192   8.774
20031TIP3    H159978   3.503   6.193   8.861
20031TIP3    H259979   3.531   6.282   8.740
20032TIP3   OH259980   3.210   6.314   7.326
20032TIP3    H159981   3.179   6.301   7.235
20032TIP3    H259982   3.290   6.368   7.310
20033TIP3   OH259983   2.926   5.700   7.636
20033TIP3    H159984   2.893   5.698   7.728
20033TIP3    H259985   2.887   5.616   7.603
20034TIP3   OH259986   2.712   6.167   8.683
20034TIP3    H159987   2.662   6.189   8.764
20034TIP3    H259988   2.697   6.248   8.629
20035TIP3   OH259989   2.598   6.052   8.198
20035TIP3    H159990   2.504   6.028   8.214
20035TIP3    H259991   2.610   6.012   8.108
20036TIP3   OH259992   3.085   6.137   7.924
20036TIP3    H159993   3.034   6.209   7.882
20036TIP3    H259994   3.142   6.108   7.850
20037TIP3   OH259995   3.262   6.417   9.013
20037TIP3    H159996   3.240   6.344   9.075
20037TIP3    H259997   3.357   6.428   9.031
20038TIP3   OH259998   3.242   6.166   8.165
20038TIP3    H159999   3.184   6.199   8.093
20038TIP3    H260000   3.276   6.085   8.120
20039TIP3   OH260001   2.532   6.196   8.893
20039TIP3    H160002   2.561   6.261   8.959
20039TIP3    H260003   2.523   6.115   8.946
20040TIP3   OH260004   2.580   5.671   7.602
20040TIP3    H160005   2.572   5.671   7.699
20040TIP3    H260006   2.504   5.728   7.577
20041TIP3   OH260007   2.125   5.714   8.476
20041TIP3    H160008   2.199   5.750   8.528
20041TIP3    H260009   2.166   5.690   8.392
20042TIP3   OH260010   2.095   5.698   7.992
20042TIP3    H160011   2.139   5.737   7.913
20042TIP3    H260012   2.034   5.772   8.013
20043TIP3   OH260013   3.251   6.412   8.587
20043TIP3    H160014   3.285   6.340   8.528
20043TIP3    H260015   3.223   6.358   8.664
20044TIP3   OH260016   2.924   5.871   8.258
20044TIP3    H160017   2.843   5.873   8.312
20044TIP3    H260018   2.994   5.875   8.326
20045TIP3   OH260019   2.357   5.931   8.268
20045TIP3    H160020   2.263   5.939   8.239
20045TIP3    H260021   2.381   5.840   8.241
20046TIP3   OH260022   2.627   5.925   7.956
20046TIP3    H160023   2.720   5.943   7.935
20046TIP3    H260024   2.580   5.949   7.872
20047TIP3   OH260025   3.417   5.951   8.463
20047TIP3    H160026   3.380   5.964   8.553
20047TIP3    H260027   3.350   5.891   8.424
20048TIP3   OH260028   2.471   5.957   7.733
20048TIP3    H160029   2.399   5.916   7.682
20048TIP3    H260030   2.523   5.997   7.661
20049TIP3   OH260031   3.579   7.637   8.678
20049TIP3    H160032   3.579   7.662   8.584
20049TIP3    H260033   3.663   7.680   8.707
20050TIP3   OH260034   2.542   6.748   9.102
20050TIP3    H160035   2.622   6.780   9.148
20050TIP3    H260036   2.477   6.750   9.175
20051TIP3   OH260037   3.007   6.200   8.353
20051TIP3    H160038   3.083   6.168   8.302
20051TIP3    H260039   3.021   6.159   8.440
20052TIP3   OH260040   2.529   5.691   8.235
20052TIP3    H160041   2.495   5.611   8.280
20052TIP3    H260042   2.577   5.654   8.160
20053TIP3   OH260043   2.983   6.097   8.652
20053TIP3    H160044   2.894   6.137   8.661
20053TIP3    H260045   3.041   6.161   8.698
20054TIP3   OH260046   2.720   6.489   7.742
20054TIP3    H160047   2.646   6.426   7.730
20054TIP3    H260048   2.700   6.524   7.833
20055TIP3   OH260049   3.621   6.728   8.369
20055TIP3    H160050   3.648   6.777   8.288
20055TIP3    H260051   3.536   6.687   8.341
20056TIP3   OH260052   3.178   5.804   7.597
20056TIP3    H160053   3.082   5.788   7.610
20056TIP3    H260054   3.190   5.897   7.627
20057TIP3   OH260055   3.114   6.806   8.739
20057TIP3    H160056   3.141   6.792   8.830
20057TIP3    H260057   3.081   6.897   8.740
20058TIP3   OH260058   3.248   6.048   7.705
20058TIP3    H160059   3.344   6.056   7.722
20058TIP3    H260060   3.229   6.130   7.655
20059TIP3   OH260061   2.410   6.510   8.417
20059TIP3    H160062   2.448   6.485   8.330
20059TIP3    H260063   2.458   6.450   8.477
20060TIP3   OH260064   2.870   6.640   7.569
20060TIP3    H160065   2.821   6.726   7.570
20060TIP3    H260066   2.812   6.586   7.627
20061TIP3   OH260067   2.294   6.433   9.029
20061TIP3    H160068   2.314   6.421   9.124
20061TIP3    H260069   2.224   6.366   9.015
20062TIP3   OH260070   3.019   6.548   9.049
20062TIP3    H160071   2.958   6.490   8.999
20062TIP3    H260072   3.106   6.513   9.021
20063TIP3   OH260073   3.279   7.061   8.640
20063TIP3    H160074   3.182   7.066   8.647
20063TIP3    H260075   3.306   7.121   8.712
20064TIP3   OH260076   3.688   6.142   7.544
20064TIP3    H160077   3.626   6.097   7.481
20064TIP3    H260078   3.685   6.232   7.503
20065TIP3   OH260079   3.905   6.996   8.625
20065TIP3    H160080   3.808   6.991   8.612
20065TIP3    H260081   3.935   6.968   8.535
20066TIP3   OH260082   3.389   6.960   7.450
20066TIP3    H160083   3.366   6.887   7.509
20066TIP3    H260084   3.403   6.916   7.364
20067TIP3   OH260085   3.385   6.589   8.290
20067TIP3    H160086   3.291   6.564   8.300
20067TIP3    H260087   3.420   6.510   8.244
20068TIP3   OH260088   2.515   6.818   8.045
20068TIP3    H160089   2.517   6.898   7.989
20068TIP3    H260090   2.420   6.801   8.049
20069TIP3   OH260091   2.078   6.120   7.746
20069TIP3    H160092   2.123   6.205   7.764
20069TIP3    H260093   2.001   6.127   7.806
20070TIP3   OH260094   2.649   6.581   7.987
20070TIP3    H160095   2.617   6.672   8.003
20070TIP3    H260096   2.611   6.533   8.063
20071TIP3   OH260097   2.783   7.160   8.510
20071TIP3    H160098   2.822   7.234   8.458
20071TIP3    H260099   2.861   7.126   8.555
20072TIP3   OH260100   2.434   7.055   7.895
20072TIP3    H160101   2.347   7.064   7.939
20072TIP3    H260102   2.466   7.148   7.896
20073TIP3   OH260103   3.170   6.795   8.470
20073TIP3    H160104   3.162   6.790   8.567
20073TIP3    H260105   3.251   6.744   8.454
20074TIP3   OH260106   3.147   6.686   7.350
20074TIP3    H160107   3.195   6.662   7.433
20074TIP3    H260108   3.055   6.667   7.375
20075TIP3   OH260109   3.417   7.329   8.519
20075TIP3    H160110   3.336   7.276   8.505
20075TIP3    H260111   3.408   7.396   8.447
20076TIP3   OH260112   3.484   7.162   7.171
20076TIP3    H160113   3.522   7.235   7.120
20076TIP3    H260114   3.403   7.207   7.205
20077TIP3   OH260115   2.505   5.938   9.038
20077TIP3    H160116   2.409   5.941   9.053
20077TIP3    H260117   2.535   5.883   9.112
20078TIP3   OH260118   3.305   6.622   7.572
20078TIP3    H160119   3.298   6.554   7.642
20078TIP3    H260120   3.402   6.620   7.556
20079TIP3   OH260121   2.220   7.024   8.670
20079TIP3    H160122   2.275   6.951   8.704
20079TIP3    H260123   2.252   7.098   8.723
20080TIP3   OH260124   2.507   6.669   7.353
20080TIP3    H160125   2.528   6.578   7.323
20080TIP3    H260126   2.490   6.654   7.447
20081TIP3   OH260127   2.456   6.672   7.628
20081TIP3    H160128   2.533   6.650   7.682
20081TIP3    H260129   2.458   6.771   7.630
20082TIP3   OH260130   2.191   6.366   7.828
20082TIP3    H160131   2.125   6.412   7.884
20082TIP3    H260132   2.206   6.434   7.759
20083TIP3   OH260133   3.339   6.005   8.721
20083TIP3    H160134   3.422   6.044   8.754
20083TIP3    H260135   3.330   5.924   8.775
20084TIP3   OH260136   3.223   5.753   7.884
20084TIP3    H160137   3.210   5.779   7.791
20084TIP3    H260138   3.263   5.835   7.922
20085TIP3   OH260139   2.724   6.867   7.578
20085TIP3    H160140   2.637   6.899   7.609
20085TIP3    H260141   2.737   6.925   7.501
20086TIP3   OH260142   2.909   5.933   7.986
20086TIP3    H160143   2.973   6.005   7.967
20086TIP3    H260144   2.916   5.926   8.084
20087TIP3   OH260145   3.179   6.251   8.795
20087TIP3    H160146   3.202   6.304   8.874
20087TIP3    H260147   3.236   6.172   8.805
20088TIP3   OH260148   3.054   5.658   8.088
20088TIP3    H160149   3.046   5.735   8.147
20088TIP3    H260150   3.116   5.694   8.020
20089TIP3   OH260151   2.466   6.945   7.640
20089TIP3    H160152   2.437   7.015   7.576
20089TIP3    H260153   2.450   6.989   7.726
20090TIP3   OH260154   2.567   5.659   7.879
20090TIP3    H160155   2.564   5.751   7.913
20090TIP3    H260156   2.663   5.642   7.887
20091TIP3   OH260157   3.818   6.152   8.781
20091TIP3    H160158   3.720   6.146   8.779
20091TIP3    H260159   3.840   6.125   8.690
20092TIP3   OH260160   3.471   6.347   8.165
20092TIP3    H160161   3.396   6.285   8.176
20092TIP3    H260162   3.544   6.301   8.212
20093TIP3   OH260163   2.183   6.575   7.634
20093TIP3    H160164   2.250   6.645   7.642
20093TIP3    H260165   2.227   6.519   7.566
20094TIP3   OH260166   2.126   5.850   7.767
20094TIP3    H160167   2.131   5.948   7.764
20094TIP3    H260168   2.042   5.834   7.722
20095TIP3   OH260169   3.441   7.303   8.113
20095TIP3    H160170   3.398   7.349   8.037
20095TIP3    H260171   3.535   7.324   8.093
20096TIP3   OH260172   2.516   5.571   8.639
20096TIP3    H160173   2.485   5.539   8.552
20096TIP3    H260174   2.504   5.492   8.695
20097TIP3   OH260175   2.052   6.786   8.019
20097TIP3    H160176   1.983   6.820   8.078
20097TIP3    H260177   2.026   6.829   7.934
20098TIP3   OH260178   2.213   7.326   9.095
20098TIP3    H160179   2.299   7.326   9.141
20098TIP3    H260180   2.195   7.231   9.087
20099TIP3   OH260181   2.686   7.296   9.140
20099TIP3    H160182   2.783   7.288   9.143
20099TIP3    H260183   2.664   7.236   9.066
20100TIP3   OH260184   2.673   6.877   7.278
20100TIP3    H160185   2.624   6.796   7.303
20100TIP3    H260186   2.749   6.838   7.229
20101TIP3   OH260187   3.329   7.208   8.874
20101TIP3    H160188   3.323   7.134   8.939
20101TIP3    H260189   3.412   7.252   8.900
20102TIP3   OH260190   3.119   6.919   7.178
20102TIP3    H160191   3.161   6.851   7.234
20102TIP3    H260192   3.172   6.914   7.096
20103TIP3   OH260193   2.341   6.736   9.293
20103TIP3    H160194   2.359   6.640   9.295
20103TIP3    H260195   2.255   6.739   9.246
20104TIP3   OH260196   2.316   6.386   7.488
20104TIP3    H160197   2.375   6.359   7.560
20104TIP3    H260198   2.381   6.392   7.414
20105TIP3   OH260199   2.949   6.824   9.066
20105TIP3    H160200   2.907   6.843   8.980
20105TIP3    H260201   2.979   6.731   9.056
20106TIP3   OH260202   2.820   6.578   7.297
20106TIP3    H160203   2.831   6.592   7.393
20106TIP3    H260204   2.815   6.481   7.292
20107TIP3   OH260205   3.442   6.833   8.675
20107TIP3    H160206   3.518   6.872   8.627
20107TIP3    H260207   3.374   6.901   8.658
20108TIP3   OH260208   2.460   6.470   9.273
20108TIP3    H160209   2.538   6.418   9.248
20108TIP3    H260210   2.490   6.507   9.360
20109TIP3   OH260211   2.525   6.292   7.708
20109TIP3    H160212   2.500   6.249   7.791
20109TIP3    H260213   2.563   6.217   7.656
20110TIP3   OH260214   2.797   6.355   8.935
20110TIP3    H160215   2.719   6.416   8.937
20110TIP3    H260216   2.847   6.390   8.857
20111TIP3   OH260217   2.629   6.084   7.550
20111TIP3    H160218   2.602   6.092   7.456
20111TIP3    H260219   2.726   6.093   7.542
20112TIP3   OH260220   3.317   6.759   9.072
20112TIP3    H160221   3.388   6.729   9.015
20112TIP3    H260222   3.312   6.688   9.138
20113TIP3   OH260223   3.449   6.413   7.213
20113TIP3    H160224   3.429   6.372   7.127
20113TIP3    H260225   3.420   6.505   7.193
20114TIP3   OH260226   2.921   6.145   9.060
20114TIP3    H160227   2.920   6.066   9.003
20114TIP3    H260228   2.877   6.212   9.003
20115TIP3   OH260229   2.922   5.928   8.870
20115TIP3    H160230   2.951   5.973   8.788
20115TIP3    H260231   2.829   5.908   8.850
20116TIP3   OH260232   2.949   6.467   8.743
20116TIP3    H160233   3.033   6.478   8.696
20116TIP3    H260234   2.892   6.534   8.698
20117TIP3   OH260235   3.534   6.433   9.123
20117TIP3    H160236   3.582   6.349   9.128
20117TIP3    H260237   3.601   6.490   9.082
20118TIP3   OH260238   3.571   6.690   8.864
20118TIP3    H160239   3.515   6.743   8.802
20118TIP3    H260240   3.659   6.707   8.824
20119TIP3   OH260241   2.801   6.257   9.292
20119TIP3    H160242   2.729   6.191   9.305
20119TIP3    H260243   2.834   6.230   9.204
20120TIP3   OH260244   3.054   5.695   8.940
20120TIP3    H160245   3.007   5.777   8.915
20120TIP3    H260246   2.985   5.628   8.925
20121TIP3   OH260247   3.179   6.198   9.154
20121TIP3    H160248   3.163   6.188   9.249
20121TIP3    H260249   3.090   6.175   9.120
20122TIP3   OH260250   3.419   6.151   9.008
20122TIP3    H160251   3.344   6.151   9.071
20122TIP3    H260252   3.493   6.120   9.065
20123TIP3   OH260253   3.643   6.089   9.161
20123TIP3    H160254   3.659   5.994   9.177
20123TIP3    H260255   3.644   6.127   9.251
20124TIP3   OH260256   2.632   6.042   9.330
20124TIP3    H160257   2.643   5.950   9.301
20124TIP3    H260258   2.676   6.036   9.419
20125TIP3   OH260259   3.146   5.700   9.198
20125TIP3    H160260   3.215   5.632   9.187
20125TIP3    H260261   3.106   5.699   9.108
20126TIP3   OH260262   3.214   5.924   9.346
20126TIP3    H160263   3.189   5.853   9.283
20126TIP3    H260264   3.135   5.983   9.344
20127TIP3   OH260265   2.436   7.149   7.453
20127TIP3    H160266   2.532   7.143   7.435
20127TIP3    H260267   2.407   7.197   7.374
20128TIP3   OH260268   1.915   6.529   7.671
20128TIP3    H160269   2.010   6.552   7.656
20128TIP3    H260270   1.910   6.441   7.628
20129TIP3   OH260271   1.833   7.143   8.082
20129TIP3    H160272   1.764   7.082   8.046
20129TIP3    H260273   1.876   7.084   8.147
20130TIP3   OH260274   1.968   6.992   8.268
20130TIP3    H160275   1.951   6.921   8.331
20130TIP3    H260276   2.019   7.054   8.323
20131TIP3   OH260277   3.691   7.401   8.068
20131TIP3    H160278   3.727   7.433   8.152
20131TIP3    H260279   3.760   7.426   8.005
20132TIP3   OH260280   3.719   7.416   8.357
20132TIP3    H160281   3.682   7.326   8.348
20132TIP3    H260282   3.804   7.396   8.398
20133TIP3   OH260283   3.779   7.091   8.926
20133TIP3    H160284   3.688   7.117   8.938
20133TIP3    H260285   3.825   7.178   8.924
20134TIP3   OH260286   3.584   6.603   7.543
20134TIP3    H160287   3.651   6.668   7.513
20134TIP3    H260288   3.630   6.565   7.622
20135TIP3   OH260289   3.712   6.469   7.745
20135TIP3    H160290   3.648   6.430   7.809
20135TIP3    H260291   3.781   6.507   7.804
20136TIP3   OH260292   3.765   6.861   8.177
20136TIP3    H160293   3.820   6.799   8.127
20136TIP3    H260294   3.766   6.940   8.119
20137TIP3   OH260295   3.597   7.160   8.377
20137TIP3    H160296   3.525   7.207   8.423
20137TIP3    H260297   3.550   7.115   8.304
20138TIP3   OH260298   3.650   6.377   7.395
20138TIP3    H160299   3.579   6.382   7.327
20138TIP3    H260300   3.625   6.454   7.450
20139TIP3   OH260301   3.521   6.049   7.351
20139TIP3    H160302   3.478   6.095   7.278
20139TIP3    H260303   3.495   5.956   7.333
20140TIP3   OH260304   3.524   6.328   7.895
20140TIP3    H160305   3.536   6.232   7.891
20140TIP3    H260306   3.512   6.343   7.992
20141TIP3   OH260307   2.153   6.396   8.644
20141TIP3    H160308   2.150   6.368   8.550
20141TIP3    H260309   2.250   6.401   8.659
20142TIP3   OH260310   3.813   6.752   8.751
20142TIP3    H160311   3.886   6.686   8.742
20142TIP3    H260312   3.841   6.822   8.690
20143TIP3   OH260313   3.995   6.555   8.770
20143TIP3    H160314   3.923   6.502   8.811
20143TIP3    H260315   4.071   6.494   8.783
20144TIP3   OH260316   3.467   5.781   7.327
20144TIP3    H160317   3.546   5.758   7.382
20144TIP3    H260318   3.397   5.725   7.363
20145TIP3   OH260319   3.522   6.043   7.789
20145TIP3    H160320   3.564   5.955   7.803
20145TIP3    H260321   3.580   6.079   7.720
20146TIP3   OH260322   3.684   6.217   8.284
20146TIP3    H160323   3.770   6.243   8.243
20146TIP3    H260324   3.699   6.255   8.373
20147TIP3   OH260325   3.754   6.362   8.518
20147TIP3    H160326   3.675   6.398   8.563
20147TIP3    H260327   3.787   6.440   8.469
20148TIP3   OH260328   2.369   6.095   9.308
20148TIP3    H160329   2.467   6.089   9.312
20148TIP3    H260330   2.345   6.009   9.349
20149TIP3   OH260331   4.203   5.950   9.073
20149TIP3    H160332   4.264   5.887   9.029
20149TIP3    H260333   4.174   6.006   8.998
20150TIP3   OH260334   3.632   5.794   7.827
20150TIP3    H160335   3.682   5.778   7.910
20150TIP3    H260336   3.572   5.716   7.827
20151TIP3   OH260337   2.331   5.780   8.650
20151TIP3    H160338   2.395   5.706   8.657
20151TIP3    H260339   2.392   5.855   8.640
20152TIP3   OH260340   2.134   6.053   8.721
20152TIP3    H160341   2.183   6.047   8.636
20152TIP3    H260342   2.158   6.141   8.750
20153TIP3   OH260343   4.074   6.090   8.881
20153TIP3    H160344   3.987   6.133   8.897
20153TIP3    H260345   4.046   6.019   8.819
20154TIP3   OH260346   3.710   5.731   7.456
20154TIP3    H160347   3.759   5.658   7.414
20154TIP3    H260348   3.777   5.802   7.457
20155TIP3   OH260349   2.117   5.554   8.219
20155TIP3    H160350   2.024   5.553   8.246
20155TIP3    H260351   2.115   5.614   8.141
20156TIP3   OH260352   3.276   7.261   7.727
20156TIP3    H160353   3.327   7.246   7.644
20156TIP3    H260354   3.332   7.325   7.773
20157TIP3   OH260355   2.341   5.633   9.026
20157TIP3    H160356   2.289   5.633   9.108
20157TIP3    H260357   2.277   5.675   8.965
20158TIP3   OH260358   2.379   7.062   9.111
20158TIP3    H160359   2.286   7.036   9.095
20158TIP3    H260360   2.387   7.049   9.206
20159TIP3   OH260361   2.557   7.098   8.660
20159TIP3    H160362   2.508   7.174   8.621
20159TIP3    H260363   2.643   7.112   8.614
20160TIP3   OH260364   3.000   7.340   8.796
20160TIP3    H160365   3.041   7.345   8.884
20160TIP3    H260366   3.064   7.391   8.742
20161TIP3   OH260367   3.179   7.492   8.657
20161TIP3    H160368   3.249   7.445   8.609
20161TIP3    H260369   3.231   7.550   8.716
20162TIP3   OH260370   3.972   5.856   8.758
20162TIP3    H160371   3.884   5.852   8.717
20162TIP3    H260372   4.004   5.763   8.745
20163TIP3   OH260373   2.233   7.352   8.687
20163TIP3    H160374   2.143   7.380   8.662
20163TIP3    H260375   2.247   7.407   8.766
20164TIP3   OH260376   2.468   7.331   8.541
20164TIP3    H160377   2.381   7.344   8.585
20164TIP3    H260378   2.449   7.364   8.451
20165TIP3   OH260379   2.893   7.359   8.341
20165TIP3    H160380   2.826   7.379   8.273
20165TIP3    H260381   2.907   7.447   8.381
20166TIP3   OH260382   3.164   7.299   8.393
20166TIP3    H160383   3.070   7.317   8.371
20166TIP3    H260384   3.209   7.371   8.347
20167TIP3   OH260385   3.367   7.490   8.304
20167TIP3    H160386   3.354   7.576   8.258
20167TIP3    H260387   3.397   7.432   8.231
20168TIP3   OH260388   2.142   7.147   8.427
20168TIP3    H160389   2.168   7.121   8.518
20168TIP3    H260390   2.215   7.104   8.376
20169TIP3   OH260391   2.337   7.019   8.286
20169TIP3    H160392   2.354   6.935   8.335
20169TIP3    H260393   2.427   7.057   8.280
20170TIP3   OH260394   2.603   7.114   8.289
20170TIP3    H160395   2.636   7.024   8.273
20170TIP3    H260396   2.649   7.135   8.372
20171TIP3   OH260397   3.180   5.771   8.375
20171TIP3    H160398   3.138   5.699   8.425
20171TIP3    H260399   3.254   5.725   8.330
20172TIP3   OH260400   3.700   5.650   8.284
20172TIP3    H160401   3.741   5.699   8.208
20172TIP3    H260402   3.606   5.672   8.274
20173TIP3   OH260403   3.796   5.747   8.046
20173TIP3    H160404   3.868   5.695   8.004
20173TIP3    H260405   3.831   5.838   8.031
20174TIP3   OH260406   2.428   5.478   8.392
20174TIP3    H160407   2.335   5.446   8.392
20174TIP3    H260408   2.476   5.393   8.387
20175TIP3   OH260409   2.216   5.348   8.040
20175TIP3    H160410   2.245   5.406   7.967
20175TIP3    H260411   2.186   5.414   8.106
20176TIP3   OH260412   2.873   5.508   8.273
20176TIP3    H160413   2.928   5.558   8.210
20176TIP3    H260414   2.895   5.552   8.356
20177TIP3   OH260415   3.413   5.658   8.256
20177TIP3    H160416   3.421   5.622   8.167
20177TIP3    H260417   3.402   5.576   8.310
20178TIP3   OH260418   3.447   5.581   7.817
20178TIP3    H160419   3.362   5.625   7.832
20178TIP3    H260420   3.433   5.496   7.863
20179TIP3   OH260421   1.932   6.921   7.819
20179TIP3    H160422   1.847   6.889   7.785
20179TIP3    H260423   1.923   7.015   7.796
20180TIP3   OH260424   2.332   5.506   7.804
20180TIP3    H160425   2.382   5.446   7.745
20180TIP3    H260426   2.404   5.562   7.839
20181TIP3   OH260427   2.844   5.682   7.902
20181TIP3    H160428   2.907   5.639   7.962
20181TIP3    H260429   2.863   5.776   7.925
20182TIP3   OH260430   2.704   7.114   7.402
20182TIP3    H160431   2.793   7.132   7.365
20182TIP3    H260432   2.681   7.036   7.346
20183TIP3   OH260433   3.421   7.227   7.495
20183TIP3    H160434   3.414   7.129   7.482
20183TIP3    H260435   3.378   7.259   7.413
20184TIP3   OH260436   2.632   5.756   9.272
20184TIP3    H160437   2.604   5.683   9.330
20184TIP3    H260438   2.727   5.762   9.299
20185TIP3   OH260439   2.884   5.752   9.380
20185TIP3    H160440   2.973   5.733   9.345
20185TIP3    H260441   2.879   5.694   9.459
20186TIP3   OH260442   2.006   6.942   7.455
20186TIP3    H160443   2.007   6.970   7.548
20186TIP3    H260444   2.095   6.902   7.445
20187TIP3   OH260445   3.711   5.819   9.188
20187TIP3    H160446   3.733   5.787   9.278
20187TIP3    H260447   3.799   5.816   9.145
20188TIP3   OH260448   3.636   7.369   8.691
20188TIP3    H160449   3.565   7.343   8.629
20188TIP3    H260450   3.630   7.466   8.684
20189TIP3   OH260451   4.916   6.741   7.445
20189TIP3    H160452   4.889   6.833   7.429
20189TIP3    H260453   4.837   6.694   7.416
20190TIP3   OH260454   4.921   6.738   7.824
20190TIP3    H160455   4.948   6.719   7.916
20190TIP3    H260456   4.871   6.659   7.800
20191TIP3   OH260457   4.212   6.641   8.200
20191TIP3    H160458   4.249   6.573   8.259
20191TIP3    H260459   4.289   6.697   8.185
20192TIP3   OH260460   5.159   7.047   7.510
20192TIP3    H160461   5.142   6.981   7.579
20192TIP3    H260462   5.185   7.124   7.563
20193TIP3   OH260463   4.167   7.026   7.969
20193TIP3    H160464   4.179   6.932   7.946
20193TIP3    H260465   4.247   7.064   7.928
20194TIP3   OH260466   3.891   6.246   7.703
20194TIP3    H160467   3.850   6.332   7.720
20194TIP3    H260468   3.818   6.199   7.660
20195TIP3   OH260469   3.948   6.536   7.873
20195TIP3    H160470   4.001   6.462   7.910
20195TIP3    H260471   4.016   6.587   7.826
20196TIP3   OH260472   4.799   7.505   7.523
20196TIP3    H160473   4.854   7.433   7.486
20196TIP3    H260474   4.809   7.491   7.619
20197TIP3   OH260475   4.720   6.963   7.878
20197TIP3    H160476   4.762   6.892   7.828
20197TIP3    H260477   4.801   7.011   7.906
20198TIP3   OH260478   5.728   6.288   7.875
20198TIP3    H160479   5.755   6.372   7.917
20198TIP3    H260480   5.747   6.306   7.782
20199TIP3   OH260481   5.125   6.467   7.910
20199TIP3    H160482   5.168   6.382   7.928
20199TIP3    H260483   5.094   6.454   7.818
20200TIP3   OH260484   4.464   6.128   7.874
20200TIP3    H160485   4.444   6.202   7.812
20200TIP3    H260486   4.414   6.056   7.830
20201TIP3   OH260487   5.158   6.220   7.496
20201TIP3    H160488   5.230   6.205   7.561
20201TIP3    H260489   5.210   6.256   7.421
20202TIP3   OH260490   4.095   6.330   7.983
20202TIP3    H160491   4.180   6.313   8.029
20202TIP3    H260492   4.110   6.277   7.902
20203TIP3   OH260493   4.538   6.528   7.774
20203TIP3    H160494   4.632   6.503   7.787
20203TIP3    H260495   4.499   6.444   7.742
20204TIP3   OH260496   5.800   6.497   8.046
20204TIP3    H160497   5.717   6.544   8.024
20204TIP3    H260498   5.816   6.528   8.136
20205TIP3   OH260499   4.459   6.113   8.309
20205TIP3    H160500   4.401   6.151   8.240
20205TIP3    H260501   4.407   6.133   8.389
20206TIP3   OH260502   4.808   6.964   7.313
20206TIP3    H160503   4.765   6.941   7.229
20206TIP3    H260504   4.767   7.051   7.331
20207TIP3   OH260505   4.566   6.886   8.105
20207TIP3    H160506   4.504   6.954   8.141
20207TIP3    H260507   4.604   6.935   8.029
20208TIP3   OH260508   5.367   6.224   7.670
20208TIP3    H160509   5.354   6.178   7.754
20208TIP3    H260510   5.419   6.301   7.696
20209TIP3   OH260511   4.331   6.227   8.093
20209TIP3    H160512   4.391   6.301   8.115
20209TIP3    H260513   4.380   6.187   8.018
20210TIP3   OH260514   4.397   7.079   8.206
20210TIP3    H160515   4.373   7.157   8.152
20210TIP3    H260516   4.315   7.071   8.260
20211TIP3   OH260517   3.786   6.770   7.437
20211TIP3    H160518   3.748   6.801   7.353
20211TIP3    H260519   3.817   6.856   7.476
20212TIP3   OH260520   5.230   7.286   7.671
20212TIP3    H160521   5.141   7.276   7.714
20212TIP3    H260522   5.220   7.375   7.633
20213TIP3   OH260523   5.520   6.187   8.041
20213TIP3    H160524   5.432   6.215   8.011
20213TIP3    H260525   5.579   6.219   7.969
20214TIP3   OH260526   4.816   5.831   8.024
20214TIP3    H160527   4.800   5.736   8.040
20214TIP3    H260528   4.739   5.870   8.070
20215TIP3   OH260529   4.937   7.333   7.357
20215TIP3    H160530   4.986   7.251   7.333
20215TIP3    H260531   4.994   7.400   7.314
20216TIP3   OH260532   5.074   7.118   7.258
20216TIP3    H160533   5.034   7.038   7.222
20216TIP3    H260534   5.111   7.085   7.343
20217TIP3   OH260535   5.457   7.200   8.022
20217TIP3    H160536   5.441   7.124   7.962
20217TIP3    H260537   5.434   7.276   7.964
20218TIP3   OH260538   4.743   6.592   7.278
20218TIP3    H160539   4.664   6.646   7.257
20218TIP3    H260540   4.791   6.594   7.193
20219TIP3   OH260541   4.704   6.380   6.993
20219TIP3    H160542   4.770   6.430   7.044
20219TIP3    H260543   4.763   6.317   6.946
20220TIP3   OH260544   5.650   6.838   7.867
20220TIP3    H160545   5.566   6.889   7.871
20220TIP3    H260546   5.680   6.863   7.776
20221TIP3   OH260547   5.093   6.676   7.249
20221TIP3    H160548   5.038   6.701   7.327
20221TIP3    H260549   5.178   6.652   7.293
20222TIP3   OH260550   5.328   6.716   8.163
20222TIP3    H160551   5.325   6.801   8.211
20222TIP3    H260552   5.241   6.720   8.117
20223TIP3   OH260553   4.328   6.673   7.664
20223TIP3    H160554   4.288   6.615   7.596
20223TIP3    H260555   4.405   6.621   7.695
20224TIP3   OH260556   4.440   7.028   7.838
20224TIP3    H160557   4.428   7.052   7.745
20224TIP3    H260558   4.537   7.030   7.848
20225TIP3   OH260559   4.458   6.649   8.020
20225TIP3    H160560   4.493   6.629   7.931
20225TIP3    H260561   4.501   6.735   8.041
20226TIP3   OH260562   4.991   7.275   7.792
20226TIP3    H160563   4.974   7.364   7.828
20226TIP3    H260564   4.970   7.216   7.866
20227TIP3   OH260565   4.599   7.198   8.356
20227TIP3    H160566   4.538   7.264   8.394
20227TIP3    H260567   4.538   7.149   8.298
20228TIP3   OH260568   4.934   6.534   7.076
20228TIP3    H160569   4.992   6.594   7.128
20228TIP3    H260570   4.960   6.558   6.984
20229TIP3   OH260571   4.357   6.753   8.454
20229TIP3    H160572   4.362   6.843   8.491
20229TIP3    H260573   4.260   6.740   8.455
20230TIP3   OH260574   4.682   7.228   7.329
20230TIP3    H160575   4.762   7.270   7.365
20230TIP3    H260576   4.610   7.267   7.381
20231TIP3   OH260577   4.395   7.371   8.430
20231TIP3    H160578   4.364   7.372   8.337
20231TIP3    H260579   4.313   7.347   8.479
20232TIP3   OH260580   5.447   5.778   7.126
20232TIP3    H160581   5.366   5.800   7.177
20232TIP3    H260582   5.461   5.860   7.075
20233TIP3   OH260583   4.195   6.514   7.464
20233TIP3    H160584   4.128   6.563   7.413
20233TIP3    H260585   4.148   6.433   7.485
20234TIP3   OH260586   5.249   7.143   6.673
20234TIP3    H160587   5.258   7.239   6.658
20234TIP3    H260588   5.342   7.113   6.660
20235TIP3   OH260589   3.970   6.901   8.382
20235TIP3    H160590   3.912   6.881   8.306
20235TIP3    H260591   4.010   6.814   8.402
20236TIP3   OH260592   3.834   7.089   8.018
20236TIP3    H160593   3.928   7.077   7.996
20236TIP3    H260594   3.838   7.171   8.070
20237TIP3   OH260595   5.693   7.548   8.069
20237TIP3    H160596   5.689   7.451   8.081
20237TIP3    H260597   5.610   7.574   8.115
20238TIP3   OH260598   4.812   7.328   8.203
20238TIP3    H160599   4.825   7.427   8.204
20238TIP3    H260600   4.736   7.317   8.264
20239TIP3   OH260601   3.979   7.304   7.510
20239TIP3    H160602   4.046   7.322   7.580
20239TIP3    H260603   3.935   7.226   7.548
20240TIP3   OH260604   4.745   7.358   6.801
20240TIP3    H160605   4.804   7.291   6.762
20240TIP3    H260606   4.784   7.369   6.890
20241TIP3   OH260607   4.801   7.410   7.076
20241TIP3    H160608   4.733   7.373   7.133
20241TIP3    H260609   4.881   7.384   7.125
20242TIP3   OH260610   5.582   6.676   8.343
20242TIP3    H160611   5.500   6.692   8.294
20242TIP3    H260612   5.595   6.580   8.330
20243TIP3   OH260613   4.178   7.084   8.370
20243TIP3    H160614   4.228   7.065   8.452
20243TIP3    H260615   4.103   7.021   8.376
20244TIP3   OH260616   4.577   5.906   8.152
20244TIP3    H160617   4.487   5.876   8.126
20244TIP3    H260618   4.552   5.989   8.197
20245TIP3   OH260619   5.111   6.022   8.346
20245TIP3    H160620   5.179   5.996   8.411
20245TIP3    H260621   5.027   6.003   8.393
20246TIP3   OH260622   5.351   6.453   8.265
20246TIP3    H160623   5.300   6.450   8.349
20246TIP3    H260624   5.326   6.540   8.228
20247TIP3   OH260625   5.008   6.580   6.819
20247TIP3    H160626   4.977   6.555   6.730
20247TIP3    H260627   5.090   6.627   6.797
20248TIP3   OH260628   4.721   5.957   7.122
20248TIP3    H160629   4.689   5.954   7.215
20248TIP3    H260630   4.683   5.873   7.089
20249TIP3   OH260631   4.507   6.425   8.167
20249TIP3    H160632   4.460   6.447   8.250
20249TIP3    H260633   4.492   6.506   8.114
20250TIP3   OH260634   4.394   6.307   7.684
20250TIP3    H160635   4.300   6.284   7.702
20250TIP3    H260636   4.405   6.267   7.595
20251TIP3   OH260637   4.882   6.394   7.411
20251TIP3    H160638   4.830   6.466   7.370
20251TIP3    H260639   4.938   6.364   7.337
20252TIP3   OH260640   5.058   6.671   8.495
20252TIP3    H160641   5.036   6.599   8.559
20252TIP3    H260642   5.151   6.689   8.519
20253TIP3   OH260643   5.039   6.422   7.652
20253TIP3    H160644   4.980   6.455   7.582
20253TIP3    H260645   5.072   6.342   7.606
20254TIP3   OH260646   4.329   6.453   8.379
20254TIP3    H160647   4.359   6.520   8.443
20254TIP3    H260648   4.321   6.373   8.435
20255TIP3   OH260649   4.376   5.928   7.089
20255TIP3    H160650   4.369   5.928   7.186
20255TIP3    H260651   4.300   5.985   7.065
20256TIP3   OH260652   3.921   5.970   7.963
20256TIP3    H160653   3.995   6.006   8.015
20256TIP3    H260654   3.963   5.944   7.879
20257TIP3   OH260655   3.889   5.954   7.477
20257TIP3    H160656   3.936   5.992   7.400
20257TIP3    H260657   3.831   6.030   7.500
20258TIP3   OH260658   5.052   6.668   8.074
20258TIP3    H160659   5.083   6.596   8.015
20258TIP3    H260660   5.019   6.616   8.150
20259TIP3   OH260661   4.721   6.127   7.745
20259TIP3    H160662   4.638   6.129   7.798
20259TIP3    H260663   4.789   6.133   7.814
20260TIP3   OH260664   4.154   6.188   7.755
20260TIP3    H160665   4.059   6.195   7.727
20260TIP3    H260666   4.178   6.096   7.729
20261TIP3   OH260667   4.423   6.181   7.442
20261TIP3    H160668   4.516   6.199   7.421
20261TIP3    H260669   4.376   6.206   7.359
20262TIP3   OH260670   5.214   6.205   7.947
20262TIP3    H160671   5.180   6.219   8.038
20262TIP3    H260672   5.145   6.146   7.911
20263TIP3   OH260673   4.267   6.214   7.220
20263TIP3    H160674   4.195   6.172   7.169
20263TIP3    H260675   4.319   6.254   7.146
20264TIP3   OH260676   5.392   7.883   8.155
20264TIP3    H160677   5.384   7.918   8.065
20264TIP3    H260678   5.453   7.946   8.197
20265TIP3   OH260679   4.338   7.001   8.591
20265TIP3    H160680   4.419   7.036   8.633
20265TIP3    H260681   4.275   7.011   8.664
20266TIP3   OH260682   4.803   6.457   7.841
20266TIP3    H160683   4.879   6.423   7.791
20266TIP3    H260684   4.815   6.417   7.929
20267TIP3   OH260685   4.324   5.947   7.723
20267TIP3    H160686   4.290   5.867   7.769
20267TIP3    H260687   4.375   5.909   7.650
20268TIP3   OH260688   4.779   6.355   8.138
20268TIP3    H160689   4.690   6.394   8.147
20268TIP3    H260690   4.837   6.419   8.185
20269TIP3   OH260691   4.515   6.747   7.226
20269TIP3    H160692   4.444   6.679   7.217
20269TIP3    H260693   4.498   6.780   7.318
20270TIP3   OH260694   5.417   6.981   7.856
20270TIP3    H160695   5.440   7.033   7.776
20270TIP3    H260696   5.331   6.942   7.832
20271TIP3   OH260697   4.974   6.059   7.089
20271TIP3    H160698   4.877   6.043   7.098
20271TIP3    H260699   4.984   6.153   7.114
20272TIP3   OH260700   4.910   7.063   8.227
20272TIP3    H160701   4.939   7.058   8.319
20272TIP3    H260702   4.877   7.155   8.221
20273TIP3   OH260703   5.044   6.306   7.193
20273TIP3    H160704   5.140   6.313   7.209
20273TIP3    H260705   5.025   6.387   7.141
20274TIP3   OH260706   4.195   6.742   7.899
20274TIP3    H160707   4.242   6.736   7.814
20274TIP3    H260708   4.260   6.703   7.960
20275TIP3   OH260709   4.664   6.894   7.053
20275TIP3    H160710   4.619   6.982   7.060
20275TIP3    H260711   4.606   6.839   7.110
20276TIP3   OH260712   4.088   6.690   8.519
20276TIP3    H160713   4.113   6.677   8.612
20276TIP3    H260714   4.021   6.621   8.505
20277TIP3   OH260715   4.815   6.800   8.539
20277TIP3    H160716   4.757   6.748   8.482
20277TIP3    H260717   4.903   6.771   8.508
20278TIP3   OH260718   5.082   7.307   8.124
20278TIP3    H160719   4.987   7.328   8.130
20278TIP3    H260720   5.116   7.360   8.199
20279TIP3   OH260721   5.486   6.398   7.029
20279TIP3    H160722   5.423   6.353   6.968
20279TIP3    H260723   5.483   6.487   6.989
20280TIP3   OH260724   5.706   7.255   8.110
20280TIP3    H160725   5.608   7.251   8.102
20280TIP3    H260726   5.731   7.225   8.020
20281TIP3   OH260727   5.182   7.217   6.937
20281TIP3    H160728   5.161   7.146   7.000
20281TIP3    H260729   5.197   7.169   6.854
20282TIP3   OH260730   5.184   6.845   7.774
20282TIP3    H160731   5.090   6.822   7.788
20282TIP3    H260732   5.215   6.765   7.728
20283TIP3   OH260733   4.306   7.067   7.521
20283TIP3    H160734   4.307   7.160   7.492
20283TIP3    H260735   4.225   7.066   7.574
20284TIP3   OH260736   3.874   6.377   7.232
20284TIP3    H160737   3.920   6.462   7.251
20284TIP3    H260738   3.797   6.384   7.292
20285TIP3   OH260739   4.447   6.837   7.470
20285TIP3    H160740   4.405   6.925   7.485
20285TIP3    H260741   4.415   6.789   7.549
20286TIP3   OH260742   4.589   7.413   8.022
20286TIP3    H160743   4.614   7.481   7.958
20286TIP3    H260744   4.676   7.390   8.060
20287TIP3   OH260745   4.233   7.315   7.362
20287TIP3    H160746   4.147   7.308   7.406
20287TIP3    H260747   4.257   7.408   7.382
20288TIP3   OH260748   4.967   7.045   7.960
20288TIP3    H160749   4.955   7.049   8.058
20288TIP3    H260750   5.055   7.005   7.953
20289TIP3   OH260751   4.942   6.946   6.838
20289TIP3    H160752   4.993   6.920   6.918
20289TIP3    H260753   4.853   6.915   6.863
20290TIP3   OH260754   5.228   7.580   8.008
20290TIP3    H160755   5.142   7.560   8.050
20290TIP3    H260756   5.203   7.649   7.943
20291TIP3   OH260757   5.281   7.419   6.658
20291TIP3    H160758   5.322   7.493   6.610
20291TIP3    H260759   5.200   7.464   6.690
20292TIP3   OH260760   4.301   6.195   8.526
20292TIP3    H160761   4.205   6.197   8.538
20292TIP3    H260762   4.329   6.135   8.597
20293TIP3   OH260763   5.102   6.876   7.054
20293TIP3    H160764   5.092   6.811   7.126
20293TIP3    H260765   5.199   6.875   7.042
20294TIP3   OH260766   4.009   7.280   8.161
20294TIP3    H160767   4.072   7.206   8.166
20294TIP3    H260768   4.056   7.347   8.213
20295TIP3   OH260769   4.318   6.941   6.855
20295TIP3    H160770   4.287   6.882   6.783
20295TIP3    H260771   4.292   6.893   6.935
20296TIP3   OH260772   4.248   6.925   7.134
20296TIP3    H160773   4.316   6.877   7.183
20296TIP3    H260774   4.268   7.016   7.158
20297TIP3   OH260775   3.987   6.622   7.315
20297TIP3    H160776   3.921   6.668   7.372
20297TIP3    H260777   4.000   6.690   7.247
20298TIP3   OH260778   5.140   6.258   8.205
20298TIP3    H160779   5.218   6.298   8.246
20298TIP3    H260780   5.125   6.178   8.260
20299TIP3   OH260781   5.019   6.009   7.372
20299TIP3    H160782   5.005   6.033   7.278
20299TIP3    H260783   5.058   6.092   7.408
20300TIP3   OH260784   4.526   7.125   7.059
20300TIP3    H160785   4.450   7.173   7.095
20300TIP3    H260786   4.525   7.149   6.965
20301TIP3   OH260787   4.706   6.190   7.473
20301TIP3    H160788   4.770   6.262   7.455
20301TIP3    H260789   4.711   6.183   7.571
20302TIP3   OH260790   4.975   6.507   8.281
20302TIP3    H160791   4.996   6.564   8.358
20302TIP3    H260792   5.032   6.430   8.296
20303TIP3   OH260793   4.850   5.915   7.575
20303TIP3    H160794   4.841   5.993   7.634
20303TIP3    H260795   4.912   5.952   7.507
20304TIP3   OH260796   4.363   5.916   7.365
20304TIP3    H160797   4.360   6.007   7.401
20304TIP3    H260798   4.459   5.898   7.374
20305TIP3   OH260799   5.617   6.408   8.263
20305TIP3    H160800   5.519   6.407   8.270
20305TIP3    H260801   5.627   6.372   8.173
20306TIP3   OH260802   5.268   6.601   7.649
20306TIP3    H160803   5.191   6.544   7.663
20306TIP3    H260804   5.339   6.554   7.698
20307TIP3   OH260805   3.978   6.829   7.122
20307TIP3    H160806   4.048   6.895   7.133
20307TIP3    H260807   4.019   6.774   7.052
20308TIP3   OH260808   3.924   6.107   7.254
20308TIP3    H160809   3.929   6.205   7.250
20308TIP3    H260810   3.839   6.092   7.210
20309TIP3   OH260811   5.238   7.556   7.596
20309TIP3    H160812   5.194   7.604   7.523
20309TIP3    H260813   5.331   7.578   7.577
20310TIP3   OH260814   4.311   5.826   8.127
20310TIP3    H160815   4.281   5.792   8.039
20310TIP3    H260816   4.299   5.747   8.184
20311TIP3   OH260817   3.841   7.033   7.507
20311TIP3    H160818   3.773   7.074   7.562
20311TIP3    H260819   3.829   7.081   7.423
20312TIP3   OH260820   4.015   7.593   8.582
20312TIP3    H160821   4.099   7.596   8.633
20312TIP3    H260822   3.998   7.498   8.578
20313TIP3   OH260823   4.486   7.552   8.623
20313TIP3    H160824   4.582   7.540   8.627
20313TIP3    H260825   4.463   7.493   8.548
20314TIP3   OH260826   4.488   7.137   6.782
20314TIP3    H160827   4.427   7.062   6.801
20314TIP3    H260828   4.548   7.095   6.718
20315TIP3   OH260829   5.162   7.433   8.350
20315TIP3    H160830   5.128   7.382   8.427
20315TIP3    H260831   5.206   7.508   8.393
20316TIP3   OH260832   4.904   7.172   6.665
20316TIP3    H160833   4.947   7.108   6.724
20316TIP3    H260834   4.962   7.170   6.586
20317TIP3   OH260835   4.135   6.991   8.781
20317TIP3    H160836   4.154   6.895   8.779
20317TIP3    H260837   4.049   6.995   8.733
20318TIP3   OH260838   4.116   6.648   6.975
20318TIP3    H160839   4.175   6.615   7.045
20318TIP3    H260840   4.180   6.651   6.899
20319TIP3   OH260841   4.747   7.079   8.554
20319TIP3    H160842   4.705   7.104   8.469
20319TIP3    H260843   4.776   6.988   8.539
20320TIP3   OH260844   4.639   6.841   6.778
20320TIP3    H160845   4.628   6.855   6.874
20320TIP3    H260846   4.627   6.744   6.772
20321TIP3   OH260847   5.240   7.085   8.158
20321TIP3    H160848   5.313   7.134   8.116
20321TIP3    H260849   5.169   7.153   8.149
20322TIP3   OH260850   4.254   6.721   8.765
20322TIP3    H160851   4.338   6.687   8.732
20322TIP3    H260852   4.282   6.760   8.851
20323TIP3   OH260853   4.324   6.549   7.195
20323TIP3    H160854   4.295   6.510   7.279
20323TIP3    H260855   4.359   6.472   7.146
20324TIP3   OH260856   4.592   6.609   8.419
20324TIP3    H160857   4.516   6.671   8.424
20324TIP3    H260858   4.642   6.645   8.343
20325TIP3   OH260859   4.424   6.341   7.035
20325TIP3    H160860   4.398   6.348   6.941
20325TIP3    H260861   4.522   6.348   7.027
20326TIP3   OH260862   5.104   7.010   8.559
20326TIP3    H160863   5.184   6.993   8.507
20326TIP3    H260864   5.109   6.943   8.630
20327TIP3   OH260865   5.244   6.673   6.699
20327TIP3    H160866   5.225   6.628   6.615
20327TIP3    H260867   5.213   6.763   6.676
20328TIP3   OH260868   4.716   6.402   8.548
20328TIP3    H160869   4.717   6.323   8.490
20328TIP3    H260870   4.673   6.469   8.490
20329TIP3   OH260871   4.719   6.186   8.357
20329TIP3    H160872   4.746   6.231   8.274
20329TIP3    H260873   4.625   6.165   8.337
20330TIP3   OH260874   4.744   6.724   8.230
20330TIP3    H160875   4.829   6.741   8.186
20330TIP3    H260876   4.686   6.790   8.187
20331TIP3   OH260877   5.328   6.691   8.611
20331TIP3    H160878   5.380   6.609   8.615
20331TIP3    H260879   5.392   6.753   8.574
20332TIP3   OH260880   5.368   6.942   8.346
20332TIP3    H160881   5.309   6.996   8.288
20332TIP3    H260882   5.455   6.965   8.305
20333TIP3   OH260883   4.594   6.511   8.780
20333TIP3    H160884   4.524   6.444   8.792
20333TIP3    H260885   4.628   6.489   8.691
20334TIP3   OH260886   4.850   5.951   8.425
20334TIP3    H160887   4.802   6.033   8.401
20334TIP3    H260888   4.781   5.884   8.411
20335TIP3   OH260889   4.978   6.453   8.639
20335TIP3    H160890   4.964   6.444   8.735
20335TIP3    H260891   4.888   6.431   8.607
20336TIP3   OH260892   5.215   6.402   8.493
20336TIP3    H160893   5.140   6.407   8.555
20336TIP3    H260894   5.288   6.374   8.552
20337TIP3   OH260895   5.447   6.347   8.646
20337TIP3    H160896   5.458   6.251   8.664
20337TIP3    H260897   5.441   6.385   8.736
20338TIP3   OH260898   4.429   6.293   8.833
20338TIP3    H160899   4.439   6.203   8.797
20338TIP3    H260900   4.466   6.282   8.923
20339TIP3   OH260901   4.942   5.959   8.683
20339TIP3    H160902   5.011   5.889   8.675
20339TIP3    H260903   4.903   5.956   8.593
20340TIP3   OH260904   5.009   6.174   8.842
20340TIP3    H160905   4.987   6.105   8.776
20340TIP3    H260906   4.932   6.235   8.834
20341TIP3   OH260907   3.709   6.787   7.154
20341TIP3    H160908   3.804   6.809   7.142
20341TIP3    H260909   3.706   6.697   7.115
20342TIP3   OH260910   3.624   7.400   7.572
20342TIP3    H160911   3.559   7.336   7.535
20342TIP3    H260912   3.672   7.344   7.636
20343TIP3   OH260913   3.764   7.250   7.754
20343TIP3    H160914   3.756   7.178   7.818
20343TIP3    H260915   3.827   7.308   7.803
20344TIP3   OH260916   5.491   7.650   7.555
20344TIP3    H160917   5.513   7.680   7.645
20344TIP3    H260918   5.556   7.697   7.501
20345TIP3   OH260919   5.521   7.670   7.836
20345TIP3    H160920   5.471   7.585   7.833
20345TIP3    H260921   5.592   7.645   7.897
20346TIP3   OH260922   5.570   7.344   8.414
20346TIP3    H160923   5.492   7.354   8.472
20346TIP3    H260924   5.606   7.435   8.415
20347TIP3   OH260925   5.381   6.860   7.031
20347TIP3    H160926   5.449   6.925   7.002
20347TIP3    H260927   5.425   6.821   7.110
20348TIP3   OH260928   5.509   6.727   7.234
20348TIP3    H160929   5.443   6.686   7.293
20348TIP3    H260930   5.573   6.766   7.297
20349TIP3   OH260931   5.566   7.121   7.670
20349TIP3    H160932   5.616   7.057   7.616
20349TIP3    H260933   5.554   7.195   7.607
20350TIP3   OH260934   5.395   7.417   7.860
20350TIP3    H160935   5.324   7.462   7.912
20350TIP3    H260936   5.342   7.372   7.791
20351TIP3   OH260937   5.446   6.635   6.881
20351TIP3    H160938   5.375   6.638   6.814
20351TIP3    H260939   5.420   6.711   6.937
20352TIP3   OH260940   5.317   6.308   6.837
20352TIP3    H160941   5.275   6.347   6.759
20352TIP3    H260942   5.292   6.214   6.826
20353TIP3   OH260943   5.322   6.585   7.380
20353TIP3    H160944   5.330   6.488   7.375
20353TIP3    H260945   5.308   6.599   7.477
20354TIP3   OH260946   3.949   6.653   8.130
20354TIP3    H160947   3.948   6.628   8.036
20354TIP3    H260948   4.046   6.659   8.146
20355TIP3   OH260949   5.611   7.009   8.240
20355TIP3    H160950   5.685   6.945   8.227
20355TIP3    H260951   5.632   7.078   8.176
20356TIP3   OH260952   5.798   6.813   8.250
20356TIP3    H160953   5.722   6.765   8.292
20356TIP3    H260954   5.869   6.748   8.267
20357TIP3   OH260955   5.262   6.042   6.821
20357TIP3    H160956   5.338   6.012   6.875
20357TIP3    H260957   5.190   5.981   6.845
20358TIP3   OH260958   5.318   6.300   7.276
20358TIP3    H160959   5.360   6.212   7.290
20358TIP3    H260960   5.377   6.334   7.205
20359TIP3   OH260961   5.481   6.472   7.772
20359TIP3    H160962   5.567   6.498   7.731
20359TIP3    H260963   5.493   6.511   7.861
20360TIP3   OH260964   5.550   6.619   8.003
20360TIP3    H160965   5.471   6.653   8.051
20360TIP3    H260966   5.581   6.700   7.958
20361TIP3   OH260967   4.161   6.340   8.796
20361TIP3    H160968   4.259   6.339   8.800
20361TIP3    H260969   4.141   6.256   8.842
20362TIP3   OH260970   6.004   6.212   8.559
20362TIP3    H160971   6.061   6.145   8.515
20362TIP3    H260972   5.971   6.264   8.483
20363TIP3   OH260973   5.428   6.051   7.314
20363TIP3    H160974   5.476   6.034   7.398
20363TIP3    H260975   5.367   5.974   7.312
20364TIP3   OH260976   4.127   6.036   8.138
20364TIP3    H160977   4.190   5.961   8.144
20364TIP3    H260978   4.188   6.111   8.127
20365TIP3   OH260979   3.930   6.310   8.207
20365TIP3    H160980   3.980   6.304   8.123
20365TIP3    H260981   3.955   6.399   8.236
20366TIP3   OH260982   5.871   6.347   8.366
20366TIP3    H160983   5.785   6.390   8.387
20366TIP3    H260984   5.839   6.277   8.306
20367TIP3   OH260985   5.507   5.985   6.946
20367TIP3    H160986   5.546   5.913   6.893
20367TIP3    H260987   5.576   6.055   6.940
20368TIP3   OH260988   3.915   5.814   7.706
20368TIP3    H160989   3.822   5.812   7.734
20368TIP3    H260990   3.911   5.873   7.627
20369TIP3   OH260991   5.068   7.518   7.208
20369TIP3    H160992   5.127   7.507   7.130
20369TIP3    H260993   5.119   7.580   7.263
20370TIP3   OH260994   4.133   5.891   8.523
20370TIP3    H160995   4.082   5.891   8.605
20370TIP3    H260996   4.069   5.930   8.460
20371TIP3   OH260997   4.174   7.319   8.599
20371TIP3    H160998   4.082   7.293   8.584
20371TIP3    H260999   4.184   7.310   8.695
20372TIP3   OH261000   4.350   7.356   8.147
20372TIP3    H161001   4.307   7.430   8.099
20372TIP3    H261002   4.439   7.364   8.105
20373TIP3   OH261003   5.770   6.112   8.243
20373TIP3    H161004   5.680   6.109   8.207
20373TIP3    H261005   5.800   6.019   8.230
20374TIP3   OH261006   4.025   7.609   8.169
20374TIP3    H161007   3.936   7.644   8.149
20374TIP3    H261008   4.042   7.649   8.254
20375TIP3   OH261009   4.266   7.599   8.032
20375TIP3    H161010   4.177   7.606   8.071
20375TIP3    H261011   4.247   7.601   7.936
20376TIP3   OH261012   4.684   7.621   7.824
20376TIP3    H161013   4.611   7.649   7.768
20376TIP3    H261014   4.702   7.701   7.877
20377TIP3   OH261015   4.955   7.550   7.826
20377TIP3    H161016   4.861   7.568   7.848
20377TIP3    H261017   4.997   7.629   7.862
20378TIP3   OH261018   5.182   7.757   7.796
20378TIP3    H161019   5.156   7.835   7.744
20378TIP3    H261020   5.188   7.687   7.728
20379TIP3   OH261021   3.945   7.395   7.911
20379TIP3    H161022   3.976   7.369   8.000
20379TIP3    H261023   4.027   7.375   7.859
20380TIP3   OH261024   4.978   6.027   7.863
20380TIP3    H161025   4.933   5.957   7.913
20380TIP3    H261026   5.050   5.979   7.818
20381TIP3   OH261027   5.498   5.907   7.769
20381TIP3    H161028   5.535   5.958   7.694
20381TIP3    H261029   5.403   5.926   7.761
20382TIP3   OH261030   5.593   6.006   7.532
20382TIP3    H161031   5.665   5.954   7.491
20382TIP3    H261032   5.626   6.097   7.517
20383TIP3   OH261033   4.224   5.731   7.878
20383TIP3    H161034   4.131   5.700   7.880
20383TIP3    H261035   4.271   5.645   7.875
20384TIP3   OH261036   3.986   5.611   7.512
20384TIP3    H161037   4.035   5.666   7.448
20384TIP3    H261038   3.977   5.671   7.588
20385TIP3   OH261039   4.668   5.766   7.759
20385TIP3    H161040   4.725   5.815   7.698
20385TIP3    H261041   4.690   5.807   7.843
20386TIP3   OH261042   5.215   5.914   7.742
20386TIP3    H161043   5.214   5.877   7.653
20386TIP3    H261044   5.201   5.834   7.798
20387TIP3   OH261045   5.243   5.840   7.305
20387TIP3    H161046   5.157   5.883   7.321
20387TIP3    H261047   5.229   5.754   7.351
20388TIP3   OH261048   3.729   7.173   7.302
20388TIP3    H161049   3.642   7.145   7.269
20388TIP3    H261050   3.722   7.269   7.289
20389TIP3   OH261051   4.129   5.766   7.288
20389TIP3    H161052   4.178   5.703   7.233
20389TIP3    H261053   4.201   5.820   7.325
20390TIP3   OH261054   4.640   5.939   7.388
20390TIP3    H161055   4.701   5.894   7.449
20390TIP3    H261056   4.660   6.032   7.412
20391TIP3   OH261057   4.467   7.391   6.892
20391TIP3    H161058   4.564   7.394   6.877
20391TIP3    H261059   4.452   7.306   6.845
20392TIP3   OH261060   5.219   7.483   6.980
20392TIP3    H161061   5.211   7.385   6.968
20392TIP3    H261062   5.175   7.515   6.899
20393TIP3   OH261063   4.431   6.013   8.768
20393TIP3    H161064   4.398   5.943   8.828
20393TIP3    H261065   4.525   6.015   8.794
20394TIP3   OH261066   4.680   6.013   8.887
20394TIP3    H161067   4.766   5.994   8.845
20394TIP3    H261068   4.673   5.939   8.951
20395TIP3   OH261069   3.812   7.206   6.942
20395TIP3    H161070   3.802   7.216   7.038
20395TIP3    H261071   3.891   7.149   6.934
20396TIP3   OH261072   5.506   6.074   8.677
20396TIP3    H161073   5.526   6.044   8.768
20396TIP3    H261074   5.595   6.070   8.635
20397TIP3   OH261075   5.449   7.619   8.172
20397TIP3    H161076   5.371   7.587   8.121
20397TIP3    H261077   5.429   7.715   8.172
20398TIP3   OH261078   6.710   7.001   6.935
20398TIP3    H161079   6.680   7.091   6.910
20398TIP3    H261080   6.636   6.949   6.897
20399TIP3   OH261081   6.719   6.999   7.313
20399TIP3    H161082   6.741   6.966   7.401
20399TIP3    H261083   6.670   6.924   7.275
20400TIP3   OH261084   6.011   6.894   7.679
20400TIP3    H161085   6.043   6.827   7.742
20400TIP3    H261086   6.087   6.953   7.675
20401TIP3   OH261087   6.966   7.292   6.998
20401TIP3    H161088   6.930   7.233   7.065
20401TIP3    H261089   6.977   7.376   7.047
20402TIP3   OH261090   5.983   7.305   7.406
20402TIP3    H161091   5.973   7.207   7.408
20402TIP3    H261092   6.079   7.313   7.395
20403TIP3   OH261093   5.688   6.507   7.190
20403TIP3    H161094   5.640   6.590   7.205
20403TIP3    H261095   5.618   6.454   7.149
20404TIP3   OH261096   5.747   6.795   7.363
20404TIP3    H161097   5.796   6.717   7.398
20404TIP3    H261098   5.806   6.826   7.293
20405TIP3   OH261099   6.609   7.768   7.015
20405TIP3    H161100   6.650   7.695   6.964
20405TIP3    H261101   6.591   7.724   7.099
20406TIP3   OH261102   6.507   7.224   7.366
20406TIP3    H161103   6.544   7.153   7.312
20406TIP3    H261104   6.592   7.269   7.390
20407TIP3   OH261105   7.525   6.543   7.361
20407TIP3    H161106   7.553   6.629   7.398
20407TIP3    H261107   7.551   6.552   7.268
20408TIP3   OH261108   6.924   6.726   7.396
20408TIP3    H161109   6.964   6.638   7.413
20408TIP3    H261110   6.890   6.712   7.305
20409TIP3   OH261111   6.262   6.386   7.360
20409TIP3    H161112   6.240   6.458   7.298
20409TIP3    H261113   6.213   6.312   7.317
20410TIP3   OH261114   6.954   6.479   6.984
20410TIP3    H161115   7.028   6.463   7.047
20410TIP3    H261116   7.003   6.513   6.907
20411TIP3   OH261117   5.893   6.588   7.469
20411TIP3    H161118   5.976   6.568   7.516
20411TIP3    H261119   5.905   6.532   7.389
20412TIP3   OH261120   6.333   6.785   7.262
20412TIP3    H161121   6.427   6.760   7.274
20412TIP3    H261122   6.294   6.702   7.228
20413TIP3   OH261123   7.598   6.758   7.528
20413TIP3    H161124   7.512   6.800   7.508
20413TIP3    H261125   7.599   6.769   7.624
20414TIP3   OH261126   6.256   6.370   7.796
20414TIP3    H161127   6.197   6.406   7.728
20414TIP3    H261128   6.203   6.388   7.877
20415TIP3   OH261129   6.604   7.221   6.805
20415TIP3    H161130   6.565   7.207   6.717
20415TIP3    H261131   6.560   7.304   6.832
20416TIP3   OH261132   6.364   7.145   7.591
20416TIP3    H161133   6.300   7.212   7.627
20416TIP3    H261134   6.403   7.194   7.516
20417TIP3   OH261135   7.165   6.479   7.155
20417TIP3    H161136   7.151   6.430   7.237
20417TIP3    H261137   7.216   6.556   7.185
20418TIP3   OH261138   6.128   6.484   7.580
20418TIP3    H161139   6.190   6.557   7.602
20418TIP3    H261140   6.176   6.444   7.504
20419TIP3   OH261141   6.192   7.339   7.689
20419TIP3    H161142   6.167   7.424   7.648
20419TIP3    H261143   6.112   7.323   7.744
20420TIP3   OH261144   5.584   7.029   6.924
20420TIP3    H161145   5.545   7.057   6.840
20420TIP3    H261146   5.616   7.115   6.961
20421TIP3   OH261147   7.032   7.542   7.164
20421TIP3    H161148   6.943   7.534   7.205
20421TIP3    H261149   7.021   7.627   7.117
20422TIP3   OH261150   7.316   6.449   7.530
20422TIP3    H161151   7.227   6.470   7.497
20422TIP3    H261152   7.373   6.477   7.456
20423TIP3   OH261153   6.614   6.088   7.513
20423TIP3    H161154   6.596   5.993   7.526
20423TIP3    H261155   6.535   6.127   7.558
20424TIP3   OH261156   6.729   7.587   6.848
20424TIP3    H161157   6.777   7.508   6.815
20424TIP3    H261158   6.771   7.654   6.790
20425TIP3   OH261159   6.875   7.375   6.747
20425TIP3    H161160   6.828   7.302   6.704
20425TIP3    H261161   6.910   7.333   6.828
20426TIP3   OH261162   7.252   7.455   7.510
20426TIP3    H161163   7.235   7.379   7.450
20426TIP3    H261164   7.227   7.531   7.452
20427TIP3   OH261165   6.544   6.853   6.767
20427TIP3    H161166   6.462   6.904   6.746
20427TIP3    H261167   6.585   6.846   6.679
20428TIP3   OH261168   6.502   6.632   6.495
20428TIP3    H161169   6.575   6.687   6.529
20428TIP3    H261170   6.551   6.571   6.437
20429TIP3   OH261171   7.443   7.098   7.369
20429TIP3    H161172   7.360   7.152   7.372
20429TIP3    H261173   7.453   7.088   7.273
20430TIP3   OH261174   6.889   6.934   6.738
20430TIP3    H161175   6.832   6.960   6.814
20430TIP3    H261176   6.971   6.907   6.784
20431TIP3   OH261177   7.125   6.974   7.648
20431TIP3    H161178   7.118   7.061   7.692
20431TIP3    H261179   7.037   6.971   7.604
20432TIP3   OH261180   6.119   6.930   7.155
20432TIP3    H161181   6.078   6.874   7.087
20432TIP3    H261182   6.197   6.877   7.182
20433TIP3   OH261183   6.248   7.338   7.304
20433TIP3    H161184   6.228   7.307   7.214
20433TIP3    H261185   6.339   7.305   7.318
20434TIP3   OH261186   6.263   6.901   7.509
20434TIP3    H161187   6.291   6.881   7.418
20434TIP3    H261188   6.302   6.989   7.526
20435TIP3   OH261189   6.794   7.539   7.287
20435TIP3    H161190   6.770   7.622   7.332
20435TIP3    H261191   6.769   7.470   7.351
20436TIP3   OH261192   6.395   7.457   7.835
20436TIP3    H161193   6.334   7.521   7.878
20436TIP3    H261194   6.331   7.405   7.782
20437TIP3   OH261195   6.732   6.789   6.563
20437TIP3    H161196   6.788   6.852   6.612
20437TIP3    H261197   6.756   6.812   6.470
20438TIP3   OH261198   6.151   7.012   7.935
20438TIP3    H161199   6.155   7.101   7.977
20438TIP3    H261200   6.055   6.993   7.945
20439TIP3   OH261201   6.477   7.470   6.850
20439TIP3    H161202   6.559   7.523   6.848
20439TIP3    H261203   6.420   7.519   6.789
20440TIP3   OH261204   6.191   7.627   7.920
20440TIP3    H161205   6.156   7.629   7.829
20440TIP3    H261206   6.111   7.603   7.972
20441TIP3   OH261207   7.246   6.031   6.613
20441TIP3    H161208   7.164   6.053   6.661
20441TIP3    H261209   7.260   6.114   6.561
20442TIP3   OH261210   5.987   6.774   6.960
20442TIP3    H161211   5.923   6.820   6.902
20442TIP3    H261212   5.945   6.687   6.969
20443TIP3   OH261213   7.053   7.401   6.148
20443TIP3    H161214   7.055   7.499   6.146
20443TIP3    H261215   7.118   7.379   6.080
20444TIP3   OH261216   5.770   7.158   7.866
20444TIP3    H161217   5.700   7.140   7.798
20444TIP3    H261218   5.805   7.069   7.885
20445TIP3   OH261219   5.623   7.351   7.497
20445TIP3    H161220   5.720   7.350   7.491
20445TIP3    H261221   5.608   7.429   7.552
20446TIP3   OH261222   7.479   7.792   7.562
20446TIP3    H161223   7.473   7.695   7.571
20446TIP3    H261224   7.391   7.820   7.595
20447TIP3   OH261225   6.596   7.583   7.693
20447TIP3    H161226   6.593   7.677   7.720
20447TIP3    H261227   6.521   7.546   7.744
20448TIP3   OH261228   6.279   7.722   6.635
20448TIP3    H161229   6.354   7.697   6.577
20448TIP3    H261230   6.305   7.811   6.663
20449TIP3   OH261231   5.789   7.567   7.026
20449TIP3    H161232   5.840   7.558   7.110
20449TIP3    H261233   5.735   7.487   7.030
20450TIP3   OH261234   7.380   6.937   7.825
20450TIP3    H161235   7.297   6.950   7.777
20450TIP3    H261236   7.393   6.841   7.816
20451TIP3   OH261237   5.975   7.340   7.852
20451TIP3    H161238   6.022   7.324   7.936
20451TIP3    H261239   5.899   7.278   7.860
20452TIP3   OH261240   6.374   6.164   7.639
20452TIP3    H161241   6.285   6.133   7.611
20452TIP3    H261242   6.347   6.246   7.685
20453TIP3   OH261243   6.906   6.281   7.833
20453TIP3    H161244   6.973   6.251   7.898
20453TIP3    H261245   6.822   6.260   7.878
20454TIP3   OH261246   7.153   6.713   7.757
20454TIP3    H161247   7.097   6.707   7.838
20454TIP3    H261248   7.120   6.795   7.716
20455TIP3   OH261249   6.809   6.834   6.309
20455TIP3    H161250   6.770   6.812   6.222
20455TIP3    H261251   6.886   6.887   6.282
20456TIP3   OH261252   6.520   6.209   6.610
20456TIP3    H161253   6.484   6.208   6.701
20456TIP3    H261254   6.478   6.129   6.574
20457TIP3   OH261255   6.307   6.679   7.658
20457TIP3    H161256   6.254   6.699   7.738
20457TIP3    H261257   6.291   6.760   7.604
20458TIP3   OH261258   6.190   6.565   7.171
20458TIP3    H161259   6.096   6.541   7.188
20458TIP3    H261260   6.202   6.526   7.082
20459TIP3   OH261261   6.680   6.653   6.900
20459TIP3    H161262   6.627   6.724   6.857
20459TIP3    H261263   6.733   6.620   6.825
20460TIP3   OH261264   6.854   6.930   7.985
20460TIP3    H161265   6.830   6.857   8.047
20460TIP3    H261266   6.948   6.941   8.007
20461TIP3   OH261267   6.837   6.682   7.137
20461TIP3    H161268   6.775   6.711   7.066
20461TIP3    H261269   6.870   6.600   7.093
20462TIP3   OH261270   6.127   6.709   7.865
20462TIP3    H161271   6.142   6.776   7.934
20462TIP3    H261272   6.113   6.628   7.918
20463TIP3   OH261273   6.175   6.187   6.575
20463TIP3    H161274   6.163   6.185   6.672
20463TIP3    H261275   6.097   6.239   6.548
20464TIP3   OH261276   5.716   6.230   7.449
20464TIP3    H161277   5.793   6.262   7.500
20464TIP3    H261278   5.754   6.199   7.365
20465TIP3   OH261279   5.688   6.211   6.966
20465TIP3    H161280   5.733   6.249   6.887
20465TIP3    H261281   5.627   6.284   6.987
20466TIP3   OH261282   6.856   6.925   7.563
20466TIP3    H161283   6.884   6.853   7.502
20466TIP3    H261284   6.819   6.872   7.637
20467TIP3   OH261285   6.519   6.386   7.233
20467TIP3    H161286   6.434   6.385   7.282
20467TIP3    H261287   6.583   6.388   7.305
20468TIP3   OH261288   5.950   6.444   7.241
20468TIP3    H161289   5.856   6.453   7.213
20468TIP3    H261290   5.972   6.353   7.216
20469TIP3   OH261291   6.220   6.441   6.928
20469TIP3    H161292   6.313   6.456   6.903
20469TIP3    H261293   6.170   6.463   6.845
20470TIP3   OH261294   7.010   6.462   7.436
20470TIP3    H161295   6.973   6.476   7.526
20470TIP3    H261296   6.943   6.402   7.399
20471TIP3   OH261297   6.063   6.472   6.707
20471TIP3    H161298   5.993   6.428   6.657
20471TIP3    H261299   6.115   6.511   6.633
20472TIP3   OH261300   7.187   8.149   7.660
20472TIP3    H161301   7.183   8.169   7.564
20472TIP3    H261302   7.257   8.213   7.686
20473TIP3   OH261303   6.136   7.260   8.074
20473TIP3    H161304   6.214   7.295   8.123
20473TIP3    H261305   6.069   7.261   8.146
20474TIP3   OH261306   6.599   6.717   7.331
20474TIP3    H161307   6.671   6.677   7.279
20474TIP3    H261308   6.607   6.671   7.417
20475TIP3   OH261309   6.124   6.203   7.210
20475TIP3    H161310   6.087   6.124   7.255
20475TIP3    H261311   6.165   6.164   7.132
20476TIP3   OH261312   6.575   6.612   7.620
20476TIP3    H161313   6.485   6.647   7.632
20476TIP3    H261314   6.630   6.676   7.670
20477TIP3   OH261315   6.313   7.003   6.716
20477TIP3    H161316   6.239   6.939   6.703
20477TIP3    H261317   6.293   7.037   6.806
20478TIP3   OH261318   7.211   7.239   7.342
20478TIP3    H161319   7.231   7.282   7.257
20478TIP3    H261320   7.124   7.196   7.322
20479TIP3   OH261321   6.771   6.313   6.585
20479TIP3    H161322   6.674   6.296   6.586
20479TIP3    H261323   6.777   6.409   6.599
20480TIP3   OH261324   6.716   7.324   7.713
20480TIP3    H161325   6.725   7.303   7.806
20480TIP3    H261326   6.674   7.412   7.714
20481TIP3   OH261327   6.840   6.565   6.684
20481TIP3    H161328   6.936   6.574   6.692
20481TIP3    H261329   6.816   6.642   6.628
20482TIP3   OH261330   6.005   7.026   7.391
20482TIP3    H161331   6.042   6.998   7.305
20482TIP3    H261332   6.043   6.961   7.452
20483TIP3   OH261333   6.460   7.152   6.537
20483TIP3    H161334   6.413   7.239   6.537
20483TIP3    H261335   6.404   7.099   6.597
20484TIP3   OH261336   5.888   6.941   8.001
20484TIP3    H161337   5.901   6.929   8.097
20484TIP3    H261338   5.814   6.880   7.984
20485TIP3   OH261339   6.610   7.060   8.024
20485TIP3    H161340   6.547   7.003   7.977
20485TIP3    H261341   6.695   7.025   7.992
20486TIP3   OH261342   6.875   7.572   7.609
20486TIP3    H161343   6.778   7.576   7.616
20486TIP3    H261344   6.900   7.630   7.683
20487TIP3   OH261345   7.282   6.655   6.516
20487TIP3    H161346   7.221   6.610   6.453
20487TIP3    H261347   7.279   6.744   6.474
20488TIP3   OH261348   7.499   7.508   7.601
20488TIP3    H161349   7.402   7.500   7.587
20488TIP3    H261350   7.530   7.482   7.511
20489TIP3   OH261351   7.005   7.473   6.427
20489TIP3    H161352   6.950   7.417   6.484
20489TIP3    H261353   7.007   7.424   6.343
20490TIP3   OH261354   6.981   7.099   7.268
20490TIP3    H161355   6.886   7.076   7.279
20490TIP3    H261356   7.011   7.021   7.217
20491TIP3   OH261357   6.109   7.331   7.019
20491TIP3    H161358   6.111   7.411   6.963
20491TIP3    H261359   6.014   7.315   7.023
20492TIP3   OH261360   5.670   6.634   6.719
20492TIP3    H161361   5.715   6.718   6.739
20492TIP3    H261362   5.593   6.639   6.780
20493TIP3   OH261363   6.244   7.094   6.962
20493TIP3    H161364   6.210   7.185   6.977
20493TIP3    H261365   6.203   7.046   7.036
20494TIP3   OH261366   6.375   7.674   7.483
20494TIP3    H161367   6.412   7.748   7.431
20494TIP3    H261368   6.454   7.642   7.529
20495TIP3   OH261369   6.028   7.567   6.872
20495TIP3    H161370   5.941   7.580   6.914
20495TIP3    H261371   6.060   7.660   6.868
20496TIP3   OH261372   6.761   7.305   7.444
20496TIP3    H161373   6.753   7.306   7.542
20496TIP3    H261374   6.840   7.251   7.431
20497TIP3   OH261375   6.736   7.201   6.327
20497TIP3    H161376   6.787   7.174   6.407
20497TIP3    H261377   6.645   7.183   6.356
20498TIP3   OH261378   7.015   7.839   7.490
20498TIP3    H161379   6.932   7.788   7.481
20498TIP3    H261380   7.001   7.907   7.420
20499TIP3   OH261381   7.074   7.676   6.147
20499TIP3    H161382   7.100   7.739   6.079
20499TIP3    H261383   6.996   7.723   6.185
20500TIP3   OH261384   6.095   6.452   8.012
20500TIP3    H161385   5.998   6.456   8.023
20500TIP3    H261386   6.121   6.391   8.083
20501TIP3   OH261387   6.896   7.134   6.543
20501TIP3    H161388   6.888   7.067   6.614
20501TIP3    H261389   6.992   7.133   6.528
20502TIP3   OH261390   5.814   7.535   7.641
20502TIP3    H161391   5.868   7.463   7.677
20502TIP3    H261392   5.836   7.608   7.701
20503TIP3   OH261393   6.095   7.179   6.328
20503TIP3    H161394   6.118   7.089   6.300
20503TIP3    H261395   6.080   7.168   6.424
20504TIP3   OH261396   6.048   7.186   6.602
20504TIP3    H161397   6.126   7.164   6.654
20504TIP3    H261398   6.050   7.284   6.604
20505TIP3   OH261399   5.784   6.879   6.802
20505TIP3    H161400   5.718   6.925   6.858
20505TIP3    H261401   5.800   6.947   6.734
20506TIP3   OH261402   6.935   6.518   7.696
20506TIP3    H161403   7.016   6.550   7.736
20506TIP3    H261404   6.917   6.436   7.747
20507TIP3   OH261405   6.815   6.265   6.860
20507TIP3    H161406   6.798   6.286   6.765
20507TIP3    H261407   6.851   6.350   6.892
20508TIP3   OH261408   6.323   7.386   6.539
20508TIP3    H161409   6.238   7.427   6.561
20508TIP3    H261410   6.374   7.462   6.504
20509TIP3   OH261411   6.506   6.445   6.960
20509TIP3    H161412   6.568   6.519   6.941
20509TIP3    H261413   6.509   6.442   7.058
20510TIP3   OH261414   6.771   6.765   7.766
20510TIP3    H161415   6.792   6.818   7.846
20510TIP3    H261416   6.825   6.685   7.780
20511TIP3   OH261417   6.648   6.174   7.064
20511TIP3    H161418   6.632   6.254   7.117
20511TIP3    H261419   6.708   6.208   6.995
20512TIP3   OH261420   6.053   7.457   6.612
20512TIP3    H161421   6.031   7.528   6.549
20512TIP3    H261422   6.047   7.504   6.697
20513TIP3   OH261423   6.158   6.173   6.854
20513TIP3    H161424   6.156   6.264   6.888
20513TIP3    H261425   6.254   6.155   6.860
20514TIP3   OH261426   7.417   6.665   7.743
20514TIP3    H161427   7.320   6.669   7.758
20514TIP3    H261428   7.417   6.615   7.660
20515TIP3   OH261429   7.064   6.858   7.136
20515TIP3    H161430   6.985   6.802   7.145
20515TIP3    H261431   7.132   6.808   7.186
20516TIP3   OH261432   5.776   7.088   6.606
20516TIP3    H161433   5.845   7.157   6.617
20516TIP3    H261434   5.821   7.033   6.539
20517TIP3   OH261435   5.720   6.364   6.742
20517TIP3    H161436   5.721   6.462   6.737
20517TIP3    H261437   5.639   6.343   6.694
20518TIP3   OH261438   7.038   7.808   7.087
20518TIP3    H161439   6.989   7.854   7.015
20518TIP3    H261440   7.130   7.832   7.061
20519TIP3   OH261441   6.110   6.084   7.612
20519TIP3    H161442   6.077   6.051   7.525
20519TIP3    H261443   6.097   6.005   7.669
20520TIP3   OH261444   5.646   7.300   6.993
20520TIP3    H161445   5.578   7.333   7.053
20520TIP3    H261446   5.619   7.342   6.908
20521TIP3   OH261447   5.803   7.846   8.063
20521TIP3    H161448   5.889   7.844   8.111
20521TIP3    H261449   5.780   7.751   8.064
20522TIP3   OH261450   6.288   7.803   8.115
20522TIP3    H161451   6.383   7.786   8.111
20522TIP3    H261452   6.256   7.749   8.040
20523TIP3   OH261453   6.254   7.381   6.224
20523TIP3    H161454   6.205   7.315   6.276
20523TIP3    H261455   6.345   7.350   6.234
20524TIP3   OH261456   6.929   7.712   7.838
20524TIP3    H161457   6.916   7.642   7.905
20524TIP3    H261458   6.989   7.774   7.881
20525TIP3   OH261459   6.697   7.423   6.124
20525TIP3    H161460   6.729   7.389   6.209
20525TIP3    H261461   6.774   7.415   6.066
20526TIP3   OH261462   5.935   7.251   8.266
20526TIP3    H161463   5.949   7.155   8.269
20526TIP3    H261464   5.847   7.256   8.222
20527TIP3   OH261465   5.911   6.900   6.460
20527TIP3    H161466   5.968   6.870   6.532
20527TIP3    H261467   5.977   6.906   6.387
20528TIP3   OH261468   6.543   7.337   8.038
20528TIP3    H161469   6.497   7.356   7.953
20528TIP3    H261470   6.569   7.243   8.028
20529TIP3   OH261471   6.420   7.103   6.267
20529TIP3    H161472   6.426   7.115   6.364
20529TIP3    H261473   6.423   7.005   6.261
20530TIP3   OH261474   7.037   7.343   7.651
20530TIP3    H161475   7.107   7.390   7.603
20530TIP3    H261476   6.962   7.404   7.637
20531TIP3   OH261477   6.053   6.986   8.250
20531TIP3    H161478   6.128   6.931   8.227
20531TIP3    H261479   6.080   7.019   8.338
20532TIP3   OH261480   6.118   6.805   6.680
20532TIP3    H161481   6.093   6.761   6.762
20532TIP3    H261482   6.156   6.732   6.628
20533TIP3   OH261483   6.393   6.874   7.913
20533TIP3    H161484   6.311   6.928   7.913
20533TIP3    H261485   6.438   6.906   7.832
20534TIP3   OH261486   6.221   6.599   6.523
20534TIP3    H161487   6.196   6.604   6.428
20534TIP3    H261488   6.319   6.603   6.516
20535TIP3   OH261489   6.909   7.272   8.047
20535TIP3    H161490   6.977   7.237   7.988
20535TIP3    H261491   6.901   7.202   8.113
20536TIP3   OH261492   7.044   6.926   6.184
20536TIP3    H161493   7.020   6.882   6.100
20536TIP3    H261494   7.013   7.018   6.163
20537TIP3   OH261495   6.515   6.659   8.033
20537TIP3    H161496   6.511   6.579   7.976
20537TIP3    H261497   6.469   6.726   7.977
20538TIP3   OH261498   6.515   6.444   7.843
20538TIP3    H161499   6.541   6.486   7.758
20538TIP3    H261500   6.421   6.421   7.825
20539TIP3   OH261501   6.543   6.983   7.717
20539TIP3    H161502   6.623   6.993   7.665
20539TIP3    H261503   6.482   7.047   7.673
20540TIP3   OH261504   7.126   6.948   8.098
20540TIP3    H161505   7.170   6.862   8.108
20540TIP3    H261506   7.194   7.001   8.054
20541TIP3   OH261507   7.165   7.204   7.841
20541TIP3    H161508   7.106   7.255   7.781
20541TIP3    H261509   7.251   7.219   7.796
20542TIP3   OH261510   6.395   6.767   8.268
20542TIP3    H161511   6.323   6.701   8.282
20542TIP3    H261512   6.424   6.744   8.178
20543TIP3   OH261513   6.647   6.208   7.911
20543TIP3    H161514   6.597   6.290   7.887
20543TIP3    H261515   6.578   6.140   7.898
20544TIP3   OH261516   6.773   6.711   8.126
20544TIP3    H161517   6.755   6.698   8.221
20544TIP3    H261518   6.684   6.688   8.091
20545TIP3   OH261519   7.013   6.664   7.983
20545TIP3    H161520   6.935   6.664   8.042
20545TIP3    H261521   7.083   6.629   8.040
20546TIP3   OH261522   7.247   6.602   8.132
20546TIP3    H161523   7.255   6.506   8.150
20546TIP3    H261524   7.238   6.640   8.222
20547TIP3   OH261525   6.229   6.549   8.319
20547TIP3    H161526   6.233   6.458   8.284
20547TIP3    H261527   6.264   6.536   8.409
20548TIP3   OH261528   6.742   6.217   8.168
20548TIP3    H161529   6.807   6.145   8.161
20548TIP3    H261530   6.700   6.213   8.080
20549TIP3   OH261531   6.808   6.433   8.326
20549TIP3    H161532   6.785   6.362   8.262
20549TIP3    H261533   6.730   6.492   8.320
20550TIP3   OH261534   6.030   7.656   6.420
20550TIP3    H161535   6.126   7.668   6.428
20550TIP3    H261536   6.012   7.704   6.337
20551TIP3   OH261537   5.508   7.043   6.642
20551TIP3    H161538   5.603   7.066   6.628
20551TIP3    H261539   5.503   6.954   6.601
20552TIP3   OH261540   5.422   7.656   7.058
20552TIP3    H161541   5.356   7.593   7.021
20552TIP3    H261542   5.467   7.598   7.123
20553TIP3   OH261543   5.558   7.505   7.243
20553TIP3    H161544   5.546   7.433   7.308
20553TIP3    H261545   5.609   7.568   7.297
20554TIP3   OH261546   7.291   7.897   7.040
20554TIP3    H161547   7.305   7.926   7.132
20554TIP3    H261548   7.339   7.965   6.991
20555TIP3   OH261549   7.320   7.914   7.312
20555TIP3    H161550   7.281   7.824   7.321
20555TIP3    H261551   7.384   7.914   7.384
20556TIP3   OH261552   7.364   7.594   7.887
20556TIP3    H161553   7.278   7.597   7.934
20556TIP3    H261554   7.363   7.672   7.831
20557TIP3   OH261555   7.176   7.115   6.518
20557TIP3    H161556   7.240   7.183   6.487
20557TIP3    H261557   7.223   7.079   6.596
20558TIP3   OH261558   7.301   6.982   6.730
20558TIP3    H161559   7.223   6.929   6.760
20558TIP3    H261560   7.326   7.025   6.812
20559TIP3   OH261561   7.370   7.367   7.147
20559TIP3    H161562   7.417   7.361   7.063
20559TIP3    H261563   7.320   7.448   7.130
20560TIP3   OH261564   7.189   7.671   7.354
20560TIP3    H161565   7.120   7.724   7.400
20560TIP3    H261566   7.137   7.632   7.280
20561TIP3   OH261567   7.240   6.889   6.370
20561TIP3    H161568   7.172   6.891   6.298
20561TIP3    H261569   7.212   6.969   6.419
20562TIP3   OH261570   7.117   6.562   6.322
20562TIP3    H161571   7.070   6.607   6.251
20562TIP3    H261572   7.090   6.469   6.308
20563TIP3   OH261573   7.118   6.836   6.866
20563TIP3    H161574   7.122   6.739   6.857
20563TIP3    H261575   7.103   6.848   6.963
20564TIP3   OH261576   5.745   6.909   7.616
20564TIP3    H161577   5.742   6.881   7.522
20564TIP3    H261578   5.843   6.913   7.631
20565TIP3   OH261579   7.404   7.259   7.717
20565TIP3    H161580   7.481   7.198   7.708
20565TIP3    H261581   7.428   7.331   7.656
20566TIP3   OH261582   7.600   7.074   7.745
20566TIP3    H161583   7.520   7.027   7.779
20566TIP3    H261584   7.666   7.003   7.759
20567TIP3   OH261585   7.058   6.296   6.305
20567TIP3    H161586   7.128   6.265   6.366
20567TIP3    H261587   6.981   6.242   6.328
20568TIP3   OH261588   7.119   6.560   6.764
20568TIP3    H161589   7.158   6.471   6.779
20568TIP3    H261590   7.173   6.590   6.689
20569TIP3   OH261591   7.277   6.728   7.260
20569TIP3    H161592   7.361   6.759   7.219
20569TIP3    H261593   7.288   6.765   7.350
20570TIP3   OH261594   7.345   6.873   7.493
20570TIP3    H161595   7.265   6.904   7.541
20570TIP3    H261596   7.376   6.956   7.453
20571TIP3   OH261597   5.962   6.599   8.289
20571TIP3    H161598   6.060   6.593   8.291
20571TIP3    H261599   5.938   6.514   8.330
20572TIP3   OH261600   7.806   6.466   8.042
20572TIP3    H161601   7.860   6.397   7.998
20572TIP3    H261602   7.772   6.516   7.965
20573TIP3   OH261603   7.224   6.308   6.801
20573TIP3    H161604   7.271   6.290   6.885
20573TIP3    H261605   7.162   6.232   6.798
20574TIP3   OH261606   5.925   6.292   7.621
20574TIP3    H161607   5.988   6.218   7.629
20574TIP3    H261608   5.986   6.367   7.613
20575TIP3   OH261609   5.727   6.566   7.695
20575TIP3    H161610   5.776   6.561   7.610
20575TIP3    H261611   5.750   6.655   7.724
20576TIP3   OH261612   7.666   6.603   7.853
20576TIP3    H161613   7.579   6.644   7.870
20576TIP3    H261614   7.639   6.531   7.793
20577TIP3   OH261615   7.306   6.239   6.437
20577TIP3    H161616   7.344   6.170   6.379
20577TIP3    H261617   7.370   6.312   6.427
20578TIP3   OH261618   5.711   6.075   7.198
20578TIP3    H161619   5.617   6.067   7.221
20578TIP3    H261620   5.707   6.130   7.117
20579TIP3   OH261621   6.863   7.772   6.700
20579TIP3    H161622   6.913   7.758   6.618
20579TIP3    H261623   6.918   7.835   6.748
20580TIP3   OH261624   5.931   6.148   8.008
20580TIP3    H161625   5.879   6.146   8.091
20580TIP3    H261626   5.866   6.188   7.947
20581TIP3   OH261627   5.971   7.572   8.086
20581TIP3    H161628   5.878   7.551   8.066
20581TIP3    H261629   5.974   7.561   8.182
20582TIP3   OH261630   6.151   7.611   7.634
20582TIP3    H161631   6.100   7.684   7.595
20582TIP3    H261632   6.235   7.626   7.587
20583TIP3   OH261633   6.593   7.849   7.772
20583TIP3    H161634   6.636   7.855   7.859
20583TIP3    H261635   6.655   7.903   7.717
20584TIP3   OH261636   6.765   8.001   7.629
20584TIP3    H161637   6.835   7.962   7.575
20584TIP3    H261638   6.818   8.062   7.686
20585TIP3   OH261639   7.566   6.368   7.730
20585TIP3    H161640   7.475   6.360   7.695
20585TIP3    H261641   7.597   6.275   7.719
20586TIP3   OH261642   5.824   7.866   7.658
20586TIP3    H161643   5.735   7.900   7.633
20586TIP3    H261644   5.833   7.905   7.745
20587TIP3   OH261645   6.060   7.844   7.515
20587TIP3    H161646   5.974   7.858   7.559
20587TIP3    H261647   6.042   7.877   7.425
20588TIP3   OH261648   6.486   7.872   7.314
20588TIP3    H161649   6.419   7.893   7.245
20588TIP3    H261650   6.499   7.961   7.354
20589TIP3   OH261651   6.755   7.810   7.366
20589TIP3    H161652   6.662   7.830   7.345
20589TIP3    H261653   6.801   7.884   7.322
20590TIP3   OH261654   6.953   7.994   7.277
20590TIP3    H161655   6.946   8.083   7.235
20590TIP3    H261656   6.982   7.940   7.201
20591TIP3   OH261657   5.736   7.662   7.400
20591TIP3    H161658   5.763   7.634   7.491
20591TIP3    H261659   5.808   7.618   7.349
20592TIP3   OH261660   5.929   7.532   7.258
20592TIP3    H161661   5.946   7.449   7.308
20592TIP3    H261662   6.020   7.570   7.253
20593TIP3   OH261663   6.194   7.628   7.262
20593TIP3    H161664   6.227   7.538   7.246
20593TIP3    H261665   6.240   7.648   7.346
20594TIP3   OH261666   6.778   6.285   7.357
20594TIP3    H161667   6.729   6.215   7.404
20594TIP3    H261668   6.842   6.235   7.304
20595TIP3   OH261669   7.295   6.168   7.258
20595TIP3    H161670   7.331   6.216   7.180
20595TIP3    H261671   7.199   6.181   7.248
20596TIP3   OH261672   7.390   6.260   7.019
20596TIP3    H161673   7.462   6.209   6.976
20596TIP3    H261674   7.424   6.352   7.003
20597TIP3   OH261675   6.019   5.991   7.366
20597TIP3    H161676   5.926   5.959   7.365
20597TIP3    H261677   6.067   5.906   7.361
20598TIP3   OH261678   5.812   5.867   7.011
20598TIP3    H161679   5.841   5.926   6.938
20598TIP3    H261680   5.783   5.931   7.079
20599TIP3   OH261681   6.467   6.021   7.245
20599TIP3    H161682   6.523   6.072   7.184
20599TIP3    H261683   6.483   6.065   7.329
20600TIP3   OH261684   7.016   6.171   7.228
20600TIP3    H161685   7.005   6.135   7.139
20600TIP3    H261686   7.000   6.091   7.283
20601TIP3   OH261687   7.041   6.095   6.793
20601TIP3    H161688   6.955   6.138   6.803
20601TIP3    H261689   7.024   6.009   6.837
20602TIP3   OH261690   5.524   7.432   6.793
20602TIP3    H161691   5.438   7.400   6.758
20602TIP3    H261692   5.514   7.527   6.775
20603TIP3   OH261693   5.924   6.022   6.776
20603TIP3    H161694   5.972   5.959   6.719
20603TIP3    H261695   5.998   6.076   6.811
20604TIP3   OH261696   6.435   6.196   6.875
20604TIP3    H161697   6.495   6.149   6.935
20604TIP3    H261698   6.457   6.289   6.899
20605TIP3   OH261699   7.024   7.744   6.469
20605TIP3    H161700   7.021   7.645   6.460
20605TIP3    H261701   6.970   7.770   6.393
20606TIP3   OH261702   6.228   6.273   8.257
20606TIP3    H161703   6.193   6.202   8.314
20606TIP3    H261704   6.322   6.273   8.284
20607TIP3   OH261705   6.477   6.271   8.376
20607TIP3    H161706   6.561   6.243   8.335
20607TIP3    H261707   6.464   6.199   8.442
20608TIP3   OH261708   5.600   7.458   6.431
20608TIP3    H161709   5.605   7.479   6.526
20608TIP3    H261710   5.688   7.416   6.415
20609TIP3   OH261711   7.302   6.331   8.162
20609TIP3    H161712   7.321   6.300   8.253
20609TIP3    H261713   7.391   6.325   8.120
20610TIP3   OH261714   7.234   7.878   7.658
20610TIP3    H161715   7.156   7.859   7.601
20610TIP3    H261716   7.231   7.976   7.657
20611TIP3   OH261717   8.507   7.257   6.420
20611TIP3    H161718   8.478   7.347   6.396
20611TIP3    H261719   8.431   7.205   6.388
20612TIP3   OH261720   8.498   7.256   6.807
20612TIP3    H161721   8.534   7.234   6.895
20612TIP3    H261722   8.462   7.170   6.780
20613TIP3   OH261723   7.807   7.150   7.160
20613TIP3    H161724   7.823   7.082   7.227
20613TIP3    H261725   7.892   7.196   7.161
20614TIP3   OH261726   8.747   7.554   6.484
20614TIP3    H161727   8.742   7.481   6.547
20614TIP3    H261728   8.765   7.630   6.542
20615TIP3   OH261729   7.777   7.564   6.892
20615TIP3    H161730   7.762   7.468   6.899
20615TIP3    H261731   7.874   7.570   6.884
20616TIP3   OH261732   7.480   6.770   6.681
20616TIP3    H161733   7.426   6.852   6.681
20616TIP3    H261734   7.419   6.709   6.636
20617TIP3   OH261735   8.424   8.009   6.529
20617TIP3    H161736   8.461   7.954   6.457
20617TIP3    H261737   8.408   7.940   6.595
20618TIP3   OH261738   8.295   7.475   6.845
20618TIP3    H161739   8.335   7.397   6.803
20618TIP3    H261740   8.377   7.526   6.861
20619TIP3   OH261741   9.306   6.788   6.822
20619TIP3    H161742   9.334   6.871   6.867
20619TIP3    H261743   9.331   6.815   6.732
20620TIP3   OH261744   8.736   6.987   6.881
20620TIP3    H161745   8.767   6.896   6.899
20620TIP3    H261746   8.687   6.974   6.798
20621TIP3   OH261747   8.045   6.662   6.833
20621TIP3    H161748   8.003   6.732   6.780
20621TIP3    H261749   8.007   6.582   6.790
20622TIP3   OH261750   8.752   6.732   6.468
20622TIP3    H161751   8.825   6.715   6.531
20622TIP3    H261752   8.801   6.769   6.393
20623TIP3   OH261753   7.695   6.872   6.949
20623TIP3    H161754   7.770   6.835   7.000
20623TIP3    H261755   7.685   6.799   6.882
20624TIP3   OH261756   8.051   6.628   7.282
20624TIP3    H161757   7.991   6.662   7.213
20624TIP3    H261758   7.998   6.647   7.362
20625TIP3   OH261759   8.398   7.476   6.290
20625TIP3    H161760   8.361   7.456   6.201
20625TIP3    H261761   8.347   7.556   6.314
20626TIP3   OH261762   8.162   7.403   7.078
20626TIP3    H161763   8.098   7.470   7.112
20626TIP3    H261764   8.201   7.450   7.002
20627TIP3   OH261765   8.964   6.725   6.643
20627TIP3    H161766   8.926   6.681   6.721
20627TIP3    H261767   8.991   6.811   6.681
20628TIP3   OH261768   7.920   6.742   7.063
20628TIP3    H161769   7.987   6.812   7.086
20628TIP3    H261770   7.965   6.702   6.985
20629TIP3   OH261771   7.974   7.587   7.159
20629TIP3    H161772   7.954   7.676   7.123
20629TIP3    H261773   7.895   7.575   7.215
20630TIP3   OH261774   7.377   7.289   6.420
20630TIP3    H161775   7.344   7.314   6.332
20630TIP3    H261776   7.414   7.374   6.452
20631TIP3   OH261777   9.115   6.665   6.980
20631TIP3    H161778   9.022   6.695   6.979
20631TIP3    H261779   9.161   6.740   6.940
20632TIP3   OH261780   8.409   6.346   6.999
20632TIP3    H161781   8.393   6.250   7.011
20632TIP3    H261782   8.330   6.383   7.044
20633TIP3   OH261783   8.515   7.855   6.319
20633TIP3    H161784   8.565   7.771   6.301
20633TIP3    H261785   8.573   7.920   6.274
20634TIP3   OH261786   8.660   7.638   6.235
20634TIP3    H161787   8.630   7.559   6.187
20634TIP3    H261788   8.694   7.596   6.318
20635TIP3   OH261789   8.340   7.105   6.252
20635TIP3    H161790   8.261   7.159   6.230
20635TIP3    H261791   8.385   7.099   6.165
20636TIP3   OH261792   8.688   7.193   6.224
20636TIP3    H161793   8.631   7.215   6.301
20636TIP3    H261794   8.771   7.166   6.269
20637TIP3   OH261795   8.044   7.596   6.788
20637TIP3    H161796   8.027   7.567   6.697
20637TIP3    H261797   8.134   7.560   6.805
20638TIP3   OH261798   8.047   7.164   7.004
20638TIP3    H161799   8.063   7.145   6.911
20638TIP3    H261800   8.099   7.245   7.020
20639TIP3   OH261801   8.533   7.828   6.766
20639TIP3    H161802   8.616   7.857   6.804
20639TIP3    H261803   8.535   7.732   6.783
20640TIP3   OH261804   8.106   7.753   7.345
20640TIP3    H161805   8.072   7.833   7.301
20640TIP3    H261806   8.078   7.685   7.281
20641TIP3   OH261807   8.535   7.045   6.052
20641TIP3    H161808   8.590   7.111   6.099
20641TIP3    H261809   8.555   7.067   5.958
20642TIP3   OH261810   7.944   7.257   7.413
20642TIP3    H161811   7.944   7.347   7.453
20642TIP3    H261812   7.848   7.237   7.420
20643TIP3   OH261813   8.268   7.730   6.333
20643TIP3    H161814   8.351   7.782   6.335
20643TIP3    H261815   8.209   7.786   6.282
20644TIP3   OH261816   9.042   6.289   6.098
20644TIP3    H161817   8.960   6.311   6.147
20644TIP3    H261818   9.056   6.371   6.047
20645TIP3   OH261819   7.795   7.007   6.386
20645TIP3    H161820   7.708   7.048   6.368
20645TIP3    H261821   7.797   7.000   6.484
20646TIP3   OH261822   8.842   7.657   5.644
20646TIP3    H161823   8.851   7.754   5.632
20646TIP3    H261824   8.935   7.627   5.633
20647TIP3   OH261825   7.560   7.414   7.355
20647TIP3    H161826   7.495   7.392   7.285
20647TIP3    H261827   7.599   7.327   7.377
20648TIP3   OH261828   7.427   7.605   6.991
20648TIP3    H161829   7.522   7.623   6.981
20648TIP3    H261830   7.396   7.688   7.033
20649TIP3   OH261831   8.152   7.973   6.128
20649TIP3    H161832   8.101   7.952   6.047
20649TIP3    H261833   8.118   8.061   6.152
20650TIP3   OH261834   7.590   7.841   6.513
20650TIP3    H161835   7.634   7.817   6.597
20650TIP3    H261836   7.523   7.772   6.507
20651TIP3   OH261837   8.351   7.877   5.767
20651TIP3    H161838   8.414   7.811   5.730
20651TIP3    H261839   8.384   7.885   5.859
20652TIP3   OH261840   8.402   7.926   6.035
20652TIP3    H161841   8.313   7.935   6.076
20652TIP3    H261842   8.448   7.877   6.105
20653TIP3   OH261843   7.762   7.595   7.329
20653TIP3    H161844   7.813   7.573   7.410
20653TIP3    H261845   7.686   7.534   7.338
20654TIP3   OH261846   8.169   6.421   7.125
20654TIP3    H161847   8.080   6.389   7.098
20654TIP3    H261848   8.143   6.503   7.171
20655TIP3   OH261849   8.698   6.533   7.319
20655TIP3    H161850   8.765   6.511   7.386
20655TIP3    H261851   8.613   6.515   7.365
20656TIP3   OH261852   8.602   7.098   5.795
20656TIP3    H161853   8.556   7.074   5.714
20656TIP3    H261854   8.681   7.144   5.761
20657TIP3   OH261855   8.308   6.491   6.084
20657TIP3    H161856   8.281   6.484   6.179
20657TIP3    H261857   8.271   6.405   6.054
20658TIP3   OH261858   8.100   6.935   7.142
20658TIP3    H161859   8.053   6.957   7.225
20658TIP3    H261860   8.086   7.018   7.091
20659TIP3   OH261861   8.478   6.910   6.386
20659TIP3    H161862   8.423   6.981   6.345
20659TIP3    H261863   8.531   6.880   6.310
20660TIP3   OH261864   8.637   6.937   6.621
20660TIP3    H161865   8.572   6.968   6.554
20660TIP3    H261866   8.667   6.856   6.576
20661TIP3   OH261867   7.911   6.963   7.350
20661TIP3    H161868   7.953   7.027   7.410
20661TIP3    H261869   7.906   6.883   7.405
20662TIP3   OH261870   7.968   6.433   6.065
20662TIP3    H161871   7.954   6.438   6.162
20662TIP3    H261872   7.895   6.488   6.032
20663TIP3   OH261873   7.515   6.486   6.938
20663TIP3    H161874   7.592   6.523   6.985
20663TIP3    H261875   7.551   6.466   6.850
20664TIP3   OH261876   7.485   6.470   6.452
20664TIP3    H161877   7.529   6.507   6.373
20664TIP3    H261878   7.422   6.542   6.471
20665TIP3   OH261879   8.621   7.172   7.048
20665TIP3    H161880   8.667   7.110   6.987
20665TIP3    H261881   8.598   7.112   7.122
20666TIP3   OH261882   8.313   6.642   6.719
20666TIP3    H161883   8.226   6.650   6.763
20666TIP3    H261884   8.374   6.641   6.795
20667TIP3   OH261885   7.727   6.674   6.766
20667TIP3    H161886   7.650   6.702   6.711
20667TIP3    H261887   7.775   6.615   6.706
20668TIP3   OH261888   8.019   6.673   6.403
20668TIP3    H161889   8.102   6.722   6.406
20668TIP3    H261890   7.963   6.726   6.343
20669TIP3   OH261891   8.810   6.716   6.922
20669TIP3    H161892   8.782   6.732   7.015
20669TIP3    H261893   8.739   6.657   6.890
20670TIP3   OH261894   7.862   6.745   6.181
20670TIP3    H161895   7.781   6.700   6.152
20670TIP3    H261896   7.918   6.735   6.102
20671TIP3   OH261897   7.923   7.498   7.537
20671TIP3    H161898   7.965   7.585   7.554
20671TIP3    H261899   7.859   7.494   7.611
20672TIP3   OH261900   8.423   6.985   6.833
20672TIP3    H161901   8.461   6.926   6.767
20672TIP3    H261902   8.410   6.928   6.910
20673TIP3   OH261903   7.929   6.459   6.695
20673TIP3    H161904   7.888   6.381   6.738
20673TIP3    H261905   7.959   6.423   6.610
20674TIP3   OH261906   8.372   6.865   7.109
20674TIP3    H161907   8.283   6.905   7.118
20674TIP3    H261908   8.430   6.929   7.156
20675TIP3   OH261909   8.111   7.255   6.200
20675TIP3    H161910   8.042   7.185   6.190
20675TIP3    H261911   8.091   7.290   6.290
20676TIP3   OH261912   8.568   6.573   6.055
20676TIP3    H161913   8.474   6.555   6.078
20676TIP3    H261914   8.582   6.665   6.086
20677TIP3   OH261915   8.635   6.816   6.165
20677TIP3    H161916   8.731   6.829   6.179
20677TIP3    H261917   8.610   6.898   6.115
20678TIP3   OH261918   7.760   7.261   6.905
20678TIP3    H161919   7.826   7.247   6.833
20678TIP3    H261920   7.811   7.247   6.986
20679TIP3   OH261921   8.272   7.420   6.048
20679TIP3    H161922   8.216   7.499   6.036
20679TIP3    H261923   8.208   7.358   6.088
20680TIP3   OH261924   7.679   7.200   7.489
20680TIP3    H161925   7.695   7.180   7.583
20680TIP3    H261926   7.604   7.141   7.468
20681TIP3   OH261927   8.432   7.268   7.487
20681TIP3    H161928   8.369   7.250   7.416
20681TIP3    H261929   8.459   7.359   7.465
20682TIP3   OH261930   9.076   6.912   6.002
20682TIP3    H161931   9.016   6.866   5.939
20682TIP3    H261932   9.072   7.001   5.962
20683TIP3   OH261933   8.780   7.722   5.911
20683TIP3    H161934   8.750   7.650   5.967
20683TIP3    H261935   8.786   7.680   5.823
20684TIP3   OH261936   8.756   7.358   6.738
20684TIP3    H161937   8.666   7.323   6.754
20684TIP3    H261938   8.800   7.281   6.699
20685TIP3   OH261939   7.900   7.583   6.507
20685TIP3    H161940   7.905   7.663   6.452
20685TIP3    H261941   7.805   7.567   6.507
20686TIP3   OH261942   7.466   6.886   6.204
20686TIP3    H161943   7.509   6.973   6.219
20686TIP3    H261944   7.387   6.896   6.261
20687TIP3   OH261945   8.044   7.351   6.445
20687TIP3    H161946   8.001   7.436   6.468
20687TIP3    H261947   8.010   7.291   6.513
20688TIP3   OH261948   8.164   7.930   6.970
20688TIP3    H161949   8.192   8.018   6.941
20688TIP3    H261950   8.234   7.915   7.036
20689TIP3   OH261951   7.820   7.827   6.356
20689TIP3    H161952   7.734   7.833   6.402
20689TIP3    H261953   7.850   7.920   6.359
20690TIP3   OH261954   8.542   7.585   6.904
20690TIP3    H161955   8.552   7.594   7.001
20690TIP3    H261956   8.617   7.525   6.887
20691TIP3   OH261957   8.535   7.473   5.810
20691TIP3    H161958   8.584   7.447   5.892
20691TIP3    H261959   8.450   7.428   5.825
20692TIP3   OH261960   8.874   7.933   5.633
20692TIP3    H161961   8.920   8.007   5.589
20692TIP3    H261962   8.791   7.978   5.659
20693TIP3   OH261963   7.890   6.711   7.500
20693TIP3    H161964   7.793   6.714   7.508
20693TIP3    H261965   7.913   6.642   7.564
20694TIP3   OH261966   8.696   7.399   6.034
20694TIP3    H161967   8.683   7.328   6.101
20694TIP3    H261968   8.792   7.390   6.017
20695TIP3   OH261969   7.618   7.793   7.130
20695TIP3    H161970   7.670   7.718   7.165
20695TIP3    H261971   7.635   7.860   7.196
20696TIP3   OH261972   7.907   7.436   5.804
20696TIP3    H161973   7.911   7.341   5.780
20696TIP3    H261974   7.892   7.429   5.901
20697TIP3   OH261975   7.864   7.446   6.071
20697TIP3    H161976   7.914   7.412   6.146
20697TIP3    H261977   7.860   7.542   6.090
20698TIP3   OH261978   7.569   7.134   6.290
20698TIP3    H161979   7.506   7.179   6.349
20698TIP3    H261980   7.584   7.206   6.225
20699TIP3   OH261981   8.752   6.769   7.187
20699TIP3    H161982   8.793   6.812   7.265
20699TIP3    H261983   8.720   6.687   7.229
20700TIP3   OH261984   8.616   6.523   6.344
20700TIP3    H161985   8.602   6.552   6.253
20700TIP3    H261986   8.652   6.604   6.386
20701TIP3   OH261987   8.116   7.644   6.032
20701TIP3    H161988   8.027   7.663   6.067
20701TIP3    H261989   8.125   7.717   5.969
20702TIP3   OH261990   8.306   6.702   6.448
20702TIP3    H161991   8.366   6.777   6.433
20702TIP3    H261992   8.306   6.696   6.546
20703TIP3   OH261993   8.567   7.013   7.264
20703TIP3    H161994   8.558   7.052   7.352
20703TIP3    H261995   8.629   6.940   7.282
20704TIP3   OH261996   8.441   6.430   6.550
20704TIP3    H161997   8.427   6.509   6.605
20704TIP3    H261998   8.503   6.465   6.483
20705TIP3   OH261999   7.859   7.718   6.102
20705TIP3    H162000   7.823   7.785   6.040
20705TIP3    H262001   7.838   7.758   6.189
20706TIP3   OH262002   7.956   6.418   6.342
20706TIP3    H162003   7.960   6.513   6.370
20706TIP3    H262004   8.051   6.398   6.345
20707TIP3   OH262005   8.856   7.113   6.621
20707TIP3    H162006   8.773   7.062   6.628
20707TIP3    H262007   8.917   7.057   6.674
20708TIP3   OH262008   7.585   7.348   6.123
20708TIP3    H162009   7.634   7.427   6.097
20708TIP3    H262010   7.576   7.303   6.037
20709TIP3   OH262011   7.517   6.618   6.224
20709TIP3    H162012   7.519   6.716   6.224
20709TIP3    H262013   7.432   6.602   6.182
20710TIP3   OH262014   7.903   6.343   7.100
20710TIP3    H162015   7.873   6.311   7.012
20710TIP3    H262016   7.892   6.263   7.155
20711TIP3   OH262017   7.445   7.561   6.483
20711TIP3    H162018   7.368   7.588   6.533
20711TIP3    H262019   7.423   7.598   6.395
20712TIP3   OH262020   8.069   7.638   5.722
20712TIP3    H162021   8.005   7.571   5.757
20712TIP3    H262022   8.149   7.585   5.721
20713TIP3   OH262023   8.515   7.698   5.645
20713TIP3    H162024   8.524   7.617   5.699
20713TIP3    H262025   8.568   7.677   5.567
20714TIP3   OH262026   7.747   7.493   7.741
20714TIP3    H162027   7.749   7.396   7.740
20714TIP3    H262028   7.654   7.512   7.719
20715TIP3   OH262029   7.704   7.155   5.939
20715TIP3    H162030   7.752   7.137   6.020
20715TIP3    H262031   7.776   7.161   5.874
20716TIP3   OH262032   7.854   7.237   7.734
20716TIP3    H162033   7.928   7.177   7.718
20716TIP3    H262034   7.839   7.231   7.829
20717TIP3   OH262035   7.934   7.040   6.163
20717TIP3    H162036   7.888   7.048   6.249
20717TIP3    H262037   7.919   6.945   6.152
20718TIP3   OH262038   8.172   7.111   7.379
20718TIP3    H162039   8.099   7.177   7.385
20718TIP3    H262040   8.230   7.152   7.311
20719TIP3   OH262041   8.063   6.826   5.977
20719TIP3    H162042   8.006   6.833   5.898
20719TIP3    H262043   8.065   6.920   6.004
20720TIP3   OH262044   8.842   7.187   5.671
20720TIP3    H162045   8.816   7.140   5.589
20720TIP3    H262046   8.809   7.277   5.648
20721TIP3   OH262047   8.275   6.897   7.511
20721TIP3    H162048   8.288   6.823   7.448
20721TIP3    H262049   8.248   6.970   7.451
20722TIP3   OH262050   8.310   6.696   7.325
20722TIP3    H162051   8.338   6.740   7.242
20722TIP3    H262052   8.216   6.675   7.306
20723TIP3   OH262053   8.336   7.235   7.206
20723TIP3    H162054   8.419   7.239   7.157
20723TIP3    H262055   8.283   7.305   7.163
20724TIP3   OH262056   8.150   7.017   7.722
20724TIP3    H162057   8.099   6.938   7.751
20724TIP3    H262058   8.188   6.985   7.637
20725TIP3   OH262059   8.441   6.466   7.402
20725TIP3    H162060   8.393   6.547   7.375
20725TIP3    H262061   8.373   6.397   7.386
20726TIP3   OH262062   8.542   6.935   7.568
20726TIP3    H162063   8.562   6.891   7.652
20726TIP3    H262064   8.449   6.912   7.552
20727TIP3   OH262065   8.020   6.792   7.811
20727TIP3    H162066   8.023   6.706   7.764
20727TIP3    H262067   8.050   6.764   7.899
20728TIP3   OH262068   8.531   6.464   7.659
20728TIP3    H162069   8.601   6.396   7.645
20728TIP3    H262070   8.492   6.466   7.569
20729TIP3   OH262071   8.595   6.688   7.800
20729TIP3    H162072   8.584   6.606   7.747
20729TIP3    H262073   8.504   6.724   7.799
20730TIP3   OH262074   7.827   7.929   5.919
20730TIP3    H162075   7.921   7.916   5.895
20730TIP3    H262076   7.793   7.965   5.836
20731TIP3   OH262077   7.212   7.938   6.543
20731TIP3    H162078   7.151   7.870   6.505
20731TIP3    H262079   7.265   7.879   6.601
20732TIP3   OH262080   7.353   7.781   6.724
20732TIP3    H162081   7.329   7.701   6.774
20732TIP3    H262082   7.404   7.830   6.791
20733TIP3   OH262083   8.973   7.374   6.003
20733TIP3    H162084   9.041   7.438   5.974
20733TIP3    H262085   9.017   7.334   6.082
20734TIP3   OH262086   9.098   7.241   6.205
20734TIP3    H162087   9.035   7.200   6.268
20734TIP3    H262088   9.168   7.277   6.264
20735TIP3   OH262089   9.039   7.148   5.857
20735TIP3    H162090   8.968   7.151   5.788
20735TIP3    H262091   9.011   7.224   5.911
20736TIP3   OH262092   8.914   6.818   5.807
20736TIP3    H162093   8.859   6.863   5.742
20736TIP3    H262094   8.887   6.725   5.794
20737TIP3   OH262095   8.916   7.097   6.355
20737TIP3    H162096   8.921   7.000   6.348
20737TIP3    H262097   8.900   7.111   6.451
20738TIP3   OH262098   8.858   6.551   5.790
20738TIP3    H162099   8.933   6.525   5.848
20738TIP3    H262100   8.784   6.497   5.823
20739TIP3   OH262101   8.912   6.813   6.250
20739TIP3    H162102   8.955   6.726   6.264
20739TIP3    H262103   8.968   6.848   6.178
20740TIP3   OH262104   9.046   6.962   6.760
20740TIP3    H162105   9.131   6.986   6.716
20740TIP3    H262106   9.045   7.022   6.835
20741TIP3   OH262107   7.759   6.860   7.789
20741TIP3    H162108   7.855   6.844   7.782
20741TIP3    H262109   7.730   6.772   7.822
20742TIP3   OH262110   9.024   6.562   6.294
20742TIP3    H162111   9.061   6.547   6.381
20742TIP3    H262112   8.961   6.487   6.287
20743TIP3   OH262113   7.720   6.556   7.122
20743TIP3    H162114   7.777   6.477   7.121
20743TIP3    H262115   7.785   6.625   7.099
20744TIP3   OH262116   7.521   6.838   7.182
20744TIP3    H162117   7.559   6.818   7.095
20744TIP3    H262118   7.589   6.892   7.223
20745TIP3   OH262119   9.101   6.497   5.922
20745TIP3    H162120   9.141   6.426   5.867
20745TIP3    H262121   9.167   6.569   5.915
20746TIP3   OH262122   7.505   6.326   6.680
20746TIP3    H162123   7.411   6.322   6.705
20746TIP3    H262124   7.503   6.384   6.601
20747TIP3   OH262125   8.655   8.048   6.182
20747TIP3    H162126   8.688   8.022   6.093
20747TIP3    H262127   8.738   8.036   6.233
20748TIP3   OH262128   7.729   6.412   7.499
20748TIP3    H162129   7.674   6.401   7.578
20748TIP3    H262130   7.663   6.446   7.435
20749TIP3   OH262131   7.749   7.830   7.600
20749TIP3    H162132   7.658   7.815   7.567
20749TIP3    H262133   7.740   7.805   7.693
20750TIP3   OH262134   7.949   7.854   7.114
20750TIP3    H162135   7.890   7.924   7.077
20750TIP3    H262136   8.029   7.875   7.062
20751TIP3   OH262137   9.319   6.593   7.222
20751TIP3    H162138   9.266   6.609   7.143
20751TIP3    H262139   9.362   6.507   7.201
20752TIP3   OH262140   7.617   8.151   7.140
20752TIP3    H162141   7.520   8.163   7.122
20752TIP3    H262142   7.616   8.140   7.236
20753TIP3   OH262143   7.833   8.061   6.983
20753TIP3    H162144   7.765   8.103   7.038
20753TIP3    H262145   7.842   8.124   6.910
20754TIP3   OH262146   7.539   7.918   6.893
20754TIP3    H162147   7.563   7.888   6.983
20754TIP3    H262148   7.611   7.873   6.843
20755TIP3   OH262149   7.727   7.790   6.743
20755TIP3    H162150   7.743   7.706   6.792
20755TIP3    H262151   7.817   7.827   6.739
20756TIP3   OH262152   7.994   7.883   6.743
20756TIP3    H162153   8.026   7.792   6.734
20756TIP3    H262154   8.028   7.905   6.831
20757TIP3   OH262155   8.572   6.544   6.844
20757TIP3    H162156   8.526   6.470   6.889
20757TIP3    H262157   8.642   6.497   6.793
20758TIP3   OH262158   9.220   6.518   6.558
20758TIP3    H162159   9.267   6.462   6.492
20758TIP3    H262160   9.221   6.603   6.507
20759TIP3   OH262161   7.817   6.248   6.854
20759TIP3    H162162   7.723   6.217   6.853
20759TIP3    H262163   7.863   6.162   6.848
20760TIP3   OH262164   7.609   6.118   6.502
20760TIP3    H162165   7.634   6.175   6.427
20760TIP3    H262166   7.575   6.183   6.566
20761TIP3   OH262167   8.265   6.275   6.732
20761TIP3    H162168   8.320   6.328   6.671
20761TIP3    H262169   8.277   6.322   6.815
20762TIP3   OH262170   8.794   6.433   6.719
20762TIP3    H162171   8.815   6.396   6.633
20762TIP3    H262172   8.791   6.352   6.775
20763TIP3   OH262173   8.838   6.352   6.281
20763TIP3    H162174   8.751   6.396   6.294
20763TIP3    H262175   8.821   6.265   6.323
20764TIP3   OH262176   7.322   7.692   6.280
20764TIP3    H162177   7.238   7.651   6.250
20764TIP3    H262178   7.307   7.784   6.251
20765TIP3   OH262179   7.720   6.276   6.265
20765TIP3    H162180   7.769   6.216   6.205
20765TIP3    H262181   7.793   6.330   6.301
20766TIP3   OH262182   8.239   6.451   6.353
20766TIP3    H162183   8.296   6.411   6.420
20766TIP3    H262184   8.245   6.545   6.381
20767TIP3   OH262185   8.091   7.876   5.859
20767TIP3    H162186   8.181   7.898   5.825
20767TIP3    H262187   8.069   7.802   5.799
20768TIP3   OH262188   8.793   7.990   5.950
20768TIP3    H162189   8.795   7.891   5.939
20768TIP3    H262190   8.757   8.017   5.864
20769TIP3   OH262191   8.025   6.525   7.744
20769TIP3    H162192   7.993   6.453   7.801
20769TIP3    H262193   8.120   6.526   7.767
20770TIP3   OH262194   8.278   6.524   7.858
20770TIP3    H162195   8.360   6.499   7.811
20770TIP3    H262196   8.267   6.450   7.921
20771TIP3   OH262197   7.408   7.747   5.931
20771TIP3    H162198   7.383   7.728   6.022
20771TIP3    H262199   7.460   7.668   5.908
20772TIP3   OH262200   9.274   7.014   6.164
20772TIP3    H162201   9.232   7.101   6.180
20772TIP3    H262202   9.202   6.968   6.118
20773TIP3   OH262203   9.343   7.302   6.312
20773TIP3    H162204   9.397   7.228   6.344
20773TIP3    H262205   9.401   7.347   6.249
20774TIP3   OH262206   9.862   6.875   6.321
20774TIP3    H162207   9.869   6.954   6.264
20774TIP3    H262208   9.795   6.823   6.272
20775TIP3   OH262209   9.455   7.069   6.440
20775TIP3    H162210   9.550   7.068   6.460
20775TIP3    H262211   9.458   7.023   6.353
20776TIP3   OH262212   9.175   7.543   5.898
20776TIP3    H162213   9.133   7.574   5.816
20776TIP3    H262214   9.206   7.628   5.938
20777TIP3   OH262215  10.114   7.343   5.666
20777TIP3    H162216  10.037   7.405   5.667
20777TIP3    H262217  10.185   7.405   5.643
20778TIP3   OH262218  10.083   7.147   5.447
20778TIP3    H162219  10.117   7.190   5.527
20778TIP3    H262220  10.160   7.097   5.412
20779TIP3   OH262221   9.572   7.269   5.906
20779TIP3    H162222   9.501   7.319   5.863
20779TIP3    H262223   9.525   7.196   5.946
20780TIP3   OH262224  10.126   6.728   5.584
20780TIP3    H162225  10.092   6.724   5.676
20780TIP3    H262226  10.081   6.650   5.547
20781TIP3   OH262227   9.775   7.058   6.124
20781TIP3    H162228   9.685   7.040   6.155
20781TIP3    H262229   9.774   7.018   6.035
20782TIP3   OH262230   9.769   6.703   5.547
20782TIP3    H162231   9.759   6.695   5.644
20782TIP3    H262232   9.689   6.753   5.524
20783TIP3   OH262233   9.293   6.733   6.416
20783TIP3    H162234   9.372   6.767   6.463
20783TIP3    H262235   9.329   6.708   6.329
20784TIP3   OH262236   9.279   6.724   5.939
20784TIP3    H162237   9.326   6.761   5.861
20784TIP3    H262238   9.220   6.799   5.959
20785TIP3   OH262239   9.535   6.945   6.208
20785TIP3    H162240   9.444   6.949   6.171
20785TIP3    H262241   9.568   6.857   6.179
20786TIP3   OH262242   9.799   6.935   5.884
20786TIP3    H162243   9.888   6.961   5.854
20786TIP3    H262244   9.742   6.965   5.809
20787TIP3   OH262245   9.644   6.988   5.673
20787TIP3    H162246   9.574   6.943   5.622
20787TIP3    H262247   9.699   7.026   5.600
20788TIP3   OH262248   9.694   6.714   6.169
20788TIP3    H162249   9.670   6.636   6.224
20788TIP3    H262250   9.761   6.677   6.110
20789TIP3   OH262251   9.892   7.523   5.666
20789TIP3    H162252   9.827   7.449   5.670
20789TIP3    H262253   9.889   7.557   5.757
20790TIP3   OH262254  10.361   6.858   5.538
20790TIP3    H162255  10.271   6.824   5.561
20790TIP3    H262256  10.356   6.951   5.566
20791TIP3   OH262257   9.260   7.146   5.692
20791TIP3    H162258   9.306   7.230   5.713
20791TIP3    H262259   9.184   7.151   5.754
20792TIP3   OH262260   9.702   7.688   5.301
20792TIP3    H162261   9.706   7.595   5.270
20792TIP3    H262262   9.672   7.677   5.393
20793TIP3   OH262263   9.643   7.703   5.573
20793TIP3    H162264   9.712   7.650   5.616
20793TIP3    H262265   9.669   7.793   5.593
20794TIP3   OH262266   9.366   7.392   5.772
20794TIP3    H162267   9.303   7.439   5.831
20794TIP3    H262268   9.384   7.463   5.707
20795TIP3   OH262269  10.372   6.788   5.820
20795TIP3    H162270  10.392   6.787   5.725
20795TIP3    H262271  10.455   6.823   5.856
20796TIP3   OH262272  10.087   6.974   5.935
20796TIP3    H162273  10.141   7.041   5.891
20796TIP3    H262274  10.041   7.028   6.001
20797TIP3   OH262275  10.238   6.662   6.031
20797TIP3    H162276  10.266   6.734   6.092
20797TIP3    H262277  10.291   6.690   5.953
20798TIP3   OH262278   9.751   6.674   5.821
20798TIP3    H162279   9.748   6.765   5.857
20798TIP3    H262280   9.846   6.656   5.832
20799TIP3   OH262281   9.368   7.601   5.577
20799TIP3    H162282   9.435   7.671   5.586
20799TIP3    H262283   9.414   7.543   5.513
20800TIP3   OH262284   9.312   6.876   5.713
20800TIP3    H162285   9.314   6.974   5.710
20800TIP3    H262286   9.226   6.857   5.673
20801TIP3   OH262287   9.686   6.594   6.597
20801TIP3    H162288   9.680   6.569   6.502
20801TIP3    H262289   9.712   6.509   6.638
20802TIP3   OH262290   9.234   7.799   5.977
20802TIP3    H162291   9.168   7.847   6.028
20802TIP3    H262292   9.233   7.853   5.895
20803TIP3   OH262293   9.856   7.896   5.212
20803TIP3    H162294   9.802   7.823   5.249
20803TIP3    H262295   9.934   7.849   5.180
20804TIP3   OH262296   9.507   7.415   5.434
20804TIP3    H162297   9.559   7.379   5.508
20804TIP3    H262298   9.575   7.416   5.363
20805TIP3   OH262299  10.009   7.612   5.242
20805TIP3    H162300   9.980   7.622   5.333
20805TIP3    H262301  10.014   7.514   5.236
20806TIP3   OH262302   9.704   7.321   5.654
20806TIP3    H162303   9.682   7.294   5.746
20806TIP3    H262304   9.737   7.238   5.615
20807TIP3   OH262305   9.810   7.110   5.493
20807TIP3    H162306   9.782   7.116   5.400
20807TIP3    H262307   9.907   7.120   5.482
20808TIP3   OH262308   3.971   2.535  -0.250
20808TIP3    H162309   4.055   2.497  -0.277
20808TIP3    H262310   3.938   2.571  -0.335
20809TIP3   OH262311   9.099   7.558   5.612
20809TIP3    H162312   9.195   7.579   5.602
20809TIP3    H262313   9.095   7.468   5.574
20810TIP3   OH262314   8.985   8.159   6.042
20810TIP3    H162315   8.920   8.098   6.001
20810TIP3    H262316   8.981   8.127   6.134
20811TIP3   OH262317   9.492   6.783   6.601
20811TIP3    H162318   9.554   6.706   6.601
20811TIP3    H262319   9.556   6.851   6.571
20812TIP3   OH262320   9.286   7.033   6.660
20812TIP3    H162321   9.319   7.027   6.568
20812TIP3    H262322   9.317   7.124   6.679
20813TIP3   OH262323   9.301   6.586   6.169
20813TIP3    H162324   9.206   6.580   6.190
20813TIP3    H262325   9.300   6.642   6.088
20814TIP3   OH262326   9.476   6.561   6.805
20814TIP3    H162327   9.554   6.502   6.794
20814TIP3    H262328   9.522   6.647   6.809
20815TIP3   OH262329   9.616   6.504   6.340
20815TIP3    H162330   9.523   6.473   6.340
20815TIP3    H262331   9.663   6.418   6.337
20816TIP3   OH262332   9.400   6.375   5.988
20816TIP3    H162333   9.431   6.430   5.914
20816TIP3    H262334   9.373   6.442   6.054
20817TIP3   OH262335  10.047   6.528   6.211
20817TIP3    H162336  10.109   6.576   6.153
20817TIP3    H262337  10.054   6.577   6.294
20818TIP3   OH262338   9.124   7.936   5.760
20818TIP3    H162339   9.036   7.908   5.729
20818TIP3    H262340   9.119   8.031   5.744
20819TIP3   OH262341   9.515   6.533   5.750
20819TIP3    H162342   9.564   6.470   5.693
20819TIP3    H262343   9.589   6.586   5.786
20820TIP3   OH262344  10.031   6.712   5.846
20820TIP3    H162345  10.089   6.662   5.906
20820TIP3    H262346  10.047   6.803   5.879
20821TIP3   OH262347   9.193   7.974   5.405
20821TIP3    H162348   9.189   7.989   5.500
20821TIP3    H262349   9.280   7.931   5.393
20822TIP3   OH262350   1.762   7.561   8.523
20822TIP3    H162351   1.786   7.643   8.572
20822TIP3    H262352   1.788   7.586   8.432
20823TIP3   OH262353   1.258   7.757   8.547
20823TIP3    H162354   1.281   7.664   8.567
20823TIP3    H262355   1.211   7.746   8.463
20824TIP3   OH262356   1.200   7.519   8.162
20824TIP3    H162357   1.278   7.503   8.219
20824TIP3    H262358   1.243   7.545   8.079
20825TIP3   OH262359   1.827   7.768   8.679
20825TIP3    H162360   1.822   7.854   8.633
20825TIP3    H262361   1.891   7.788   8.750
20826TIP3   OH262362   1.415   7.526   8.329
20826TIP3    H162363   1.406   7.479   8.413
20826TIP3    H262364   1.472   7.602   8.354
20827TIP3   OH262365   1.556   7.502   8.703
20827TIP3    H162366   1.469   7.502   8.658
20827TIP3    H262367   1.618   7.520   8.628
20828TIP3   OH262368   1.137   8.420   7.884
20828TIP3    H162369   1.073   8.352   7.858
20828TIP3    H262370   1.148   8.403   7.978
20829TIP3   OH262371   1.652   8.100   8.485
20829TIP3    H162372   1.621   8.180   8.530
20829TIP3    H262373   1.697   8.139   8.407
20830TIP3   OH262374   1.148   7.992   7.907
20830TIP3    H162375   1.081   7.996   7.979
20830TIP3    H262376   1.224   7.950   7.951
20831TIP3   OH262377   1.052   7.797   7.722
20831TIP3    H162378   1.045   7.868   7.789
20831TIP3    H262379   1.022   7.845   7.643
20832TIP3   OH262380   1.511   7.081   7.790
20832TIP3    H162381   1.413   7.085   7.799
20832TIP3    H262382   1.521   7.163   7.739
20833TIP3   OH262383   1.295   8.444   7.333
20833TIP3    H162384   1.307   8.541   7.325
20833TIP3    H262385   1.388   8.413   7.321
20834TIP3   OH262386   1.175   7.317   8.993
20834TIP3    H162387   1.253   7.280   9.039
20834TIP3    H262388   1.103   7.282   9.049
20835TIP3   OH262389   1.038   7.908   7.463
20835TIP3    H162390   1.025   7.852   7.383
20835TIP3    H262391   1.134   7.929   7.456
20836TIP3   OH262392   1.102   7.726   8.314
20836TIP3    H162393   1.014   7.742   8.273
20836TIP3    H262394   1.129   7.646   8.263
20837TIP3   OH262395   1.290   7.487   8.598
20837TIP3    H162396   1.247   7.508   8.684
20837TIP3    H262397   1.222   7.428   8.560
20838TIP3   OH262398   0.946   7.413   7.711
20838TIP3    H162399   0.883   7.443   7.778
20838TIP3    H262400   1.029   7.448   7.751
20839TIP3   OH262401   1.119   7.569   7.850
20839TIP3    H162402   1.210   7.595   7.874
20839TIP3    H262403   1.086   7.652   7.808
20840TIP3   OH262404   1.534   7.696   7.690
20840TIP3    H162405   1.470   7.651   7.630
20840TIP3    H262406   1.527   7.786   7.651
20841TIP3   OH262407   1.230   8.513   7.602
20841TIP3    H162408   1.206   8.449   7.671
20841TIP3    H262409   1.249   8.458   7.524
20842TIP3   OH262410   1.321   8.726   7.326
20842TIP3    H162411   1.378   8.794   7.284
20842TIP3    H262412   1.234   8.762   7.302
20843TIP3   OH262413   1.142   8.178   7.698
20843TIP3    H162414   1.127   8.113   7.770
20843TIP3    H262415   1.240   8.176   7.696
20844TIP3   OH262416   1.177   7.546   8.840
20844TIP3    H162417   1.179   7.601   8.921
20844TIP3    H262418   1.167   7.457   8.880
20845TIP3   OH262419   1.019   7.324   8.022
20845TIP3    H162420   1.063   7.326   7.935
20845TIP3    H262421   1.075   7.386   8.072
20846TIP3   OH262422   1.670   7.695   8.926
20846TIP3    H162423   1.576   7.713   8.931
20846TIP3    H262424   1.677   7.649   8.841
20847TIP3   OH262425   1.317   7.911   8.305
20847TIP3    H162426   1.239   7.852   8.306
20847TIP3    H262427   1.385   7.857   8.351
20848TIP3   OH262428   1.291   7.979   7.359
20848TIP3    H162429   1.273   7.927   7.278
20848TIP3    H262430   1.264   8.068   7.326
20849TIP3   OH262431   1.426   8.164   7.693
20849TIP3    H162432   1.498   8.224   7.667
20849TIP3    H262433   1.465   8.122   7.773
20850TIP3   OH262434   1.551   8.031   7.896
20850TIP3    H162435   1.488   7.984   7.954
20850TIP3    H262436   1.618   8.065   7.959
20851TIP3   OH262437   1.492   7.938   7.544
20851TIP3    H162438   1.419   7.940   7.479
20851TIP3    H262439   1.464   8.012   7.602
20852TIP3   OH262440   1.370   7.609   7.489
20852TIP3    H162441   1.313   7.644   7.420
20852TIP3    H262442   1.345   7.514   7.486
20853TIP3   OH262443   1.371   7.881   8.039
20853TIP3    H162444   1.377   7.784   8.028
20853TIP3    H262445   1.360   7.892   8.136
20854TIP3   OH262446   1.326   7.337   7.467
20854TIP3    H162447   1.409   7.325   7.518
20854TIP3    H262448   1.265   7.298   7.533
20855TIP3   OH262449   1.379   7.609   7.947
20855TIP3    H162450   1.415   7.518   7.963
20855TIP3    H262451   1.430   7.633   7.867
20856TIP3   OH262452   1.531   7.776   8.427
20856TIP3    H162453   1.622   7.797   8.396
20856TIP3    H262454   1.523   7.837   8.501
20857TIP3   OH262455   2.059   7.498   9.241
20857TIP3    H162456   2.105   7.438   9.178
20857TIP3    H262457   2.027   7.567   9.178
20858TIP3   OH262458   1.481   7.357   7.979
20858TIP3    H162459   1.521   7.335   8.065
20858TIP3    H262460   1.414   7.286   7.973
20859TIP3   OH262461   1.934   7.630   9.038
20859TIP3    H162462   1.849   7.656   9.079
20859TIP3    H262463   1.900   7.569   8.970
20860TIP3   OH262464   1.568   7.297   7.594
20860TIP3    H162465   1.606   7.218   7.550
20860TIP3    H262466   1.641   7.361   7.595
20861TIP3   OH262467   1.814   7.411   8.900
20861TIP3    H162468   1.723   7.399   8.867
20861TIP3    H262469   1.849   7.319   8.891
20862TIP3   OH262470   1.073   7.304   8.541
20862TIP3    H162471   1.046   7.221   8.582
20862TIP3    H262472   1.144   7.272   8.481
20863TIP3   OH262473   1.545   7.219   8.442
20863TIP3    H162474   1.585   7.264   8.363
20863TIP3    H262475   1.450   7.228   8.423
20864TIP3   OH262476   1.642   7.305   8.201
20864TIP3    H162477   1.713   7.256   8.155
20864TIP3    H262478   1.670   7.397   8.184
20865TIP3   OH262479   1.275   7.207   8.389
20865TIP3    H162480   1.272   7.180   8.296
20865TIP3    H262481   1.258   7.123   8.437
20866TIP3   OH262482   1.298   7.146   8.025
20866TIP3    H162483   1.257   7.161   7.937
20866TIP3    H262484   1.278   7.052   8.040
20867TIP3   OH262485   1.242   8.778   7.648
20867TIP3    H162486   1.249   8.679   7.641
20867TIP3    H262487   1.241   8.801   7.555
20868TIP3   OH262488   2.756   8.301   7.597
20868TIP3    H162489   2.727   8.392   7.576
20868TIP3    H262490   2.681   8.250   7.564
20869TIP3   OH262491   2.753   8.301   7.982
20869TIP3    H162492   2.788   8.273   8.068
20869TIP3    H262493   2.715   8.219   7.948
20870TIP3   OH262494   2.071   8.217   8.358
20870TIP3    H162495   2.094   8.145   8.421
20870TIP3    H262496   2.154   8.223   8.307
20871TIP3   OH262497   2.998   8.604   7.661
20871TIP3    H162498   2.986   8.533   7.725
20871TIP3    H262499   3.031   8.677   7.717
20872TIP3   OH262500   2.053   8.604   8.089
20872TIP3    H162501   2.029   8.509   8.086
20872TIP3    H262502   2.145   8.600   8.058
20873TIP3   OH262503   1.733   7.810   7.853
20873TIP3    H162504   1.682   7.892   7.867
20873TIP3    H262505   1.664   7.753   7.816
20874TIP3   OH262506   1.789   8.094   8.020
20874TIP3    H162507   1.838   8.020   8.062
20874TIP3    H262508   1.851   8.121   7.951
20875TIP3   OH262509   2.659   9.062   7.687
20875TIP3    H162510   2.701   8.999   7.625
20875TIP3    H262511   2.625   9.002   7.754
20876TIP3   OH262512   2.557   8.525   8.030
20876TIP3    H162513   2.592   8.445   7.987
20876TIP3    H262514   2.641   8.572   8.045
20877TIP3   OH262515   3.564   7.846   8.025
20877TIP3    H162516   3.596   7.928   8.068
20877TIP3    H262517   3.592   7.862   7.933
20878TIP3   OH262518   2.966   8.028   8.059
20878TIP3    H162519   3.009   7.943   8.079
20878TIP3    H262520   2.935   8.011   7.967
20879TIP3   OH262521   2.305   7.688   8.024
20879TIP3    H162522   2.284   7.760   7.961
20879TIP3    H262523   2.257   7.613   7.980
20880TIP3   OH262524   2.998   7.779   7.646
20880TIP3    H162525   3.070   7.763   7.712
20880TIP3    H262526   3.052   7.813   7.572
20881TIP3   OH262527   1.937   7.891   8.132
20881TIP3    H162528   2.019   7.868   8.179
20881TIP3    H262529   1.947   7.835   8.052
20882TIP3   OH262530   2.375   8.086   7.933
20882TIP3    H162531   2.470   8.063   7.941
20882TIP3    H262532   2.338   8.003   7.897
20883TIP3   OH262533   3.640   8.052   8.195
20883TIP3    H162534   3.556   8.100   8.179
20883TIP3    H262535   3.659   8.080   8.286
20884TIP3   OH262536   2.302   7.665   8.449
20884TIP3    H162537   2.241   7.704   8.383
20884TIP3    H262538   2.251   7.683   8.531
20885TIP3   OH262539   2.646   8.522   7.467
20885TIP3    H162540   2.605   8.502   7.382
20885TIP3    H262541   2.601   8.605   7.492
20886TIP3   OH262542   2.403   8.451   8.254
20886TIP3    H162543   2.350   8.518   8.299
20886TIP3    H262544   2.443   8.502   8.181
20887TIP3   OH262545   3.206   7.783   7.820
20887TIP3    H162546   3.200   7.733   7.902
20887TIP3    H262547   3.262   7.858   7.846
20888TIP3   OH262548   2.170   7.786   8.241
20888TIP3    H162549   2.233   7.857   8.266
20888TIP3    H262550   2.219   7.745   8.166
20889TIP3   OH262551   1.631   8.331   7.588
20889TIP3    H162552   1.591   8.359   7.504
20889TIP3    H262553   1.665   8.414   7.625
20890TIP3   OH262554   3.067   8.836   7.827
20890TIP3    H162555   2.976   8.839   7.865
20890TIP3    H262556   3.067   8.920   7.776
20891TIP3   OH262557   3.361   7.745   8.192
20891TIP3    H162558   3.274   7.774   8.160
20891TIP3    H262559   3.421   7.777   8.121
20892TIP3   OH262560   2.657   7.389   8.173
20892TIP3    H162561   2.642   7.294   8.189
20892TIP3    H262562   2.579   7.427   8.220
20893TIP3   OH262563   2.767   8.894   7.498
20893TIP3    H162564   2.817   8.811   7.481
20893TIP3    H262565   2.830   8.958   7.458
20894TIP3   OH262566   2.912   8.678   7.410
20894TIP3    H162567   2.877   8.598   7.369
20894TIP3    H262568   2.948   8.644   7.494
20895TIP3   OH262569   3.298   8.757   8.172
20895TIP3    H162570   3.286   8.678   8.114
20895TIP3    H262571   3.283   8.830   8.108
20896TIP3   OH262572   2.587   8.153   7.429
20896TIP3    H162573   2.507   8.204   7.406
20896TIP3    H262574   2.633   8.149   7.343
20897TIP3   OH262575   2.545   7.938   7.143
20897TIP3    H162576   2.613   7.988   7.192
20897TIP3    H262577   2.602   7.874   7.096
20898TIP3   OH262578   3.490   8.396   8.017
20898TIP3    H162579   3.407   8.448   8.021
20898TIP3    H262580   3.520   8.418   7.926
20899TIP3   OH262581   2.934   8.236   7.400
20899TIP3    H162582   2.880   8.259   7.478
20899TIP3    H262583   3.018   8.209   7.443
20900TIP3   OH262584   3.168   8.272   8.312
20900TIP3    H162585   3.165   8.354   8.365
20900TIP3    H262586   3.082   8.279   8.266
20901TIP3   OH262587   2.167   8.233   7.816
20901TIP3    H162588   2.125   8.174   7.749
20901TIP3    H262589   2.242   8.178   7.847
20902TIP3   OH262590   2.293   8.612   7.960
20902TIP3    H162591   2.287   8.579   7.869
20902TIP3    H262592   2.388   8.596   7.980
20903TIP3   OH262593   2.294   8.206   8.179
20903TIP3    H162594   2.328   8.178   8.091
20903TIP3    H262595   2.341   8.291   8.193
20904TIP3   OH262596   2.823   8.852   7.949
20904TIP3    H162597   2.817   8.911   8.025
20904TIP3    H262598   2.815   8.764   7.992
20905TIP3   OH262599   2.773   8.094   7.226
20905TIP3    H162600   2.833   8.153   7.278
20905TIP3    H262601   2.800   8.117   7.134
20906TIP3   OH262602   2.518   8.772   7.503
20906TIP3    H162603   2.599   8.825   7.512
20906TIP3    H262604   2.457   8.834   7.462
20907TIP3   OH262605   3.291   7.334   7.275
20907TIP3    H162606   3.209   7.354   7.325
20907TIP3    H262607   3.303   7.417   7.225
20908TIP3   OH262608   2.033   8.076   7.623
20908TIP3    H162609   1.965   8.118   7.566
20908TIP3    H262610   1.995   7.988   7.636
20909TIP3   OH262611   3.090   8.701   6.823
20909TIP3    H162612   3.099   8.797   6.809
20909TIP3    H262613   3.182   8.671   6.810
20910TIP3   OH262614   3.537   9.097   8.204
20910TIP3    H162615   3.540   9.001   8.220
20910TIP3    H262616   3.458   9.122   8.254
20911TIP3   OH262617   2.404   9.018   7.300
20911TIP3    H162618   2.354   9.000   7.219
20911TIP3    H262619   2.366   9.104   7.328
20912TIP3   OH262620   1.833   8.873   7.685
20912TIP3    H162621   1.894   8.844   7.757
20912TIP3    H262622   1.780   8.793   7.674
20913TIP3   OH262623   2.601   8.920   6.942
20913TIP3    H162624   2.660   8.850   6.907
20913TIP3    H262625   2.635   8.930   7.034
20914TIP3   OH262626   2.654   8.967   7.212
20914TIP3    H162627   2.565   8.980   7.251
20914TIP3    H262628   2.701   8.925   7.285
20915TIP3   OH262629   3.421   8.234   8.493
20915TIP3    H162630   3.340   8.243   8.440
20915TIP3    H262631   3.438   8.138   8.483
20916TIP3   OH262632   2.419   7.462   8.302
20916TIP3    H162633   2.330   7.432   8.274
20916TIP3    H262634   2.393   7.545   8.348
20917TIP3   OH262635   2.952   7.580   8.496
20917TIP3    H162636   3.021   7.554   8.560
20917TIP3    H262637   2.868   7.561   8.543
20918TIP3   OH262638   3.187   8.008   8.413
20918TIP3    H162639   3.138   8.004   8.499
20918TIP3    H262640   3.163   8.097   8.379
20919TIP3   OH262641   2.850   8.141   6.971
20919TIP3    H162642   2.817   8.114   6.883
20919TIP3    H262643   2.934   8.185   6.946
20920TIP3   OH262644   2.562   7.515   7.273
20920TIP3    H162645   2.529   7.511   7.365
20920TIP3    H262646   2.525   7.431   7.239
20921TIP3   OH262647   2.346   7.979   8.323
20921TIP3    H162648   2.308   8.006   8.410
20921TIP3    H262649   2.333   8.062   8.271
20922TIP3   OH262650   2.233   7.869   7.835
20922TIP3    H162651   2.140   7.840   7.853
20922TIP3    H262652   2.246   7.827   7.746
20923TIP3   OH262653   2.724   7.953   7.563
20923TIP3    H162654   2.672   8.024   7.519
20923TIP3    H262655   2.779   7.921   7.489
20924TIP3   OH262656   2.917   8.225   8.634
20924TIP3    H162657   2.884   8.158   8.698
20924TIP3    H262658   3.007   8.237   8.667
20925TIP3   OH262659   2.880   7.981   7.800
20925TIP3    H162660   2.820   8.008   7.728
20925TIP3    H262661   2.916   7.900   7.758
20926TIP3   OH262662   2.171   8.024   8.539
20926TIP3    H162663   2.200   8.077   8.617
20926TIP3    H262664   2.163   7.936   8.578
20927TIP3   OH262665   2.217   7.488   7.239
20927TIP3    H162666   2.210   7.484   7.336
20927TIP3    H262667   2.138   7.541   7.216
20928TIP3   OH262668   1.759   7.531   8.113
20928TIP3    H162669   1.838   7.561   8.162
20928TIP3    H262670   1.794   7.498   8.029
20929TIP3   OH262671   1.742   7.516   7.630
20929TIP3    H162672   1.784   7.556   7.551
20929TIP3    H262673   1.676   7.585   7.650
20930TIP3   OH262674   2.886   8.226   8.221
20930TIP3    H162675   2.922   8.155   8.164
20930TIP3    H262676   2.861   8.173   8.300
20931TIP3   OH262677   2.562   7.691   7.896
20931TIP3    H162678   2.480   7.688   7.949
20931TIP3    H262679   2.631   7.686   7.963
20932TIP3   OH262680   1.995   7.746   7.903
20932TIP3    H162681   1.900   7.753   7.876
20932TIP3    H262682   2.017   7.654   7.881
20933TIP3   OH262683   2.263   7.742   7.593
20933TIP3    H162684   2.357   7.755   7.572
20933TIP3    H262685   2.217   7.764   7.509
20934TIP3   OH262686   3.053   7.766   8.098
20934TIP3    H162687   3.018   7.778   8.190
20934TIP3    H262688   2.987   7.705   8.061
20935TIP3   OH262689   2.106   7.776   7.371
20935TIP3    H162690   2.034   7.732   7.323
20935TIP3    H262691   2.158   7.812   7.295
20936TIP3   OH262692   2.644   8.019   7.993
20936TIP3    H162693   2.716   7.979   7.941
20936TIP3    H262694   2.653   7.975   8.079
20937TIP3   OH262695   2.167   7.505   7.873
20937TIP3    H162696   2.131   7.427   7.920
20937TIP3    H262697   2.215   7.464   7.799
20938TIP3   OH262698   2.620   7.916   8.283
20938TIP3    H162699   2.531   7.952   8.300
20938TIP3    H262700   2.678   7.975   8.334
20939TIP3   OH262701   2.356   8.305   7.376
20939TIP3    H162702   2.284   8.240   7.366
20939TIP3    H262703   2.339   8.338   7.468
20940TIP3   OH262704   3.258   8.542   8.007
20940TIP3    H162705   3.282   8.592   7.925
20940TIP3    H262706   3.172   8.501   7.981
20941TIP3   OH262707   2.815   7.617   7.242
20941TIP3    H162708   2.718   7.599   7.250
20941TIP3    H262709   2.823   7.711   7.266
20942TIP3   OH262710   2.782   8.575   8.348
20942TIP3    H162711   2.796   8.554   8.441
20942TIP3    H262712   2.716   8.645   8.357
20943TIP3   OH262713   2.884   7.865   7.345
20943TIP3    H162714   2.980   7.870   7.360
20943TIP3    H262715   2.867   7.945   7.291
20944TIP3   OH262716   2.051   8.329   8.050
20944TIP3    H162717   2.087   8.302   7.962
20944TIP3    H262718   2.093   8.264   8.108
20945TIP3   OH262719   2.502   8.455   7.198
20945TIP3    H162720   2.454   8.541   7.204
20945TIP3    H262721   2.448   8.399   7.259
20946TIP3   OH262722   2.671   8.344   8.643
20946TIP3    H162723   2.644   8.317   8.553
20946TIP3    H262724   2.766   8.320   8.641
20947TIP3   OH262725   2.950   8.870   8.281
20947TIP3    H162726   2.857   8.890   8.305
20947TIP3    H262727   2.999   8.928   8.341
20948TIP3   OH262728   3.326   7.955   7.180
20948TIP3    H162729   3.263   7.911   7.118
20948TIP3    H262730   3.323   8.044   7.139
20949TIP3   OH262731   3.545   8.816   8.257
20949TIP3    H162732   3.448   8.804   8.245
20949TIP3    H262733   3.575   8.785   8.169
20950TIP3   OH262734   3.028   8.774   7.088
20950TIP3    H162735   3.002   8.704   7.150
20950TIP3    H262736   3.039   8.726   7.004
20951TIP3   OH262737   3.018   8.406   7.925
20951TIP3    H162738   2.926   8.375   7.937
20951TIP3    H262739   3.057   8.327   7.881
20952TIP3   OH262740   2.155   8.628   7.675
20952TIP3    H162741   2.150   8.707   7.618
20952TIP3    H262742   2.062   8.620   7.702
20953TIP3   OH262743   1.714   7.935   7.382
20953TIP3    H162744   1.760   8.018   7.404
20953TIP3    H262745   1.637   7.940   7.444
20954TIP3   OH262746   2.290   8.394   7.623
20954TIP3    H162747   2.253   8.484   7.638
20954TIP3    H262748   2.252   8.344   7.697
20955TIP3   OH262749   2.071   8.857   7.533
20955TIP3    H162750   1.985   8.881   7.572
20955TIP3    H262751   2.113   8.946   7.524
20956TIP3   OH262752   2.823   8.607   8.080
20956TIP3    H162753   2.823   8.589   8.177
20956TIP3    H262754   2.898   8.553   8.051
20957TIP3   OH262755   2.783   8.504   6.990
20957TIP3    H162756   2.837   8.478   7.068
20957TIP3    H262757   2.695   8.475   7.019
20958TIP3   OH262758   3.071   9.122   8.110
20958TIP3    H162759   2.982   9.106   8.145
20958TIP3    H262760   3.057   9.197   8.050
20959TIP3   OH262761   3.122   8.977   6.808
20959TIP3    H162762   3.162   9.052   6.760
20959TIP3    H262763   3.041   9.021   6.842
20960TIP3   OH262764   2.158   7.736   8.667
20960TIP3    H162765   2.088   7.778   8.720
20960TIP3    H262766   2.191   7.671   8.731
20961TIP3   OH262767   2.943   8.437   7.206
20961TIP3    H162768   2.933   8.370   7.277
20961TIP3    H262769   3.040   8.433   7.193
20962TIP3   OH262770   2.148   8.482   6.989
20962TIP3    H162771   2.163   8.389   6.962
20962TIP3    H262772   2.128   8.471   7.084
20963TIP3   OH262773   2.092   8.486   7.261
20963TIP3    H162774   2.165   8.459   7.318
20963TIP3    H262775   2.096   8.585   7.269
20964TIP3   OH262776   1.829   8.179   7.464
20964TIP3    H162777   1.763   8.224   7.522
20964TIP3    H262778   1.844   8.249   7.398
20965TIP3   OH262779   2.977   7.818   8.357
20965TIP3    H162780   3.058   7.857   8.394
20965TIP3    H262781   2.965   7.737   8.411
20966TIP3   OH262782   2.857   7.569   7.523
20966TIP3    H162783   2.845   7.590   7.429
20966TIP3    H262784   2.898   7.651   7.558
20967TIP3   OH262785   2.359   8.685   7.209
20967TIP3    H162786   2.272   8.710   7.245
20967TIP3    H262787   2.375   8.760   7.150
20968TIP3   OH262788   2.546   7.749   7.624
20968TIP3    H162789   2.612   7.820   7.607
20968TIP3    H262790   2.552   7.741   7.722
20969TIP3   OH262791   2.817   8.063   8.428
20969TIP3    H162792   2.846   8.115   8.507
20969TIP3    H262793   2.870   7.982   8.438
20970TIP3   OH262794   2.691   7.473   7.726
20970TIP3    H162795   2.687   7.550   7.786
20970TIP3    H262796   2.752   7.508   7.656
20971TIP3   OH262797   2.103   8.758   7.276
20971TIP3    H162798   2.074   8.829   7.214
20971TIP3    H262799   2.086   8.800   7.363
20972TIP3   OH262800   2.204   7.474   7.515
20972TIP3    H162801   2.202   7.564   7.553
20972TIP3    H262802   2.300   7.455   7.523
20973TIP3   OH262803   3.455   7.969   8.414
20973TIP3    H162804   3.356   7.966   8.417
20973TIP3    H262805   3.470   7.926   8.329
20974TIP3   OH262806   3.107   8.163   7.801
20974TIP3    H162807   3.033   8.102   7.812
20974TIP3    H262808   3.180   8.116   7.848
20975TIP3   OH262809   1.820   8.390   7.269
20975TIP3    H162810   1.889   8.458   7.279
20975TIP3    H262811   1.865   8.333   7.203
20976TIP3   OH262812   1.765   7.665   7.400
20976TIP3    H162813   1.764   7.763   7.398
20976TIP3    H262814   1.677   7.644   7.370
20977TIP3   OH262815   3.085   9.090   7.722
20977TIP3    H162816   3.040   9.146   7.655
20977TIP3    H262817   3.178   9.118   7.706
20978TIP3   OH262818   2.154   7.385   8.276
20978TIP3    H162819   2.122   7.353   8.189
20978TIP3    H262820   2.141   7.306   8.333
20979TIP3   OH262821   1.696   8.609   7.658
20979TIP3    H162822   1.619   8.631   7.712
20979TIP3    H262823   1.668   8.646   7.571
20980TIP3   OH262824   2.311   8.685   6.899
20980TIP3    H162825   2.254   8.614   6.939
20980TIP3    H262826   2.387   8.632   6.870
20981TIP3   OH262827   2.748   8.725   6.813
20981TIP3    H162828   2.789   8.660   6.873
20981TIP3    H262829   2.806   8.723   6.735
20982TIP3   OH262830   1.956   8.202   7.123
20982TIP3    H162831   2.011   8.169   7.196
20982TIP3    H262832   2.023   8.207   7.052
20983TIP3   OH262833   2.467   8.401   6.929
20983TIP3    H162834   2.469   8.414   7.026
20983TIP3    H262835   2.468   8.303   6.924
20984TIP3   OH262836   3.090   8.633   8.303
20984TIP3    H162837   3.161   8.683   8.259
20984TIP3    H262838   3.016   8.697   8.293
20985TIP3   OH262839   2.163   8.107   7.344
20985TIP3    H162840   2.138   8.065   7.427
20985TIP3    H262841   2.201   8.031   7.294
20986TIP3   OH262842   2.448   8.145   8.553
20986TIP3    H162843   2.383   8.199   8.602
20986TIP3    H262844   2.487   8.208   8.489
20987TIP3   OH262845   2.265   7.901   7.185
20987TIP3    H162846   2.240   7.905   7.090
20987TIP3    H262847   2.363   7.905   7.178
20988TIP3   OH262848   2.979   8.590   8.695
20988TIP3    H162849   3.039   8.542   8.637
20988TIP3    H262850   2.958   8.523   8.762
20989TIP3   OH262851   3.085   8.231   6.849
20989TIP3    H162852   3.066   8.185   6.766
20989TIP3    H262853   3.053   8.321   6.825
20990TIP3   OH262854   2.577   7.942   8.671
20990TIP3    H162855   2.573   7.865   8.610
20990TIP3    H262856   2.534   8.013   8.617
20991TIP3   OH262857   2.562   7.733   8.491
20991TIP3    H162858   2.587   7.780   8.409
20991TIP3    H262859   2.466   7.715   8.476
20992TIP3   OH262860   2.592   8.291   8.374
20992TIP3    H162861   2.672   8.288   8.319
20992TIP3    H262862   2.534   8.352   8.324
20993TIP3   OH262863   3.177   8.242   8.762
20993TIP3    H162864   3.227   8.158   8.759
20993TIP3    H262865   3.244   8.305   8.733
20994TIP3   OH262866   3.211   8.495   8.495
20994TIP3    H162867   3.153   8.546   8.434
20994TIP3    H262868   3.297   8.514   8.452
20995TIP3   OH262869   2.459   8.025   8.897
20995TIP3    H162870   2.376   7.974   8.897
20995TIP3    H262871   2.494   8.002   8.808
20996TIP3   OH262872   2.692   7.506   8.575
20996TIP3    H162873   2.645   7.588   8.546
20996TIP3    H262874   2.622   7.439   8.561
20997TIP3   OH262875   2.818   8.018   8.778
20997TIP3    H162876   2.812   8.004   8.874
20997TIP3    H262877   2.729   7.986   8.748
20998TIP3   OH262878   3.057   7.957   8.644
20998TIP3    H162879   2.982   7.966   8.706
20998TIP3    H262880   3.130   7.929   8.703
20999TIP3   OH262881   3.286   7.899   8.791
20999TIP3    H162882   3.299   7.803   8.803
20999TIP3    H262883   3.285   7.931   8.884
21000TIP3   OH262884   2.267   7.836   8.937
21000TIP3    H162885   2.279   7.741   8.918
21000TIP3    H262886   2.297   7.842   9.029
21001TIP3   OH262887   2.779   7.511   8.833
21001TIP3    H162888   2.850   7.444   8.824
21001TIP3    H262889   2.742   7.510   8.742
21002TIP3   OH262890   2.860   7.724   8.988
21002TIP3    H162891   2.828   7.657   8.924
21002TIP3    H262892   2.785   7.788   8.990
21003TIP3   OH262893   2.070   8.954   7.085
21003TIP3    H162894   2.167   8.958   7.070
21003TIP3    H262895   2.041   9.014   7.014
21004TIP3   OH262896   1.552   8.345   7.305
21004TIP3    H162897   1.647   8.368   7.292
21004TIP3    H262898   1.549   8.256   7.265
21005TIP3   OH262899   3.325   9.211   7.700
21005TIP3    H162900   3.349   9.231   7.793
21005TIP3    H262901   3.396   9.255   7.651
21006TIP3   OH262902   3.371   9.217   7.969
21006TIP3    H162903   3.332   9.127   7.978
21006TIP3    H262904   3.439   9.214   8.037
21007TIP3   OH262905   3.381   8.901   8.543
21007TIP3    H162906   3.289   8.882   8.567
21007TIP3    H262907   3.370   8.978   8.485
21008TIP3   OH262908   3.222   8.418   7.182
21008TIP3    H162909   3.291   8.482   7.153
21008TIP3    H262910   3.265   8.379   7.261
21009TIP3   OH262911   3.349   8.286   7.385
21009TIP3    H162912   3.284   8.243   7.445
21009TIP3    H262913   3.415   8.322   7.448
21010TIP3   OH262914   3.403   8.677   7.816
21010TIP3    H162915   3.458   8.612   7.768
21010TIP3    H262916   3.398   8.751   7.752
21011TIP3   OH262917   3.253   8.962   8.000
21011TIP3    H162918   3.185   9.014   8.048
21011TIP3    H262919   3.198   8.916   7.933
21012TIP3   OH262920   3.288   8.194   7.032
21012TIP3    H162921   3.215   8.196   6.965
21012TIP3    H262922   3.260   8.269   7.087
21013TIP3   OH262923   3.157   7.867   6.986
21013TIP3    H162924   3.116   7.901   6.906
21013TIP3    H262925   3.134   7.772   6.980
21014TIP3   OH262926   3.162   8.142   7.531
21014TIP3    H162927   3.171   8.046   7.525
21014TIP3    H262928   3.149   8.155   7.628
21015TIP3   OH262929   1.799   8.194   8.282
21015TIP3    H162930   1.789   8.189   8.185
21015TIP3    H262931   1.894   8.214   8.292
21016TIP3   OH262932   3.451   8.564   8.382
21016TIP3    H162933   3.523   8.497   8.376
21016TIP3    H262934   3.479   8.629   8.315
21017TIP3   OH262935   3.636   8.373   8.409
21017TIP3    H162936   3.563   8.318   8.445
21017TIP3    H262937   3.711   8.311   8.421
21018TIP3   OH262938   3.101   7.602   6.973
21018TIP3    H162939   3.177   7.569   7.026
21018TIP3    H262940   3.029   7.540   6.995
21019TIP3   OH262941   3.160   7.858   7.425
21019TIP3    H162942   3.200   7.769   7.441
21019TIP3    H262943   3.218   7.890   7.355
21020TIP3   OH262944   3.320   8.033   7.921
21020TIP3    H162945   3.406   8.058   7.880
21020TIP3    H262946   3.336   8.068   8.011
21021TIP3   OH262947   3.391   8.176   8.154
21021TIP3    H162948   3.312   8.210   8.201
21021TIP3    H262949   3.423   8.256   8.108
21022TIP3   OH262950   2.005   7.837   8.867
21022TIP3    H162951   2.093   7.868   8.896
21022TIP3    H262952   1.980   7.783   8.946
21023TIP3   OH262953   3.821   7.749   8.704
21023TIP3    H162954   3.897   7.697   8.671
21023TIP3    H262955   3.814   7.821   8.638
21024TIP3   OH262956   3.268   7.609   7.465
21024TIP3    H162957   3.317   7.592   7.548
21024TIP3    H262958   3.208   7.531   7.463
21025TIP3   OH262959   1.969   7.592   8.283
21025TIP3    H162960   2.033   7.518   8.293
21025TIP3    H262961   2.030   7.668   8.279
21026TIP3   OH262962   1.783   7.862   8.369
21026TIP3    H162963   1.830   7.862   8.283
21026TIP3    H262964   1.772   7.956   8.385
21027TIP3   OH262965   3.713   7.913   8.508
21027TIP3    H162966   3.624   7.948   8.526
21027TIP3    H262967   3.690   7.833   8.458
21028TIP3   OH262968   3.348   7.543   7.095
21028TIP3    H162969   3.388   7.469   7.044
21028TIP3    H262970   3.417   7.611   7.091
21029TIP3   OH262971   1.753   7.375   7.862
21029TIP3    H162972   1.658   7.368   7.886
21029TIP3    H262973   1.749   7.432   7.782
21030TIP3   OH262974   2.918   9.075   7.366
21030TIP3    H162975   2.963   9.058   7.281
21030TIP3    H262976   2.975   9.143   7.404
21031TIP3   OH262977   1.974   7.440   8.667
21031TIP3    H162978   1.923   7.447   8.750
21031TIP3    H262979   1.911   7.479   8.603
21032TIP3   OH262980   3.610   7.669   8.395
21032TIP3    H162981   3.521   7.661   8.356
21032TIP3    H262982   3.645   7.578   8.383
21033TIP3   OH262983   2.777   9.151   8.038
21033TIP3    H162984   2.698   9.120   7.993
21033TIP3    H262985   2.831   9.183   7.964
21034TIP3   OH262986   3.013   9.296   7.890
21034TIP3    H162987   3.001   9.355   7.814
21034TIP3    H262988   3.055   9.220   7.843
21035TIP3   OH262989   1.989   8.779   7.886
21035TIP3    H162990   2.020   8.706   7.944
21035TIP3    H262991   2.027   8.857   7.929
21036TIP3   OH262992   2.268   8.897   7.903
21036TIP3    H162993   2.259   8.800   7.892
21036TIP3    H262994   2.204   8.932   7.840
21037TIP3   OH262995   2.815   7.584   8.010
21037TIP3    H162996   2.774   7.513   8.063
21037TIP3    H262997   2.889   7.538   7.967
21038TIP3   OH262998   3.338   7.465   7.919
21038TIP3    H162999   3.376   7.516   7.844
21038TIP3    H263000   3.243   7.484   7.909
21039TIP3   OH263001   3.433   7.566   7.682
21039TIP3    H163002   3.507   7.513   7.644
21039TIP3    H263003   3.468   7.657   7.667
21040TIP3   OH263004   2.065   7.294   8.028
21040TIP3    H163005   1.973   7.262   8.029
21040TIP3    H263006   2.113   7.208   8.024
21041TIP3   OH263007   1.858   7.162   7.680
21041TIP3    H163008   1.882   7.221   7.606
21041TIP3    H263009   1.822   7.225   7.745
21042TIP3   OH263010   2.509   7.324   7.909
21042TIP3    H163011   2.567   7.372   7.847
21042TIP3    H263012   2.534   7.365   7.994
21043TIP3   OH263013   3.052   7.473   7.892
21043TIP3    H163014   3.056   7.434   7.804
21043TIP3    H263015   3.041   7.392   7.948
21044TIP3   OH263016   3.086   7.395   7.455
21044TIP3    H163017   2.998   7.436   7.466
21044TIP3    H263018   3.072   7.309   7.501
21045TIP3   OH263019   1.567   8.727   7.456
21045TIP3    H163020   1.480   8.700   7.422
21045TIP3    H263021   1.566   8.821   7.432
21046TIP3   OH263022   1.969   7.324   7.436
21046TIP3    H163023   2.018   7.260   7.381
21046TIP3    H263024   2.043   7.376   7.474
21047TIP3   OH263025   2.481   7.498   7.538
21047TIP3    H163026   2.541   7.450   7.597
21047TIP3    H263027   2.503   7.591   7.564
21048TIP3   OH263028   2.341   8.920   7.038
21048TIP3    H163029   2.429   8.943   7.001
21048TIP3    H263030   2.318   8.846   6.978
21049TIP3   OH263031   3.059   9.041   7.131
21049TIP3    H163032   3.052   8.943   7.119
21049TIP3    H263033   3.014   9.072   7.050
21050TIP3   OH263034   2.276   7.556   8.905
21050TIP3    H163035   2.235   7.497   8.971
21050TIP3    H263036   2.368   7.558   8.939
21051TIP3   OH263037   2.522   7.559   9.031
21051TIP3    H163038   2.606   7.553   8.984
21051TIP3    H263039   2.527   7.481   9.089
21052TIP3   OH263040   1.643   8.754   7.093
21052TIP3    H163041   1.647   8.786   7.184
21052TIP3    H263042   1.732   8.714   7.080
21053TIP3   OH263043   3.347   7.631   8.825
21053TIP3    H163044   3.370   7.603   8.916
21053TIP3    H263045   3.435   7.631   8.781
21054TIP3   OH263046   4.554   8.559   7.082
21054TIP3    H163047   4.524   8.650   7.062
21054TIP3    H263048   4.476   8.508   7.052
21055TIP3   OH263049   4.550   8.557   7.469
21055TIP3    H163050   4.585   8.530   7.556
21055TIP3    H263051   4.510   8.474   7.438
21056TIP3   OH263052   3.849   8.452   7.834
21056TIP3    H163053   3.879   8.383   7.896
21056TIP3    H263054   3.929   8.505   7.825
21057TIP3   OH263055   4.795   8.861   7.147
21057TIP3    H163056   4.781   8.789   7.211
21057TIP3    H263057   4.824   8.933   7.205
21058TIP3   OH263058   3.821   8.862   7.553
21058TIP3    H163059   3.813   8.764   7.555
21058TIP3    H263060   3.918   8.870   7.552
21059TIP3   OH263061   3.529   8.066   7.339
21059TIP3    H163062   3.479   8.148   7.355
21059TIP3    H263063   3.459   8.010   7.301
21060TIP3   OH263064   3.587   8.352   7.514
21060TIP3    H163065   3.635   8.274   7.550
21060TIP3    H263066   3.648   8.383   7.446
21061TIP3   OH263067   4.446   9.322   7.164
21061TIP3    H163068   4.491   9.250   7.115
21061TIP3    H263069   4.435   9.283   7.252
21062TIP3   OH263070   4.350   8.784   7.513
21062TIP3    H163071   4.388   8.705   7.471
21062TIP3    H263072   4.434   8.829   7.537
21063TIP3   OH263073   5.363   8.105   7.509
21063TIP3    H163074   5.393   8.187   7.554
21063TIP3    H263075   5.390   8.122   7.417
21064TIP3   OH263076   4.764   8.287   7.544
21064TIP3    H163077   4.804   8.201   7.568
21064TIP3    H263078   4.732   8.268   7.454
21065TIP3   OH263079   4.099   7.946   7.510
21065TIP3    H163080   4.079   8.017   7.446
21065TIP3    H263081   4.051   7.871   7.469
21066TIP3   OH263082   4.794   8.032   7.132
21066TIP3    H163083   4.865   8.018   7.199
21066TIP3    H263084   4.848   8.069   7.059
21067TIP3   OH263085   3.734   8.146   7.618
21067TIP3    H163086   3.817   8.125   7.666
21067TIP3    H263087   3.747   8.090   7.539
21068TIP3   OH263088   4.174   8.343   7.412
21068TIP3    H163089   4.268   8.318   7.426
21068TIP3    H263090   4.136   8.259   7.380
21069TIP3   OH263091   5.438   8.313   7.678
21069TIP3    H163092   5.352   8.357   7.661
21069TIP3    H263093   5.444   8.325   7.774
21070TIP3   OH263094   4.097   7.926   7.946
21070TIP3    H163095   4.036   7.961   7.878
21070TIP3    H263096   4.046   7.943   8.027
21071TIP3   OH263097   4.446   8.781   6.951
21071TIP3    H163098   4.400   8.758   6.870
21071TIP3    H263099   4.399   8.863   6.977
21072TIP3   OH263100   4.204   8.703   7.739
21072TIP3    H163101   4.141   8.769   7.777
21072TIP3    H263102   4.245   8.755   7.667
21073TIP3   OH263103   5.002   8.038   7.307
21073TIP3    H163104   4.990   7.993   7.391
21073TIP3    H263105   5.057   8.115   7.333
21074TIP3   OH263106   3.967   8.042   7.730
21074TIP3    H163107   4.030   8.113   7.754
21074TIP3    H263108   4.018   8.000   7.656
21075TIP3   OH263109   4.030   8.897   7.838
21075TIP3    H163110   4.004   8.984   7.802
21075TIP3    H263111   3.952   8.880   7.895
21076TIP3   OH263112   3.426   8.587   7.074
21076TIP3    H163113   3.384   8.615   6.991
21076TIP3    H263114   3.457   8.672   7.111
21077TIP3   OH263115   4.866   9.104   7.315
21077TIP3    H163116   4.776   9.093   7.355
21077TIP3    H263117   4.855   9.190   7.270
21078TIP3   OH263118   5.155   8.011   7.677
21078TIP3    H163119   5.067   8.037   7.645
21078TIP3    H263120   5.214   8.040   7.604
21079TIP3   OH263121   4.451   7.655   7.656
21079TIP3    H163122   4.441   7.560   7.676
21079TIP3    H263123   4.370   7.689   7.701
21080TIP3   OH263124   4.567   9.148   6.988
21080TIP3    H163125   4.617   9.066   6.969
21080TIP3    H263126   4.628   9.214   6.947
21081TIP3   OH263127   4.711   8.934   6.895
21081TIP3    H163128   4.666   8.855   6.862
21081TIP3    H263129   4.748   8.900   6.980
21082TIP3   OH263130   5.092   9.017   7.657
21082TIP3    H163131   5.080   8.937   7.601
21082TIP3    H263132   5.075   9.089   7.594
21083TIP3   OH263133   4.382   8.409   6.915
21083TIP3    H163134   4.302   8.460   6.893
21083TIP3    H263135   4.429   8.406   6.830
21084TIP3   OH263136   4.341   8.193   6.632
21084TIP3    H163137   4.409   8.245   6.680
21084TIP3    H263138   4.399   8.131   6.583
21085TIP3   OH263139   5.286   8.655   7.504
21085TIP3    H163140   5.203   8.705   7.509
21085TIP3    H263141   5.314   8.675   7.412
21086TIP3   OH263142   4.731   8.492   6.886
21086TIP3    H163143   4.676   8.516   6.964
21086TIP3    H263144   4.814   8.465   6.930
21087TIP3   OH263145   4.965   8.532   7.799
21087TIP3    H163146   4.960   8.614   7.852
21087TIP3    H263147   4.878   8.535   7.755
21088TIP3   OH263148   3.964   8.489   7.303
21088TIP3    H163149   3.923   8.430   7.236
21088TIP3    H263150   4.040   8.435   7.334
21089TIP3   OH263151   4.095   8.904   7.451
21089TIP3    H163152   4.072   8.859   7.368
21089TIP3    H263153   4.184   8.868   7.469
21090TIP3   OH263154   4.096   8.462   7.658
21090TIP3    H163155   4.131   8.437   7.570
21090TIP3    H263156   4.142   8.546   7.678
21091TIP3   OH263157   4.626   9.098   7.436
21091TIP3    H163158   4.611   9.176   7.491
21091TIP3    H263159   4.610   9.024   7.497
21092TIP3   OH263160   4.236   9.021   7.977
21092TIP3    H163161   4.177   9.080   8.027
21092TIP3    H263162   4.170   8.966   7.930
21093TIP3   OH263163   4.570   8.350   6.713
21093TIP3    H163164   4.630   8.409   6.765
21093TIP3    H263165   4.597   8.373   6.621
21094TIP3   OH263166   3.991   8.577   8.083
21094TIP3    H163167   3.996   8.663   8.129
21094TIP3    H263168   3.897   8.555   8.093
21095TIP3   OH263169   4.315   9.028   6.987
21095TIP3    H163170   4.394   9.081   7.004
21095TIP3    H263171   4.253   9.091   6.949
21096TIP3   OH263172   4.029   9.187   8.073
21096TIP3    H163173   3.992   9.183   7.983
21096TIP3    H263174   3.954   9.158   8.128
21097TIP3   OH263175   5.086   7.590   6.761
21097TIP3    H163176   5.005   7.611   6.812
21097TIP3    H263177   5.100   7.673   6.711
21098TIP3   OH263178   3.830   8.331   7.106
21098TIP3    H163179   3.762   8.375   7.052
21098TIP3    H263180   3.790   8.246   7.124
21099TIP3   OH263181   4.886   8.958   6.310
21099TIP3    H163182   4.895   9.054   6.296
21099TIP3    H263183   4.978   8.928   6.298
21100TIP3   OH263184   3.610   8.716   8.016
21100TIP3    H163185   3.545   8.693   7.947
21100TIP3    H263186   3.647   8.629   8.041
21101TIP3   OH263187   3.465   8.910   7.647
21101TIP3    H163188   3.561   8.901   7.639
21101TIP3    H263189   3.459   8.986   7.707
21102TIP3   OH263190   5.327   9.362   7.701
21102TIP3    H163191   5.330   9.266   7.715
21102TIP3    H263192   5.244   9.384   7.748
21103TIP3   OH263193   4.434   9.147   7.838
21103TIP3    H163194   4.432   9.239   7.872
21103TIP3    H263195   4.362   9.106   7.891
21104TIP3   OH263196   4.196   9.276   6.790
21104TIP3    H163197   4.148   9.257   6.708
21104TIP3    H263198   4.162   9.363   6.816
21105TIP3   OH263199   3.633   9.124   7.176
21105TIP3    H163200   3.681   9.115   7.262
21105TIP3    H263201   3.580   9.042   7.177
21106TIP3   OH263202   4.397   9.177   6.430
21106TIP3    H163203   4.455   9.107   6.395
21106TIP3    H263204   4.430   9.185   6.522
21107TIP3   OH263205   4.448   9.224   6.700
21107TIP3    H163206   4.359   9.234   6.742
21107TIP3    H263207   4.497   9.182   6.773
21108TIP3   OH263208   5.219   8.493   7.978
21108TIP3    H163209   5.135   8.501   7.929
21108TIP3    H263210   5.236   8.397   7.969
21109TIP3   OH263211   3.815   8.901   8.006
21109TIP3    H163212   3.865   8.883   8.088
21109TIP3    H263213   3.742   8.835   8.012
21110TIP3   OH263214   4.214   7.731   7.779
21110TIP3    H163215   4.130   7.687   7.757
21110TIP3    H263216   4.182   7.801   7.839
21111TIP3   OH263217   4.743   7.841   7.983
21111TIP3    H163218   4.801   7.787   8.043
21111TIP3    H263219   4.656   7.821   8.025
21112TIP3   OH263220   4.990   8.270   7.904
21112TIP3    H163221   4.938   8.262   7.987
21112TIP3    H263222   4.960   8.355   7.867
21113TIP3   OH263223   4.648   8.398   6.459
21113TIP3    H163224   4.613   8.371   6.372
21113TIP3    H263225   4.731   8.442   6.433
21114TIP3   OH263226   4.366   7.770   6.758
21114TIP3    H163227   4.328   7.774   6.847
21114TIP3    H263228   4.318   7.696   6.718
21115TIP3   OH263229   4.145   8.238   7.807
21115TIP3    H163230   4.098   8.259   7.890
21115TIP3    H263231   4.128   8.319   7.754
21116TIP3   OH263232   4.028   8.124   7.318
21116TIP3    H163233   3.936   8.097   7.338
21116TIP3    H263234   4.040   8.080   7.231
21117TIP3   OH263235   4.517   8.206   7.048
21117TIP3    H163236   4.467   8.279   7.007
21117TIP3    H263237   4.574   8.177   6.975
21118TIP3   OH263238   4.692   8.486   8.134
21118TIP3    H163239   4.672   8.412   8.196
21118TIP3    H263240   4.785   8.503   8.156
21119TIP3   OH263241   4.679   8.237   7.286
21119TIP3    H163242   4.615   8.264   7.217
21119TIP3    H263243   4.712   8.155   7.245
21120TIP3   OH263244   3.962   8.267   8.017
21120TIP3    H163245   4.003   8.325   8.083
21120TIP3    H263246   3.954   8.183   8.067
21121TIP3   OH263247   4.021   7.748   6.727
21121TIP3    H163248   4.003   7.743   6.823
21121TIP3    H263249   3.940   7.794   6.697
21122TIP3   OH263250   3.558   7.790   7.596
21122TIP3    H163251   3.633   7.819   7.651
21122TIP3    H263252   3.599   7.753   7.517
21123TIP3   OH263253   3.529   7.769   7.115
21123TIP3    H163254   3.574   7.808   7.037
21123TIP3    H263255   3.468   7.842   7.137
21124TIP3   OH263256   4.688   8.485   7.710
21124TIP3    H163257   4.721   8.413   7.651
21124TIP3    H263258   4.659   8.432   7.787
21125TIP3   OH263259   4.353   7.953   7.382
21125TIP3    H163260   4.274   7.946   7.439
21125TIP3    H263261   4.425   7.939   7.446
21126TIP3   OH263262   3.792   8.003   7.389
21126TIP3    H163263   3.697   8.008   7.363
21126TIP3    H263264   3.815   7.910   7.370
21127TIP3   OH263265   4.061   7.991   7.077
21127TIP3    H163266   4.154   8.016   7.061
21127TIP3    H263267   4.014   8.020   6.996
21128TIP3   OH263268   4.849   8.025   7.584
21128TIP3    H163269   4.818   8.035   7.677
21128TIP3    H263270   4.785   7.960   7.550
21129TIP3   OH263271   3.903   8.032   6.858
21129TIP3    H163272   3.831   7.987   6.811
21129TIP3    H263273   3.954   8.068   6.782
21130TIP3   OH263274   5.017   9.711   7.803
21130TIP3    H163275   5.015   9.732   7.707
21130TIP3    H263276   5.103   9.750   7.829
21131TIP3   OH263277   3.978   8.822   8.226
21131TIP3    H163278   4.058   8.852   8.274
21131TIP3    H263279   3.914   8.817   8.299
21132TIP3   OH263280   4.439   8.277   7.482
21132TIP3    H163281   4.511   8.231   7.435
21132TIP3    H263282   4.442   8.234   7.570
21133TIP3   OH263283   3.957   7.762   7.360
21133TIP3    H163284   3.923   7.686   7.413
21133TIP3    H263285   4.016   7.716   7.299
21134TIP3   OH263286   4.418   8.179   7.758
21134TIP3    H163287   4.327   8.207   7.783
21134TIP3    H263288   4.475   8.232   7.818
21135TIP3   OH263289   4.152   8.562   6.863
21135TIP3    H163290   4.081   8.496   6.853
21135TIP3    H263291   4.134   8.595   6.955
21136TIP3   OH263292   5.052   8.799   7.494
21136TIP3    H163293   5.076   8.848   7.412
21136TIP3    H263294   4.968   8.755   7.469
21137TIP3   OH263295   4.615   7.874   6.728
21137TIP3    H163296   4.518   7.858   6.733
21137TIP3    H263297   4.624   7.969   6.751
21138TIP3   OH263298   4.560   8.881   7.862
21138TIP3    H163299   4.587   8.853   7.951
21138TIP3    H263300   4.512   8.964   7.879
21139TIP3   OH263301   4.680   8.121   6.831
21139TIP3    H163302   4.777   8.127   6.847
21139TIP3    H263303   4.663   8.202   6.778
21140TIP3   OH263304   3.845   8.584   7.540
21140TIP3    H163305   3.884   8.555   7.455
21140TIP3    H263306   3.889   8.524   7.602
21141TIP3   OH263307   4.298   8.711   6.686
21141TIP3    H163308   4.250   8.797   6.692
21141TIP3    H263309   4.244   8.655   6.746
21142TIP3   OH263310   3.724   8.508   8.157
21142TIP3    H163311   3.751   8.488   8.249
21142TIP3    H263312   3.661   8.436   8.139
21143TIP3   OH263313   4.453   8.620   8.174
21143TIP3    H163314   4.396   8.559   8.125
21143TIP3    H263315   4.542   8.588   8.147
21144TIP3   OH263316   4.712   9.152   7.757
21144TIP3    H163317   4.616   9.137   7.768
21144TIP3    H263318   4.734   9.198   7.839
21145TIP3   OH263319   5.121   8.211   6.666
21145TIP3    H163320   5.059   8.167   6.604
21145TIP3    H263321   5.119   8.300   6.625
21146TIP3   OH263322   5.343   9.074   7.745
21146TIP3    H163323   5.245   9.065   7.739
21146TIP3    H263324   5.368   9.041   7.656
21147TIP3   OH263325   4.828   9.030   6.577
21147TIP3    H163326   4.795   8.963   6.638
21147TIP3    H263327   4.835   8.983   6.492
21148TIP3   OH263328   4.819   8.661   7.410
21148TIP3    H163329   4.726   8.634   7.425
21148TIP3    H263330   4.854   8.580   7.367
21149TIP3   OH263331   3.946   8.887   7.164
21149TIP3    H163332   3.945   8.969   7.111
21149TIP3    H263333   3.852   8.871   7.177
21150TIP3   OH263334   3.510   8.192   6.869
21150TIP3    H163335   3.556   8.276   6.891
21150TIP3    H263336   3.433   8.196   6.930
21151TIP3   OH263337   4.084   8.653   7.108
21151TIP3    H163338   4.049   8.742   7.128
21151TIP3    H263339   4.049   8.602   7.183
21152TIP3   OH263340   4.216   9.231   7.634
21152TIP3    H163341   4.258   9.303   7.584
21152TIP3    H263342   4.292   9.195   7.683
21153TIP3   OH263343   3.865   9.127   7.017
21153TIP3    H163344   3.780   9.135   7.064
21153TIP3    H263345   3.897   9.220   7.021
21154TIP3   OH263346   4.605   8.867   7.594
21154TIP3    H163347   4.594   8.865   7.691
21154TIP3    H263348   4.681   8.809   7.582
21155TIP3   OH263349   4.579   8.761   6.475
21155TIP3    H163350   4.632   8.735   6.554
21155TIP3    H263351   4.491   8.731   6.503
21156TIP3   OH263352   4.852   9.400   7.647
21156TIP3    H163353   4.775   9.340   7.641
21156TIP3    H263354   4.834   9.462   7.572
21157TIP3   OH263355   4.921   9.233   6.298
21157TIP3    H163356   4.962   9.306   6.248
21157TIP3    H263357   4.841   9.278   6.329
21158TIP3   OH263358   3.939   8.011   8.162
21158TIP3    H163359   3.843   8.010   8.175
21158TIP3    H263360   3.970   7.953   8.232
21159TIP3   OH263361   4.739   8.692   6.690
21159TIP3    H163362   4.728   8.627   6.762
21159TIP3    H263363   4.836   8.689   6.680
21160TIP3   OH263364   3.653   9.090   7.792
21160TIP3    H163365   3.710   9.023   7.833
21160TIP3    H263366   3.675   9.169   7.843
21161TIP3   OH263367   3.943   8.739   6.476
21161TIP3    H163368   3.958   8.647   6.447
21161TIP3    H263369   3.924   8.727   6.571
21162TIP3   OH263370   3.888   8.744   6.748
21162TIP3    H163371   3.961   8.715   6.806
21162TIP3    H263372   3.894   8.842   6.757
21163TIP3   OH263373   3.624   8.437   6.952
21163TIP3    H163374   3.558   8.481   7.009
21163TIP3    H263375   3.639   8.506   6.885
21164TIP3   OH263376   4.777   8.073   7.844
21164TIP3    H163377   4.856   8.107   7.888
21164TIP3    H263378   4.760   7.991   7.897
21165TIP3   OH263379   4.657   7.823   7.006
21165TIP3    H163380   4.646   7.849   6.913
21165TIP3    H263381   4.696   7.904   7.046
21166TIP3   OH263382   4.155   8.941   6.696
21166TIP3    H163383   4.069   8.967   6.733
21166TIP3    H263384   4.171   9.014   6.634
21167TIP3   OH263385   4.339   7.995   7.104
21167TIP3    H163386   4.403   8.067   7.088
21167TIP3    H263387   4.345   7.986   7.202
21168TIP3   OH263388   4.615   8.323   7.917
21168TIP3    H163389   4.636   8.375   7.997
21168TIP3    H263390   4.668   8.242   7.931
21169TIP3   OH263391   4.493   7.743   7.218
21169TIP3    H163392   4.506   7.809   7.288
21169TIP3    H263393   4.560   7.771   7.152
21170TIP3   OH263394   3.900   9.017   6.764
21170TIP3    H163395   3.869   9.087   6.703
21170TIP3    H263396   3.883   9.060   6.852
21171TIP3   OH263397   4.004   7.729   7.002
21171TIP3    H163398   3.991   7.818   7.040
21171TIP3    H263399   4.096   7.712   7.026
21172TIP3   OH263400   5.256   8.225   7.895
21172TIP3    H163401   5.158   8.226   7.907
21172TIP3    H263402   5.260   8.168   7.817
21173TIP3   OH263403   4.904   8.419   7.286
21173TIP3    H163404   4.829   8.359   7.300
21173TIP3    H263405   4.976   8.372   7.334
21174TIP3   OH263406   3.617   8.646   6.756
21174TIP3    H163407   3.687   8.714   6.766
21174TIP3    H263408   3.662   8.589   6.689
21175TIP3   OH263409   3.563   7.922   6.890
21175TIP3    H163410   3.559   8.020   6.887
21175TIP3    H263411   3.481   7.897   6.845
21176TIP3   OH263412   4.873   9.376   7.236
21176TIP3    H163413   4.830   9.422   7.161
21176TIP3    H263414   4.967   9.393   7.215
21177TIP3   OH263415   3.943   7.642   7.766
21177TIP3    H163416   3.924   7.605   7.678
21177TIP3    H263417   3.948   7.561   7.820
21178TIP3   OH263418   3.489   8.863   7.143
21178TIP3    H163419   3.419   8.891   7.204
21178TIP3    H263420   3.458   8.903   7.059
21179TIP3   OH263421   3.678   9.362   8.202
21179TIP3    H163422   3.767   9.339   8.234
21179TIP3    H263423   3.646   9.273   8.179
21180TIP3   OH263424   4.160   9.381   8.224
21180TIP3    H163425   4.237   9.327   8.250
21180TIP3    H263426   4.110   9.315   8.172
21181TIP3   OH263427   4.108   8.942   6.388
21181TIP3    H163428   4.051   8.871   6.427
21181TIP3    H263429   4.183   8.889   6.356
21182TIP3   OH263430   4.765   9.267   8.010
21182TIP3    H163431   4.791   9.188   8.060
21182TIP3    H263432   4.841   9.327   8.025
21183TIP3   OH263433   4.544   8.983   6.301
21183TIP3    H163434   4.584   8.916   6.360
21183TIP3    H263435   4.602   8.979   6.222
21184TIP3   OH263436   3.776   8.785   8.410
21184TIP3    H163437   3.794   8.689   8.406
21184TIP3    H263438   3.689   8.792   8.366
21185TIP3   OH263439   3.753   8.459   6.610
21185TIP3    H163440   3.808   8.425   6.683
21185TIP3    H263441   3.820   8.463   6.538
21186TIP3   OH263442   4.380   8.895   8.188
21186TIP3    H163443   4.340   8.904   8.100
21186TIP3    H263444   4.417   8.804   8.184
21187TIP3   OH263445   4.264   8.659   6.417
21187TIP3    H163446   4.266   8.670   6.514
21187TIP3    H263447   4.265   8.560   6.411
21188TIP3   OH263448   4.878   8.902   7.798
21188TIP3    H163449   4.950   8.949   7.752
21188TIP3    H263450   4.802   8.961   7.782
21189TIP3   OH263451   3.898   8.533   8.396
21189TIP3    H163452   3.977   8.483   8.373
21189TIP3    H263453   3.925   8.572   8.482
21190TIP3   OH263454   3.960   8.364   6.831
21190TIP3    H163455   3.933   8.323   6.914
21190TIP3    H263456   3.996   8.287   6.781
21191TIP3   OH263457   4.224   8.424   8.056
21191TIP3    H163458   4.151   8.488   8.060
21191TIP3    H263459   4.279   8.459   7.982
21192TIP3   OH263460   4.062   8.157   6.672
21192TIP3    H163461   4.035   8.161   6.577
21192TIP3    H263462   4.159   8.162   6.664
21193TIP3   OH263463   4.740   8.817   8.172
21193TIP3    H163464   4.833   8.809   8.150
21193TIP3    H263465   4.733   8.765   8.254
21194TIP3   OH263466   4.883   8.489   6.335
21194TIP3    H163467   4.862   8.441   6.252
21194TIP3    H263468   4.849   8.578   6.311
21195TIP3   OH263469   4.350   8.216   8.188
21195TIP3    H163470   4.354   8.136   8.132
21195TIP3    H263471   4.307   8.280   8.128
21196TIP3   OH263472   4.353   8.010   7.993
21196TIP3    H163473   4.383   8.038   7.905
21196TIP3    H263474   4.262   7.979   7.974
21197TIP3   OH263475   4.380   8.537   7.868
21197TIP3    H163476   4.465   8.542   7.822
21197TIP3    H263477   4.326   8.603   7.820
21198TIP3   OH263478   4.966   8.502   8.250
21198TIP3    H163479   5.005   8.413   8.258
21198TIP3    H263480   5.038   8.552   8.211
21199TIP3   OH263481   5.010   8.758   7.985
21199TIP3    H163482   4.949   8.810   7.927
21199TIP3    H263483   5.096   8.778   7.942
21200TIP3   OH263484   4.223   8.330   8.413
21200TIP3    H163485   4.160   8.257   8.430
21200TIP3    H263486   4.263   8.301   8.329
21201TIP3   OH263487   4.486   7.770   8.060
21201TIP3    H163488   4.434   7.851   8.040
21201TIP3    H263489   4.419   7.700   8.051
21202TIP3   OH263490   4.612   8.270   8.277
21202TIP3    H163491   4.603   8.255   8.373
21202TIP3    H263492   4.522   8.244   8.249
21203TIP3   OH263493   4.851   8.222   8.129
21203TIP3    H163494   4.776   8.217   8.192
21203TIP3    H263495   4.926   8.190   8.185
21204TIP3   OH263496   5.083   8.179   8.278
21204TIP3    H163497   5.102   8.082   8.292
21204TIP3    H263498   5.077   8.210   8.371
21205TIP3   OH263499   4.070   8.107   8.469
21205TIP3    H163500   4.076   8.016   8.436
21205TIP3    H263501   4.110   8.096   8.558
21206TIP3   OH263502   4.595   7.775   8.315
21206TIP3    H163503   4.678   7.726   8.297
21206TIP3    H263504   4.551   7.765   8.228
21207TIP3   OH263505   4.647   7.992   8.476
21207TIP3    H163506   4.630   7.919   8.412
21207TIP3    H263507   4.567   8.047   8.467
21208TIP3   OH263508   3.869   9.221   6.577
21208TIP3    H163509   3.965   9.214   6.557
21208TIP3    H263510   3.840   9.270   6.498
21209TIP3   OH263511   3.348   8.602   6.791
21209TIP3    H163512   3.443   8.623   6.778
21209TIP3    H263513   3.343   8.512   6.751
21210TIP3   OH263514   3.262   9.213   7.209
21210TIP3    H163515   3.196   9.151   7.172
21210TIP3    H263516   3.307   9.156   7.274
21211TIP3   OH263517   3.398   9.063   7.394
21211TIP3    H163518   3.388   8.991   7.458
21211TIP3    H263519   3.449   9.126   7.449
21212TIP3   OH263520   5.127   9.464   7.193
21212TIP3    H163521   5.151   9.493   7.283
21212TIP3    H263522   5.188   9.515   7.138
21213TIP3   OH263523   5.157   9.483   7.474
21213TIP3    H163524   5.110   9.397   7.470
21213TIP3    H263525   5.230   9.459   7.534
21214TIP3   OH263526   5.191   9.158   8.047
21214TIP3    H163527   5.121   9.165   8.115
21214TIP3    H263528   5.240   9.242   8.059
21215TIP3   OH263529   5.019   8.674   6.670
21215TIP3    H163530   5.090   8.735   6.643
21215TIP3    H263531   5.059   8.633   6.750
21216TIP3   OH263532   5.144   8.544   6.874
21216TIP3    H163533   5.080   8.500   6.934
21216TIP3    H263534   5.212   8.578   6.937
21217TIP3   OH263535   5.201   8.935   7.303
21217TIP3    H163536   5.256   8.867   7.258
21217TIP3    H263537   5.189   9.002   7.234
21218TIP3   OH263538   5.030   9.236   7.497
21218TIP3    H163539   4.958   9.274   7.551
21218TIP3    H263540   4.981   9.187   7.428
21219TIP3   OH263541   5.084   8.450   6.518
21219TIP3    H163542   5.012   8.452   6.451
21219TIP3    H263543   5.055   8.525   6.574
21220TIP3   OH263544   4.954   8.124   6.471
21220TIP3    H163545   4.910   8.157   6.392
21220TIP3    H263546   4.931   8.028   6.465
21221TIP3   OH263547   4.959   8.398   7.018
21221TIP3    H163548   4.968   8.302   7.012
21221TIP3    H263549   4.946   8.412   7.114
21222TIP3   OH263550   3.585   8.474   7.765
21222TIP3    H163551   3.584   8.441   7.673
21222TIP3    H263552   3.682   8.474   7.782
21223TIP3   OH263553   5.252   8.824   7.874
21223TIP3    H163554   5.322   8.756   7.866
21223TIP3    H263555   5.280   8.890   7.808
21224TIP3   OH263556   5.436   8.629   7.892
21224TIP3    H163557   5.360   8.577   7.927
21224TIP3    H263558   5.508   8.564   7.906
21225TIP3   OH263559   4.898   7.858   6.459
21225TIP3    H163560   4.973   7.826   6.512
21225TIP3    H263561   4.826   7.797   6.481
21226TIP3   OH263562   4.956   8.115   6.912
21226TIP3    H163563   4.996   8.026   6.928
21226TIP3    H263564   5.015   8.147   6.841
21227TIP3   OH263565   5.116   8.289   7.406
21227TIP3    H163566   5.202   8.314   7.367
21227TIP3    H263567   5.130   8.323   7.497
21228TIP3   OH263568   5.186   8.432   7.639
21228TIP3    H163569   5.109   8.465   7.689
21228TIP3    H263570   5.218   8.514   7.595
21229TIP3   OH263571   3.805   8.163   8.440
21229TIP3    H163572   3.903   8.155   8.442
21229TIP3    H263573   3.780   8.077   8.478
21230TIP3   OH263574   5.647   8.032   8.196
21230TIP3    H163575   5.699   7.960   8.153
21230TIP3    H263576   5.612   8.080   8.119
21231TIP3   OH263577   5.064   7.865   6.950
21231TIP3    H163578   5.114   7.850   7.033
21231TIP3    H263579   5.005   7.787   6.950
21232TIP3   OH263580   3.763   7.851   7.773
21232TIP3    H163581   3.822   7.774   7.781
21232TIP3    H263582   3.828   7.923   7.764
21233TIP3   OH263583   3.565   8.126   7.841
21233TIP3    H163584   3.616   8.117   7.758
21233TIP3    H263585   3.601   8.208   7.877
21234TIP3   OH263586   5.508   8.161   8.000
21234TIP3    H163587   5.421   8.202   8.020
21234TIP3    H263588   5.479   8.089   7.942
21235TIP3   OH263589   5.144   7.799   6.582
21235TIP3    H163590   5.185   7.726   6.532
21235TIP3    H263591   5.213   7.868   6.579
21236TIP3   OH263592   3.551   7.630   7.345
21236TIP3    H163593   3.457   7.624   7.371
21236TIP3    H263594   3.547   7.687   7.266
21237TIP3   OH263595   4.709   9.332   6.850
21237TIP3    H163596   4.762   9.319   6.768
21237TIP3    H263597   4.762   9.398   6.897
21238TIP3   OH263598   3.770   7.712   8.162
21238TIP3    H163599   3.719   7.706   8.244
21238TIP3    H263600   3.703   7.744   8.099
21239TIP3   OH263601   3.818   9.127   8.244
21239TIP3    H163602   3.729   9.093   8.226
21239TIP3    H263603   3.821   9.110   8.341
21240TIP3   OH263604   3.989   9.167   7.784
21240TIP3    H163605   3.941   9.243   7.746
21240TIP3    H263606   4.075   9.181   7.739
21241TIP3   OH263607   4.434   9.411   7.923
21241TIP3    H163608   4.474   9.411   8.013
21241TIP3    H263609   4.500   9.463   7.873
21242TIP3   OH263610   4.611   9.564   7.780
21242TIP3    H163611   4.682   9.514   7.738
21242TIP3    H263612   4.662   9.623   7.840
21243TIP3   OH263613   5.408   7.926   7.874
21243TIP3    H163614   5.315   7.910   7.848
21243TIP3    H263615   5.442   7.834   7.868
21244TIP3   OH263616   3.672   9.402   7.790
21244TIP3    H163617   3.578   9.425   7.773
21244TIP3    H263618   3.683   9.459   7.870
21245TIP3   OH263619   3.910   9.404   7.661
21245TIP3    H163620   3.821   9.408   7.705
21245TIP3    H263621   3.888   9.437   7.572
21246TIP3   OH263622   4.328   9.433   7.462
21246TIP3    H163623   4.258   9.451   7.397
21246TIP3    H263624   4.339   9.520   7.505
21247TIP3   OH263625   4.597   9.373   7.514
21247TIP3    H163626   4.502   9.388   7.495
21247TIP3    H263627   4.638   9.449   7.471
21248TIP3   OH263628   4.806   9.564   7.430
21248TIP3    H163629   4.791   9.648   7.380
21248TIP3    H263630   4.830   9.502   7.357
21249TIP3   OH263631   3.576   9.218   7.551
21249TIP3    H163632   3.602   9.193   7.642
21249TIP3    H263633   3.648   9.173   7.501
21250TIP3   OH263634   3.771   9.090   7.409
21250TIP3    H163635   3.786   9.006   7.458
21250TIP3    H263636   3.862   9.126   7.406
21251TIP3   OH263637   4.038   9.184   7.412
21251TIP3    H163638   4.068   9.091   7.402
21251TIP3    H263639   4.083   9.206   7.496
21252TIP3   OH263640   4.603   7.835   7.485
21252TIP3    H163641   4.564   7.772   7.548
21252TIP3    H263642   4.685   7.790   7.457
21253TIP3   OH263643   5.135   7.715   7.399
21253TIP3    H163644   5.171   7.771   7.326
21253TIP3    H263645   5.041   7.741   7.400
21254TIP3   OH263646   5.230   7.824   7.165
21254TIP3    H163647   5.304   7.771   7.128
21254TIP3    H263648   5.265   7.915   7.151
21255TIP3   OH263649   3.861   7.551   7.511
21255TIP3    H163650   3.769   7.518   7.518
21255TIP3    H263651   3.909   7.465   7.503
21256TIP3   OH263652   3.644   7.421   7.162
21256TIP3    H163653   3.675   7.478   7.090
21256TIP3    H263654   3.620   7.485   7.231
21257TIP3   OH263655   4.303   7.594   7.382
21257TIP3    H163656   4.376   7.645   7.344
21257TIP3    H263657   4.314   7.610   7.477
21258TIP3   OH263658   4.850   7.728   7.383
21258TIP3    H163659   4.856   7.688   7.295
21258TIP3    H263660   4.835   7.649   7.439
21259TIP3   OH263661   4.880   7.650   6.941
21259TIP3    H163662   4.796   7.697   6.956
21259TIP3    H263663   4.865   7.568   6.992
21260TIP3   OH263664   3.365   8.990   6.941
21260TIP3    H163665   3.280   8.957   6.908
21260TIP3    H263666   3.353   9.085   6.924
21261TIP3   OH263667   3.764   7.580   6.924
21261TIP3    H163668   3.810   7.514   6.868
21261TIP3    H263669   3.839   7.630   6.962
21262TIP3   OH263670   4.303   7.711   7.031
21262TIP3    H163671   4.361   7.711   7.112
21262TIP3    H263672   4.285   7.808   7.036
21263TIP3   OH263673   4.136   9.178   6.523
21263TIP3    H163674   4.225   9.200   6.488
21263TIP3    H263675   4.114   9.103   6.464
21264TIP3   OH263676   4.857   9.299   6.618
21264TIP3    H163677   4.851   9.201   6.607
21264TIP3    H263678   4.811   9.328   6.537
21265TIP3   OH263679   4.069   7.831   8.406
21265TIP3    H163680   4.036   7.760   8.463
21265TIP3    H263681   4.164   7.830   8.432
21266TIP3   OH263682   4.317   7.824   8.526
21266TIP3    H163683   4.402   7.799   8.486
21266TIP3    H263684   4.309   7.756   8.597
21267TIP3   OH263685   3.442   9.017   6.581
21267TIP3    H163686   3.443   9.036   6.676
21267TIP3    H263687   3.529   8.974   6.568
21268TIP3   OH263688   5.156   7.925   8.333
21268TIP3    H163689   5.161   7.874   8.416
21268TIP3    H263690   5.199   7.865   8.271
21269TIP3   OH263691   5.082   9.443   7.804
21269TIP3    H163692   5.004   9.410   7.755
21269TIP3    H263693   5.060   9.538   7.809
21270TIP3   OH263694   6.354   8.828   6.554
21270TIP3    H163695   6.331   8.908   6.602
21270TIP3    H263696   6.287   8.765   6.587
21271TIP3   OH263697   5.646   8.710   7.317
21271TIP3    H163698   5.672   8.641   7.381
21271TIP3    H263699   5.730   8.758   7.309
21272TIP3   OH263700   6.583   9.114   6.629
21272TIP3    H163701   6.587   9.045   6.697
21272TIP3    H263702   6.616   9.191   6.681
21273TIP3   OH263703   5.616   9.118   7.036
21273TIP3    H163704   5.607   9.020   7.036
21273TIP3    H263705   5.712   9.125   7.050
21274TIP3   OH263706   5.322   8.323   6.824
21274TIP3    H163707   5.273   8.406   6.840
21274TIP3    H263708   5.252   8.267   6.788
21275TIP3   OH263709   5.385   8.606   6.999
21275TIP3    H163710   5.431   8.529   7.039
21275TIP3    H263711   5.447   8.631   6.930
21276TIP3   OH263712   6.250   9.582   6.653
21276TIP3    H163713   6.289   9.509   6.601
21276TIP3    H263714   6.231   9.538   6.737
21277TIP3   OH263715   6.136   9.043   7.005
21277TIP3    H163716   6.136   8.949   6.972
21277TIP3    H263717   6.232   9.060   7.012
21278TIP3   OH263718   7.166   8.380   7.009
21278TIP3    H163719   7.170   8.442   7.084
21278TIP3    H263720   7.159   8.441   6.934
21279TIP3   OH263721   6.562   8.553   7.029
21279TIP3    H163722   6.598   8.466   7.052
21279TIP3    H263723   6.518   8.532   6.944
21280TIP3   OH263724   5.895   8.207   6.994
21280TIP3    H163725   5.877   8.282   6.934
21280TIP3    H263726   5.845   8.136   6.948
21281TIP3   OH263727   6.594   8.284   6.623
21281TIP3    H163728   6.663   8.263   6.689
21281TIP3    H263729   6.648   8.328   6.555
21282TIP3   OH263730   5.531   8.402   7.105
21282TIP3    H163731   5.614   8.383   7.152
21282TIP3    H263732   5.544   8.345   7.026
21283TIP3   OH263733   5.891   8.182   7.433
21283TIP3    H163734   5.833   8.220   7.363
21283TIP3    H263735   5.838   8.202   7.512
21284TIP3   OH263736   6.249   9.050   6.394
21284TIP3    H163737   6.179   8.995   6.433
21284TIP3    H263738   6.218   9.138   6.429
21285TIP3   OH263739   5.998   8.959   7.232
21285TIP3    H163740   5.936   9.027   7.265
21285TIP3    H263741   6.042   9.004   7.158
21286TIP3   OH263742   6.814   8.292   6.794
21286TIP3    H163743   6.779   8.251   6.874
21286TIP3    H263744   6.848   8.377   6.830
21287TIP3   OH263745   5.762   8.297   7.216
21287TIP3    H163746   5.824   8.370   7.239
21287TIP3    H263747   5.812   8.259   7.140
21288TIP3   OH263748   5.824   9.155   7.322
21288TIP3    H163749   5.799   9.246   7.293
21288TIP3    H263750   5.747   9.135   7.380
21289TIP3   OH263751   5.215   8.847   6.553
21289TIP3    H163752   5.178   8.857   6.463
21289TIP3    H263753   5.195   8.933   6.592
21290TIP3   OH263754   6.644   9.333   6.778
21290TIP3    H163755   6.564   9.335   6.834
21290TIP3    H263756   6.647   9.426   6.749
21291TIP3   OH263757   6.954   8.241   7.158
21291TIP3    H163758   6.875   8.298   7.162
21291TIP3    H263759   7.011   8.290   7.096
21292TIP3   OH263760   6.249   7.901   7.146
21292TIP3    H163761   6.232   7.807   7.163
21292TIP3    H263762   6.172   7.941   7.192
21293TIP3   OH263763   6.360   9.404   6.466
21293TIP3    H163764   6.418   9.326   6.461
21293TIP3    H263765   6.422   9.472   6.431
21294TIP3   OH263766   6.502   9.167   6.376
21294TIP3    H163767   6.422   9.119   6.402
21294TIP3    H263768   6.559   9.146   6.454
21295TIP3   OH263769   6.176   8.666   6.395
21295TIP3    H163770   6.088   8.700   6.371
21295TIP3    H263771   6.217   8.642   6.310
21296TIP3   OH263772   6.135   8.449   6.119
21296TIP3    H163773   6.207   8.493   6.166
21296TIP3    H263774   6.186   8.382   6.069
21297TIP3   OH263775   7.084   8.879   6.955
21297TIP3    H163776   7.007   8.933   6.984
21297TIP3    H263777   7.114   8.930   6.877
21298TIP3   OH263778   6.527   8.742   6.363
21298TIP3    H163779   6.474   8.770   6.442
21298TIP3    H263780   6.613   8.723   6.405
21299TIP3   OH263781   6.759   8.787   7.287
21299TIP3    H163782   6.758   8.880   7.313
21299TIP3    H263783   6.669   8.777   7.250
21300TIP3   OH263784   5.772   8.744   6.786
21300TIP3    H163785   5.729   8.680   6.726
21300TIP3    H263786   5.851   8.696   6.816
21301TIP3   OH263787   5.899   9.157   6.924
21301TIP3    H163788   5.877   9.067   6.897
21301TIP3    H263789   5.990   9.140   6.958
21302TIP3   OH263790   5.901   8.718   7.140
21302TIP3    H163791   5.958   8.704   7.061
21302TIP3    H263792   5.938   8.804   7.169
21303TIP3   OH263793   6.415   9.356   6.924
21303TIP3    H163794   6.412   9.430   6.986
21303TIP3    H263795   6.403   9.278   6.982
21304TIP3   OH263796   6.031   9.277   7.459
21304TIP3    H163797   5.967   9.333   7.508
21304TIP3    H263798   5.969   9.216   7.414
21305TIP3   OH263799   6.362   8.612   6.196
21305TIP3    H163800   6.428   8.658   6.253
21305TIP3    H263801   6.396   8.635   6.106
21306TIP3   OH263802   5.787   8.834   7.567
21306TIP3    H163803   5.788   8.919   7.616
21306TIP3    H263804   5.693   8.809   7.578
21307TIP3   OH263805   6.111   9.267   6.470
21307TIP3    H163806   6.173   9.339   6.491
21307TIP3    H263807   6.046   9.315   6.413
21308TIP3   OH263808   5.829   9.435   7.565
21308TIP3    H163809   5.793   9.441   7.475
21308TIP3    H263810   5.749   9.419   7.619
21309TIP3   OH263811   6.885   7.851   6.251
21309TIP3    H163812   6.802   7.859   6.302
21309TIP3    H263813   6.886   7.936   6.204
21310TIP3   OH263814   5.626   8.593   6.592
21310TIP3    H163815   5.551   8.626   6.539
21310TIP3    H263816   5.598   8.503   6.614
21311TIP3   OH263817   5.407   8.974   7.502
21311TIP3    H163818   5.340   8.948   7.435
21311TIP3    H263819   5.444   8.887   7.529
21312TIP3   OH263820   5.260   9.170   7.126
21312TIP3    H163821   5.355   9.160   7.132
21312TIP3    H263822   5.245   9.244   7.187
21313TIP3   OH263823   6.212   9.415   7.317
21313TIP3    H163824   6.230   9.480   7.388
21313TIP3    H263825   6.145   9.360   7.363
21314TIP3   OH263826   5.407   9.303   6.674
21314TIP3    H163827   5.453   9.325   6.759
21314TIP3    H263828   5.315   9.303   6.708
21315TIP3   OH263829   6.218   9.455   5.904
21315TIP3    H163830   6.250   9.365   5.888
21315TIP3    H263831   6.208   9.457   6.001
21316TIP3   OH263832   6.237   9.480   6.188
21316TIP3    H163833   6.141   9.468   6.206
21316TIP3    H263834   6.275   9.451   6.272
21317TIP3   OH263835   5.608   9.160   7.491
21317TIP3    H163836   5.660   9.139   7.571
21317TIP3    H263837   5.536   9.093   7.496
21318TIP3   OH263838   6.010   7.977   7.277
21318TIP3    H163839   5.921   7.948   7.250
21318TIP3    H263840   5.988   8.061   7.320
21319TIP3   OH263841   6.546   8.094   7.469
21319TIP3    H163842   6.612   8.069   7.536
21319TIP3    H263843   6.461   8.076   7.514
21320TIP3   OH263844   6.770   8.510   7.368
21320TIP3    H163845   6.744   8.521   7.461
21320TIP3    H263846   6.785   8.602   7.339
21321TIP3   OH263847   6.448   8.687   5.953
21321TIP3    H163848   6.402   8.653   5.873
21321TIP3    H263849   6.530   8.724   5.914
21322TIP3   OH263850   6.157   8.031   6.247
21322TIP3    H163851   6.127   8.027   6.340
21322TIP3    H263852   6.120   7.946   6.215
21323TIP3   OH263853   5.932   8.495   7.289
21323TIP3    H163854   5.889   8.523   7.372
21323TIP3    H263855   5.922   8.576   7.233
21324TIP3   OH263856   5.809   8.381   6.803
21324TIP3    H163857   5.721   8.344   6.824
21324TIP3    H263858   5.829   8.338   6.718
21325TIP3   OH263859   6.312   8.464   6.534
21325TIP3    H163860   6.262   8.538   6.494
21325TIP3    H263861   6.367   8.433   6.460
21326TIP3   OH263862   6.494   8.754   7.630
21326TIP3    H163863   6.459   8.675   7.678
21326TIP3    H263864   6.577   8.717   7.595
21327TIP3   OH263865   6.489   8.504   6.767
21327TIP3    H163866   6.403   8.526   6.728
21327TIP3    H263867   6.505   8.417   6.727
21328TIP3   OH263868   5.755   8.527   7.505
21328TIP3    H163869   5.798   8.581   7.572
21328TIP3    H263870   5.747   8.441   7.552
21329TIP3   OH263871   5.811   8.002   6.211
21329TIP3    H163872   5.807   7.998   6.309
21329TIP3    H263873   5.729   8.052   6.191
21330TIP3   OH263874   5.356   8.047   7.081
21330TIP3    H163875   5.430   8.078   7.137
21330TIP3    H263876   5.400   8.011   7.003
21331TIP3   OH263877   5.324   8.025   6.601
21331TIP3    H163878   5.372   8.062   6.525
21331TIP3    H263879   5.265   8.099   6.622
21332TIP3   OH263880   6.500   8.751   7.201
21332TIP3    H163881   6.519   8.683   7.132
21332TIP3    H263882   6.462   8.693   7.271
21333TIP3   OH263883   6.154   8.202   6.868
21333TIP3    H163884   6.072   8.200   6.921
21333TIP3    H263885   6.220   8.222   6.936
21334TIP3   OH263886   5.582   8.251   6.881
21334TIP3    H163887   5.488   8.257   6.851
21334TIP3    H263888   5.608   8.161   6.856
21335TIP3   OH263889   5.854   8.249   6.566
21335TIP3    H163890   5.950   8.263   6.553
21335TIP3    H263891   5.814   8.277   6.481
21336TIP3   OH263892   6.630   8.281   7.059
21336TIP3    H163893   6.606   8.294   7.153
21336TIP3    H263894   6.561   8.218   7.032
21337TIP3   OH263895   5.694   8.298   6.344
21337TIP3    H163896   5.623   8.248   6.300
21337TIP3    H263897   5.746   8.327   6.266
21338TIP3   OH263898   5.765   9.080   7.708
21338TIP3    H163899   5.845   9.112   7.754
21338TIP3    H263900   5.703   9.073   7.783
21339TIP3   OH263901   5.756   8.020   6.845
21339TIP3    H163902   5.723   7.941   6.894
21339TIP3    H263903   5.820   7.980   6.784
21340TIP3   OH263904   6.208   8.407   7.288
21340TIP3    H163905   6.129   8.456   7.260
21340TIP3    H263906   6.276   8.476   7.298
21341TIP3   OH263907   5.948   8.827   6.342
21341TIP3    H163908   5.880   8.756   6.327
21341TIP3    H263909   5.922   8.855   6.433
21342TIP3   OH263910   6.852   9.039   6.987
21342TIP3    H163911   6.875   9.091   6.906
21342TIP3    H263912   6.767   8.999   6.958
21343TIP3   OH263913   6.399   8.143   6.193
21343TIP3    H163914   6.309   8.112   6.220
21343TIP3    H263915   6.410   8.228   6.240
21344TIP3   OH263916   6.343   9.135   7.345
21344TIP3    H163917   6.392   9.106   7.425
21344TIP3    H263918   6.300   9.216   7.376
21345TIP3   OH263919   6.477   8.379   6.317
21345TIP3    H163920   6.572   8.381   6.340
21345TIP3    H263921   6.467   8.459   6.263
21346TIP3   OH263922   5.648   8.841   7.022
21346TIP3    H163923   5.691   8.807   6.941
21346TIP3    H263924   5.685   8.783   7.090
21347TIP3   OH263925   6.114   8.960   6.177
21347TIP3    H163926   6.073   9.048   6.178
21347TIP3    H263927   6.047   8.907   6.227
21348TIP3   OH263928   5.520   8.765   7.641
21348TIP3    H163929   5.544   8.746   7.735
21348TIP3    H263930   5.455   8.694   7.623
21349TIP3   OH263931   6.238   8.865   7.661
21349TIP3    H163932   6.179   8.813   7.605
21349TIP3    H263933   6.326   8.836   7.628
21350TIP3   OH263934   6.489   9.392   7.273
21350TIP3    H163935   6.396   9.381   7.247
21350TIP3    H263936   6.478   9.410   7.368
21351TIP3   OH263937   6.925   8.466   6.146
21351TIP3    H163938   6.861   8.420   6.088
21351TIP3    H263939   6.914   8.556   6.107
21352TIP3   OH263940   6.615   8.913   6.892
21352TIP3    H163941   6.543   8.870   6.940
21352TIP3    H263942   6.656   8.836   6.847
21353TIP3   OH263943   5.305   8.448   6.355
21353TIP3    H163944   5.352   8.531   6.378
21353TIP3    H263945   5.229   8.452   6.417
21354TIP3   OH263946   5.872   8.923   6.586
21354TIP3    H163947   5.906   8.995   6.641
21354TIP3    H263948   5.848   8.857   6.654
21355TIP3   OH263949   6.009   9.485   7.120
21355TIP3    H163950   6.049   9.563   7.077
21355TIP3    H263951   6.085   9.451   7.171
21356TIP3   OH263952   5.643   9.382   6.532
21356TIP3    H163953   5.595   9.464   6.553
21356TIP3    H263954   5.728   9.420   6.505
21357TIP3   OH263955   6.402   9.119   7.077
21357TIP3    H163956   6.381   9.110   7.173
21357TIP3    H263957   6.481   9.065   7.070
21358TIP3   OH263958   6.713   9.471   5.772
21358TIP3    H163959   6.745   9.553   5.731
21358TIP3    H263960   6.636   9.514   5.819
21359TIP3   OH263961   5.732   8.269   7.647
21359TIP3    H163962   5.636   8.271   7.660
21359TIP3    H263963   5.761   8.209   7.718
21360TIP3   OH263964   5.452   9.348   7.281
21360TIP3    H163965   5.502   9.274   7.319
21360TIP3    H263966   5.478   9.420   7.340
21361TIP3   OH263967   5.756   8.985   5.966
21361TIP3    H163968   5.752   8.892   5.937
21361TIP3    H263969   5.724   8.978   6.058
21362TIP3   OH263970   5.692   9.000   6.233
21362TIP3    H163971   5.762   8.978   6.297
21362TIP3    H263972   5.686   9.098   6.241
21363TIP3   OH263973   5.418   8.694   6.435
21363TIP3    H163974   5.356   8.741   6.494
21363TIP3    H263975   5.434   8.762   6.367
21364TIP3   OH263976   6.568   8.330   7.321
21364TIP3    H163977   6.648   8.380   7.349
21364TIP3    H263978   6.566   8.253   7.382
21365TIP3   OH263979   6.444   8.088   6.496
21365TIP3    H163980   6.441   8.112   6.402
21365TIP3    H263981   6.491   8.163   6.537
21366TIP3   OH263982   6.134   8.261   6.599
21366TIP3    H163983   6.200   8.332   6.584
21366TIP3    H263984   6.139   8.252   6.697
21367TIP3   OH263985   6.412   8.582   7.394
21367TIP3    H163986   6.425   8.625   7.480
21367TIP3    H263987   6.468   8.503   7.402
21368TIP3   OH263988   6.289   7.993   6.709
21368TIP3    H163989   6.274   8.071   6.764
21368TIP3    H263990   6.346   8.029   6.637
21369TIP3   OH263991   5.649   9.268   6.263
21369TIP3    H163992   5.639   9.320   6.180
21369TIP3    H263993   5.727   9.316   6.298
21370TIP3   OH263994   5.797   7.986   6.486
21370TIP3    H163995   5.797   8.074   6.528
21370TIP3    H263996   5.892   7.965   6.496
21371TIP3   OH263997   6.706   8.678   6.770
21371TIP3    H163998   6.628   8.619   6.782
21371TIP3    H263999   6.774   8.630   6.822
21372TIP3   OH264000   5.414   8.905   6.241
21372TIP3    H164001   5.476   8.980   6.236
21372TIP3    H264002   5.459   8.844   6.178
21373TIP3   OH264003   5.359   8.178   6.375
21373TIP3    H164004   5.356   8.276   6.372
21373TIP3    H264005   5.274   8.154   6.336
21374TIP3   OH264006   6.642   9.595   6.697
21374TIP3    H164007   6.602   9.666   6.643
21374TIP3    H264008   6.733   9.628   6.705
21375TIP3   OH264009   5.743   7.900   7.251
21375TIP3    H164010   5.714   7.866   7.163
21375TIP3    H264011   5.735   7.821   7.308
21376TIP3   OH264012   5.437   9.649   7.687
21376TIP3    H164013   5.521   9.648   7.737
21376TIP3    H264014   5.411   9.555   7.694
21377TIP3   OH264015   5.903   9.192   5.866
21377TIP3    H164016   5.844   9.128   5.912
21377TIP3    H264017   5.977   9.135   5.842
21378TIP3   OH264018   6.337   9.226   5.796
21378TIP3    H164019   6.412   9.171   5.820
21378TIP3    H264020   6.356   9.242   5.701
21379TIP3   OH264021   5.571   9.058   7.903
21379TIP3    H164022   5.589   8.962   7.906
21379TIP3    H264023   5.484   9.061   7.858
21380TIP3   OH264024   5.549   8.717   6.098
21380TIP3    H164025   5.602   8.678   6.169
21380TIP3    H264026   5.616   8.719   6.026
21381TIP3   OH264027   6.174   9.140   7.666
21381TIP3    H164028   6.152   9.161   7.574
21381TIP3    H264029   6.216   9.052   7.658
21382TIP3   OH264030   6.069   8.915   5.897
21382TIP3    H164031   6.040   8.923   5.989
21382TIP3    H264032   6.078   8.818   5.890
21383TIP3   OH264033   6.644   9.136   7.294
21383TIP3    H164034   6.716   9.176   7.242
21383TIP3    H264035   6.571   9.198   7.281
21384TIP3   OH264036   5.693   8.800   7.879
21384TIP3    H164037   5.764   8.737   7.860
21384TIP3    H264038   5.717   8.829   7.970
21385TIP3   OH264039   5.765   8.622   6.319
21385TIP3    H164040   5.733   8.583   6.402
21385TIP3    H264041   5.794   8.542   6.269
21386TIP3   OH264042   6.021   8.683   7.544
21386TIP3    H164043   5.946   8.746   7.544
21386TIP3    H264044   6.075   8.716   7.468
21387TIP3   OH264045   5.856   8.416   6.156
21387TIP3    H164046   5.831   8.416   6.061
21387TIP3    H264047   5.954   8.417   6.150
21388TIP3   OH264048   6.680   8.758   5.811
21388TIP3    H164049   6.642   8.707   5.737
21388TIP3    H264050   6.746   8.812   5.762
21389TIP3   OH264051   6.140   8.469   7.674
21389TIP3    H164052   6.146   8.388   7.619
21389TIP3    H264053   6.103   8.534   7.610
21390TIP3   OH264054   6.147   8.250   7.498
21390TIP3    H164055   6.178   8.300   7.418
21390TIP3    H264056   6.055   8.229   7.472
21391TIP3   OH264057   6.179   8.796   7.360
21391TIP3    H164058   6.254   8.781   7.301
21391TIP3    H264059   6.125   8.859   7.309
21392TIP3   OH264060   6.013   8.588   7.889
21392TIP3    H164061   5.952   8.514   7.911
21392TIP3    H264062   6.053   8.555   7.806
21393TIP3   OH264063   6.285   8.018   7.548
21393TIP3    H164064   6.236   8.101   7.528
21393TIP3    H264065   6.215   7.951   7.534
21394TIP3   OH264066   6.396   8.539   7.757
21394TIP3    H164067   6.419   8.514   7.848
21394TIP3    H264068   6.305   8.503   7.748
21395TIP3   OH264069   6.623   8.502   7.604
21395TIP3    H164070   6.547   8.488   7.664
21395TIP3    H264071   6.689   8.443   7.648
21396TIP3   OH264072   6.792   8.355   7.750
21396TIP3    H164073   6.858   8.286   7.774
21396TIP3    H264074   6.821   8.432   7.802
21397TIP3   OH264075   5.867   8.363   7.955
21397TIP3    H164076   5.872   8.272   7.921
21397TIP3    H264077   5.903   8.351   8.046
21398TIP3   OH264078   6.377   8.026   7.805
21398TIP3    H164079   6.444   7.956   7.795
21398TIP3    H264080   6.337   8.024   7.715
21399TIP3   OH264081   6.430   8.238   7.971
21399TIP3    H164082   6.414   8.169   7.903
21399TIP3    H264083   6.353   8.297   7.959
21400TIP3   OH264084   5.668   9.454   6.057
21400TIP3    H164085   5.760   9.466   6.087
21400TIP3    H264086   5.665   9.512   5.978
21401TIP3   OH264087   5.146   8.854   6.283
21401TIP3    H164088   5.240   8.877   6.265
21401TIP3    H264089   5.139   8.767   6.238
21402TIP3   OH264090   5.063   9.467   6.692
21402TIP3    H164091   4.994   9.407   6.655
21402TIP3    H264092   5.103   9.408   6.760
21403TIP3   OH264093   5.210   9.325   6.874
21403TIP3    H164094   5.187   9.250   6.932
21403TIP3    H264095   5.253   9.383   6.940
21404TIP3   OH264096   6.824   8.931   6.137
21404TIP3    H164097   6.894   8.997   6.124
21404TIP3    H264098   6.847   8.894   6.225
21405TIP3   OH264099   6.935   8.797   6.351
21405TIP3    H164100   6.871   8.756   6.414
21405TIP3    H264101   7.003   8.835   6.410
21406TIP3   OH264102   6.960   9.172   6.779
21406TIP3    H164103   7.040   9.127   6.748
21406TIP3    H264104   6.967   9.261   6.743
21407TIP3   OH264105   6.878   8.702   6.000
21407TIP3    H164106   6.803   8.709   5.939
21407TIP3    H264107   6.859   8.779   6.058
21408TIP3   OH264108   6.755   8.377   5.948
21408TIP3    H164109   6.697   8.406   5.877
21408TIP3    H264110   6.730   8.282   5.955
21409TIP3   OH264111   6.755   8.655   6.503
21409TIP3    H164112   6.754   8.558   6.499
21409TIP3    H264113   6.742   8.672   6.599
21410TIP3   OH264114   5.382   8.734   7.249
21410TIP3    H164115   5.382   8.698   7.158
21410TIP3    H264116   5.479   8.733   7.268
21411TIP3   OH264117   6.694   8.113   5.942
21411TIP3    H164118   6.765   8.081   6.001
21411TIP3    H264119   6.618   8.057   5.967
21412TIP3   OH264120   6.750   8.372   6.397
21412TIP3    H164121   6.782   8.280   6.417
21412TIP3    H264122   6.813   8.397   6.327
21413TIP3   OH264123   6.914   8.534   6.884
21413TIP3    H164124   7.000   8.568   6.851
21413TIP3    H264125   6.915   8.576   6.974
21414TIP3   OH264126   6.951   8.679   7.108
21414TIP3    H164127   6.893   8.715   7.177
21414TIP3    H264128   7.016   8.750   7.098
21415TIP3   OH264129   5.601   8.418   7.933
21415TIP3    H164130   5.698   8.409   7.932
21415TIP3    H264131   5.576   8.330   7.969
21416TIP3   OH264132   6.842   8.122   6.452
21416TIP3    H164133   6.888   8.094   6.534
21416TIP3    H264134   6.785   8.044   6.437
21417TIP3   OH264135   5.559   8.109   7.259
21417TIP3    H164136   5.621   8.033   7.268
21417TIP3    H264137   5.623   8.182   7.249
21418TIP3   OH264138   5.361   8.382   7.327
21418TIP3    H164139   5.412   8.374   7.244
21418TIP3    H264140   5.401   8.461   7.367
21419TIP3   OH264141   6.943   8.062   6.067
21419TIP3    H164142   6.977   7.987   6.014
21419TIP3    H264143   7.018   8.125   6.066
21420TIP3   OH264144   5.347   7.883   6.830
21420TIP3    H164145   5.254   7.881   6.858
21420TIP3    H264146   5.344   7.942   6.752
21421TIP3   OH264147   6.519   9.585   6.343
21421TIP3    H164148   6.563   9.576   6.257
21421TIP3    H264149   6.567   9.658   6.383
21422TIP3   OH264150   5.568   7.967   7.645
21422TIP3    H164151   5.516   7.957   7.726
21422TIP3    H264152   5.500   8.003   7.584
21423TIP3   OH264153   5.607   9.399   7.736
21423TIP3    H164154   5.520   9.365   7.710
21423TIP3    H264155   5.609   9.372   7.830
21424TIP3   OH264156   5.786   9.426   7.275
21424TIP3    H164157   5.737   9.500   7.233
21424TIP3    H264158   5.871   9.438   7.228
21425TIP3   OH264159   7.192   8.161   7.385
21425TIP3    H164160   7.119   8.199   7.334
21425TIP3    H264161   7.210   8.076   7.340
21426TIP3   OH264162   5.459   9.684   7.295
21426TIP3    H164163   5.371   9.719   7.269
21426TIP3    H264164   5.459   9.705   7.389
21427TIP3   OH264165   5.691   9.651   7.149
21427TIP3    H164166   5.606   9.669   7.195
21427TIP3    H264167   5.674   9.689   7.061
21428TIP3   OH264168   6.122   9.697   6.955
21428TIP3    H164169   6.058   9.709   6.883
21428TIP3    H264170   6.090   9.764   7.018
21429TIP3   OH264171   6.396   9.651   6.983
21429TIP3    H164172   6.298   9.657   6.980
21429TIP3    H264173   6.420   9.664   6.890
21430TIP3   OH264174   5.378   9.477   7.040
21430TIP3    H164175   5.400   9.447   7.131
21430TIP3    H264176   5.450   9.432   6.991
21431TIP3   OH264177   5.566   9.345   6.891
21431TIP3    H164178   5.582   9.262   6.943
21431TIP3    H264179   5.656   9.384   6.891
21432TIP3   OH264180   5.832   9.437   6.900
21432TIP3    H164181   5.865   9.345   6.890
21432TIP3    H264182   5.877   9.462   6.983
21433TIP3   OH264183   6.418   8.098   6.991
21433TIP3    H164184   6.366   8.031   7.038
21433TIP3    H264185   6.481   8.044   6.940
21434TIP3   OH264186   6.930   7.968   6.900
21434TIP3    H164187   6.960   8.023   6.824
21434TIP3    H264188   6.834   7.985   6.896
21435TIP3   OH264189   7.012   8.076   6.664
21435TIP3    H164190   7.089   8.034   6.621
21435TIP3    H264191   7.031   8.170   6.668
21436TIP3   OH264192   5.657   7.807   7.002
21436TIP3    H164193   5.565   7.772   7.004
21436TIP3    H264194   5.707   7.723   6.998
21437TIP3   OH264195   5.439   7.676   6.650
21437TIP3    H164196   5.473   7.733   6.579
21437TIP3    H264197   5.415   7.741   6.719
21438TIP3   OH264198   6.091   7.843   6.886
21438TIP3    H164199   6.153   7.875   6.818
21438TIP3    H264200   6.128   7.882   6.966
21439TIP3   OH264201   6.654   7.981   6.858
21439TIP3    H164202   6.647   7.938   6.772
21439TIP3    H264203   6.639   7.906   6.919
21440TIP3   OH264204   6.674   7.906   6.422
21440TIP3    H164205   6.587   7.944   6.442
21440TIP3    H264206   6.649   7.811   6.437
21441TIP3   OH264207   5.171   9.243   6.437
21441TIP3    H164208   5.087   9.202   6.409
21441TIP3    H264209   5.149   9.336   6.419
21442TIP3   OH264210   5.563   7.838   6.410
21442TIP3    H164211   5.611   7.772   6.357
21442TIP3    H264212   5.637   7.890   6.448
21443TIP3   OH264213   6.076   8.007   6.510
21443TIP3    H164214   6.133   7.949   6.563
21443TIP3    H264215   6.102   8.095   6.545
21444TIP3   OH264216   6.654   9.553   6.098
21444TIP3    H164217   6.631   9.461   6.079
21444TIP3    H264218   6.603   9.601   6.028
21445TIP3   OH264219   5.864   8.088   7.893
21445TIP3    H164220   5.829   8.018   7.950
21445TIP3    H264221   5.958   8.088   7.920
21446TIP3   OH264222   6.113   8.085   8.013
21446TIP3    H164223   6.198   8.061   7.972
21446TIP3    H264224   6.101   8.012   8.078
21447TIP3   OH264225   5.235   9.273   6.068
21447TIP3    H164226   5.239   9.298   6.161
21447TIP3    H264227   5.322   9.229   6.053
21448TIP3   OH264228   6.945   8.126   7.791
21448TIP3    H164229   6.964   8.092   7.881
21448TIP3    H264230   7.034   8.135   7.751
21449TIP3   OH264231   7.121   8.572   6.313
21449TIP3    H164232   7.079   8.657   6.336
21449TIP3    H264233   7.047   8.530   6.264
21450TIP3   OH264234   7.177   8.863   6.465
21450TIP3    H164235   7.222   8.791   6.514
21450TIP3    H264236   7.253   8.916   6.436
21451TIP3   OH264237   7.692   8.454   6.489
21451TIP3    H164238   7.671   8.523   6.423
21451TIP3    H264239   7.644   8.378   6.452
21452TIP3   OH264240   8.351   8.530   6.092
21452TIP3    H164241   8.384   8.537   6.183
21452TIP3    H264242   8.408   8.595   6.047
21453TIP3   OH264243   7.322   8.667   6.584
21453TIP3    H164244   7.404   8.652   6.636
21453TIP3    H264245   7.338   8.604   6.510
21454TIP3   OH264246   7.746   8.856   6.379
21454TIP3    H164247   7.843   8.846   6.384
21454TIP3    H264248   7.717   8.765   6.356
21455TIP3   OH264249   7.667   8.425   6.883
21455TIP3    H164250   7.606   8.484   6.837
21455TIP3    H264251   7.648   8.448   6.976
21456TIP3   OH264252   7.554   8.588   6.694
21456TIP3    H164253   7.609   8.658   6.733
21456TIP3    H264254   7.617   8.542   6.634
21457TIP3   OH264255   7.032   9.107   6.048
21457TIP3    H164256   7.022   9.144   5.960
21457TIP3    H264257   7.059   9.186   6.099
21458TIP3   OH264258   8.040   8.162   6.616
21458TIP3    H164259   8.040   8.070   6.647
21458TIP3    H264260   7.969   8.200   6.673
21459TIP3   OH264261   7.953   8.892   5.860
21459TIP3    H164262   7.891   8.967   5.854
21459TIP3    H264263   8.028   8.922   5.806
21460TIP3   OH264264   7.928   8.710   5.598
21460TIP3    H164265   7.980   8.751   5.669
21460TIP3    H264266   7.994   8.651   5.557
21461TIP3   OH264267   7.569   9.018   6.262
21461TIP3    H164268   7.517   8.956   6.207
21461TIP3    H264269   7.633   8.956   6.304
21462TIP3   OH264270   8.180   8.876   5.690
21462TIP3    H164271   8.241   8.939   5.730
21462TIP3    H264272   8.196   8.892   5.594
21463TIP3   OH264273   8.675   8.107   5.729
21463TIP3    H164274   8.594   8.123   5.782
21463TIP3    H264275   8.683   8.191   5.681
21464TIP3   OH264276   7.423   8.849   6.083
21464TIP3    H164277   7.355   8.892   6.027
21464TIP3    H264278   7.382   8.763   6.098
21465TIP3   OH264279   7.219   9.637   6.166
21465TIP3    H164280   7.238   9.651   6.260
21465TIP3    H264281   7.149   9.570   6.173
21466TIP3   OH264282   7.994   9.689   5.410
21466TIP3    H164283   8.046   9.620   5.362
21466TIP3    H264284   8.038   9.686   5.496
21467TIP3   OH264285   7.811   8.233   6.760
21467TIP3    H164286   7.724   8.200   6.733
21467TIP3    H264287   7.783   8.315   6.806
21468TIP3   OH264288   8.236   8.919   5.429
21468TIP3    H164289   8.203   8.886   5.343
21468TIP3    H264290   8.325   8.951   5.403
21469TIP3   OH264291   7.950   8.287   5.733
21469TIP3    H164292   7.919   8.281   5.825
21469TIP3    H264293   7.914   8.202   5.699
21470TIP3   OH264294   7.614   8.627   6.297
21470TIP3    H164295   7.520   8.610   6.310
21470TIP3    H264296   7.628   8.592   6.206
21471TIP3   OH264297   8.098   8.712   6.009
21471TIP3    H164298   8.044   8.779   5.962
21471TIP3    H264299   8.152   8.675   5.936
21472TIP3   OH264300   7.607   8.258   5.700
21472TIP3    H164301   7.604   8.250   5.798
21472TIP3    H264302   7.520   8.298   5.682
21473TIP3   OH264303   7.135   8.277   6.091
21473TIP3    H164304   7.176   8.319   6.013
21473TIP3    H264305   7.071   8.345   6.119
21474TIP3   OH264306   7.946   8.461   6.357
21474TIP3    H164307   7.869   8.456   6.417
21474TIP3    H264308   8.020   8.462   6.420
21475TIP3   OH264309   7.368   8.484   6.375
21475TIP3    H164310   7.281   8.515   6.339
21475TIP3    H264311   7.398   8.421   6.308
21476TIP3   OH264312   7.646   8.506   6.055
21476TIP3    H164313   7.742   8.519   6.041
21476TIP3    H264314   7.606   8.533   5.969
21477TIP3   OH264315   7.491   8.548   5.830
21477TIP3    H164316   7.417   8.505   5.784
21477TIP3    H264317   7.544   8.580   5.754
21478TIP3   OH264318   7.553   8.254   6.335
21478TIP3    H164319   7.569   8.159   6.346
21478TIP3    H264320   7.606   8.271   6.256
21479TIP3   OH264321   7.741   9.084   5.834
21479TIP3    H164322   7.676   9.011   5.828
21479TIP3    H264323   7.732   9.112   5.928
21480TIP3   OH264324   8.198   8.391   5.690
21480TIP3    H164325   8.103   8.371   5.705
21480TIP3    H264326   8.209   8.482   5.723
21481TIP3   OH264327   8.265   8.634   5.796
21481TIP3    H164328   8.363   8.630   5.809
21481TIP3    H264329   8.254   8.718   5.748
21482TIP3   OH264330   7.416   9.021   6.490
21482TIP3    H164331   7.470   9.044   6.412
21482TIP3    H264332   7.483   9.000   6.556
21483TIP3   OH264333   7.876   9.223   5.634
21483TIP3    H164334   7.852   9.313   5.666
21483TIP3    H264335   7.843   9.169   5.709
21484TIP3   OH264336   8.718   8.714   5.623
21484TIP3    H164337   8.649   8.666   5.572
21484TIP3    H264338   8.712   8.799   5.572
21485TIP3   OH264339   7.541   9.392   6.157
21485TIP3    H164340   7.578   9.470   6.112
21485TIP3    H264341   7.447   9.397   6.135
21486TIP3   OH264342   7.105   8.701   5.843
21486TIP3    H164343   7.146   8.788   5.863
21486TIP3    H264344   7.023   8.707   5.897
21487TIP3   OH264345   7.704   9.176   6.089
21487TIP3    H164346   7.651   9.256   6.106
21487TIP3    H264347   7.657   9.112   6.147
21488TIP3   OH264348   7.391   9.669   5.953
21488TIP3    H164349   7.325   9.665   6.025
21488TIP3    H264350   7.476   9.660   6.000
21489TIP3   OH264351   8.164   9.274   5.448
21489TIP3    H164352   8.213   9.247   5.527
21489TIP3    H264353   8.074   9.247   5.475
21490TIP3   OH264354   7.464   8.495   7.079
21490TIP3    H164355   7.388   8.511   7.140
21490TIP3    H264356   7.521   8.446   7.141
21491TIP3   OH264357   7.533   9.248   5.442
21491TIP3    H164358   7.564   9.158   5.421
21491TIP3    H264359   7.520   9.241   5.539
21492TIP3   OH264360   7.489   9.258   5.713
21492TIP3    H164361   7.563   9.224   5.767
21492TIP3    H264362   7.494   9.355   5.730
21493TIP3   OH264363   7.219   8.948   5.927
21493TIP3    H164364   7.152   8.983   5.990
21493TIP3    H264365   7.223   9.024   5.865
21494TIP3   OH264366   8.238   8.318   5.968
21494TIP3    H164367   8.227   8.345   5.875
21494TIP3    H264368   8.276   8.400   6.008
21495TIP3   OH264369   7.746   9.470   5.684
21495TIP3    H164370   7.652   9.490   5.701
21495TIP3    H264371   7.769   9.541   5.622
21496TIP3   OH264372   7.923   8.514   6.088
21496TIP3    H164373   7.990   8.583   6.066
21496TIP3    H264374   7.935   8.506   6.185
21497TIP3   OH264375   8.076   8.241   6.186
21497TIP3    H164376   8.075   8.319   6.245
21497TIP3    H264377   8.138   8.272   6.116
21498TIP3   OH264378   7.482   9.532   5.734
21498TIP3    H164379   7.464   9.602   5.667
21498TIP3    H264380   7.445   9.579   5.813
21499TIP3   OH264381   7.593   8.243   5.977
21499TIP3    H164382   7.597   8.336   6.008
21499TIP3    H264383   7.688   8.219   5.984
21500TIP3   OH264384   7.217   9.166   5.749
21500TIP3    H164385   7.277   9.241   5.759
21500TIP3    H264386   7.264   9.116   5.681
21501TIP3   OH264387   7.152   8.433   5.854
21501TIP3    H164388   7.153   8.531   5.856
21501TIP3    H264389   7.058   8.414   5.848
21502TIP3   OH264390   7.538   8.128   6.718
21502TIP3    H164391   7.553   8.053   6.659
21502TIP3    H264392   7.535   8.080   6.804
21503TIP3   OH264393   7.081   9.369   6.116
21503TIP3    H164394   7.021   9.400   6.185
21503TIP3    H264395   7.046   9.415   6.036
21504TIP3   OH264396   7.701   9.451   5.360
21504TIP3    H164397   7.646   9.378   5.398
21504TIP3    H264398   7.776   9.399   5.325
21505TIP3   OH264399   8.131   9.497   5.275
21505TIP3    H164400   8.171   9.426   5.329
21505TIP3    H264401   8.180   9.492   5.190
21506TIP3   OH264402   7.312   9.005   5.540
21506TIP3    H164403   7.340   8.955   5.618
21506TIP3    H264404   7.391   8.988   5.483
21507TIP3   OH264405   7.842   9.163   5.376
21507TIP3    H164406   7.847   9.182   5.472
21507TIP3    H264407   7.852   9.065   5.377
21508TIP3   OH264408   7.557   8.879   5.808
21508TIP3    H164409   7.526   8.835   5.889
21508TIP3    H264410   7.590   8.803   5.756
21509TIP3   OH264411   7.652   8.672   5.645
21509TIP3    H164412   7.629   8.666   5.550
21509TIP3    H264413   7.750   8.675   5.640
21510TIP3   OH264414   8.467   9.002   5.305
21510TIP3    H164415   8.450   8.955   5.221
21510TIP3    H264416   8.440   9.093   5.280
21511TIP3   OH264417   7.463   9.728   5.546
21511TIP3    H164418   7.560   9.726   5.533
21511TIP3    H264419   7.437   9.781   5.469
21512TIP3   OH264420   6.851   9.724   6.177
21512TIP3    H164421   6.783   9.661   6.144
21512TIP3    H264422   6.899   9.668   6.241
21513TIP3   OH264423   6.998   9.580   6.356
21513TIP3    H164424   6.987   9.518   6.430
21513TIP3    H264425   6.986   9.664   6.406
21514TIP3   OH264426   8.671   8.935   5.477
21514TIP3    H164427   8.598   8.956   5.415
21514TIP3    H264428   8.680   9.019   5.524
21515TIP3   OH264429   8.532   8.635   5.441
21515TIP3    H164430   8.497   8.669   5.358
21515TIP3    H264431   8.508   8.540   5.433
21516TIP3   OH264432   7.170   8.998   6.722
21516TIP3    H164433   7.181   8.964   6.631
21516TIP3    H264434   7.257   9.040   6.739
21517TIP3   OH264435   8.477   8.371   5.419
21517TIP3    H164436   8.559   8.343   5.467
21517TIP3    H264437   8.410   8.308   5.450
21518TIP3   OH264438   8.538   8.618   5.838
21518TIP3    H164439   8.574   8.536   5.878
21518TIP3    H264440   8.616   8.652   5.792
21519TIP3   OH264441   8.642   8.386   5.964
21519TIP3    H164442   8.729   8.347   5.983
21519TIP3    H264443   8.587   8.306   5.945
21520TIP3   OH264444   7.367   8.348   6.698
21520TIP3    H164445   7.430   8.295   6.751
21520TIP3    H264446   7.378   8.435   6.742
21521TIP3   OH264447   7.167   8.627   6.822
21521TIP3    H164448   7.212   8.661   6.742
21521TIP3    H264449   7.159   8.708   6.877
21522TIP3   OH264450   8.719   8.312   5.530
21522TIP3    H164451   8.759   8.233   5.489
21522TIP3    H264452   8.796   8.355   5.573
21523TIP3   OH264453   7.350   8.202   7.136
21523TIP3    H164454   7.320   8.226   7.225
21523TIP3    H264455   7.293   8.260   7.081
21524TIP3   OH264456   8.187   8.359   6.469
21524TIP3    H164457   8.136   8.288   6.512
21524TIP3    H264458   8.255   8.308   6.419
21525TIP3   OH264459   7.249   7.935   6.142
21525TIP3    H164460   7.278   7.983   6.063
21525TIP3    H264461   7.181   7.993   6.179
21526TIP3   OH264462   7.889   8.104   6.372
21526TIP3    H164463   7.950   8.147   6.310
21526TIP3    H264464   7.927   8.129   6.458
21527TIP3   OH264465   8.388   8.226   6.340
21527TIP3    H164466   8.433   8.198   6.260
21527TIP3    H264467   8.414   8.154   6.402
21528TIP3   OH264468   8.475   8.167   5.916
21528TIP3    H164469   8.385   8.205   5.926
21528TIP3    H264470   8.461   8.081   5.961
21529TIP3   OH264471   6.956   9.504   5.915
21529TIP3    H164472   6.865   9.484   5.888
21529TIP3    H264473   6.958   9.600   5.900
21530TIP3   OH264474   7.360   8.100   5.890
21530TIP3    H164475   7.405   8.027   5.844
21530TIP3    H264476   7.435   8.146   5.933
21531TIP3   OH264477   7.868   8.264   5.996
21531TIP3    H164478   7.927   8.212   6.053
21531TIP3    H264479   7.891   8.355   6.026
21532TIP3   OH264480   7.727   9.689   5.491
21532TIP3    H164481   7.816   9.716   5.461
21532TIP3    H264482   7.712   9.612   5.432
21533TIP3   OH264483   7.031   9.528   5.557
21533TIP3    H164484   7.027   9.571   5.645
21533TIP3    H264485   7.121   9.490   5.556
21534TIP3   OH264486   9.411   8.545   5.188
21534TIP3    H164487   9.392   8.487   5.262
21534TIP3    H264488   9.324   8.582   5.165
21535TIP3   OH264489   8.958   8.573   5.587
21535TIP3    H164490   8.973   8.598   5.494
21535TIP3    H264491   8.875   8.621   5.604
21536TIP3   OH264492   8.941   8.691   5.345
21536TIP3    H164493   8.945   8.786   5.359
21536TIP3    H264494   8.853   8.677   5.308
21537TIP3   OH264495   8.898   8.361   5.736
21537TIP3    H164496   8.871   8.398   5.823
21537TIP3    H264497   8.939   8.440   5.696
21538TIP3   OH264498   9.038   8.168   5.604
21538TIP3    H164499   9.063   8.227   5.532
21538TIP3    H264500   8.991   8.229   5.664
21539TIP3   OH264501   9.145   8.346   5.376
21539TIP3    H164502   9.194   8.279   5.323
21539TIP3    H264503   9.212   8.377   5.438
21540TIP3   OH264504   1.200   9.084   7.265
21540TIP3    H164505   1.234   9.017   7.203
21540TIP3    H264506   1.240   9.166   7.233
21541TIP3   OH264507   3.267   9.665   7.665
21541TIP3    H164508   3.177   9.702   7.654
21541TIP3    H264509   3.303   9.681   7.575
21542TIP3   OH264510   2.636   9.561   7.277
21542TIP3    H164511   2.702   9.565   7.350
21542TIP3    H264512   2.653   9.645   7.234
21543TIP3   OH264513   2.846   9.592   7.449
21543TIP3    H164514   2.841   9.535   7.526
21543TIP3    H264515   2.930   9.639   7.463
21544TIP3   OH264516   2.194   9.719   6.814
21544TIP3    H164517   2.249   9.790   6.848
21544TIP3    H264518   2.250   9.680   6.745
21545TIP3   OH264519   2.926   9.148   6.911
21545TIP3    H164520   2.845   9.167   6.963
21545TIP3    H264521   2.938   9.233   6.863
21546TIP3   OH264522   2.203   9.328   6.908
21546TIP3    H164523   2.165   9.330   6.998
21546TIP3    H264524   2.163   9.244   6.877
21547TIP3   OH264525   2.379   9.734   7.133
21547TIP3    H164526   2.325   9.807   7.103
21547TIP3    H264527   2.443   9.724   7.060
21548TIP3   OH264528   1.855   9.301   6.872
21548TIP3    H164529   1.859   9.299   6.970
21548TIP3    H264530   1.778   9.358   6.858
21549TIP3   OH264531   1.974   9.507   7.088
21549TIP3    H164532   2.024   9.572   7.138
21549TIP3    H264533   1.883   9.544   7.084
21550TIP3   OH264534   1.718   9.582   7.000
21550TIP3    H164535   1.665   9.548   6.925
21550TIP3    H264536   1.766   9.656   6.958
21551TIP3   OH264537   5.523   1.725  -0.126
21551TIP3    H164538   5.495   1.731  -0.032
21551TIP3    H264539   5.615   1.755  -0.118
21552TIP3   OH264540   2.449   9.439   6.868
21552TIP3    H164541   2.355   9.418   6.887
21552TIP3    H264542   2.457   9.534   6.889
21553TIP3   OH264543   2.548   9.700   6.925
21553TIP3    H164544   2.633   9.680   6.970
21553TIP3    H264545   2.565   9.788   6.889
21554TIP3   OH264546   2.958   9.759   6.824
21554TIP3    H164547   2.895   9.722   6.758
21554TIP3    H264548   2.970   9.848   6.787
21555TIP3   OH264549   2.496   9.367   7.151
21555TIP3    H164550   2.480   9.401   7.061
21555TIP3    H264551   2.540   9.444   7.194
21556TIP3   OH264552   2.198   9.559   7.260
21556TIP3    H164553   2.262   9.613   7.210
21556TIP3    H264554   2.209   9.603   7.347
21557TIP3   OH264555   2.331   9.283   7.366
21557TIP3    H164556   2.364   9.330   7.445
21557TIP3    H264557   2.382   9.328   7.295
21558TIP3   OH264558   1.836   9.246   7.141
21558TIP3    H164559   1.807   9.287   7.224
21558TIP3    H264560   1.934   9.251   7.151
21559TIP3   OH264561   1.909   9.720   6.843
21559TIP3    H164562   1.878   9.655   6.775
21559TIP3    H264563   2.002   9.694   6.857
21560TIP3   OH264564   2.789   9.688   6.617
21560TIP3    H164565   2.770   9.701   6.524
21560TIP3    H264566   2.768   9.592   6.626
21561TIP3   OH264567   2.817   9.937   7.179
21561TIP3    H164568   2.820   9.840   7.171
21561TIP3    H264569   2.830   9.948   7.275
21562TIP3   OH264570   2.737   9.423   6.612
21562TIP3    H164571   2.814   9.387   6.662
21562TIP3    H264572   2.666   9.360   6.633
21563TIP3   OH264573   2.796   9.672   7.050
21563TIP3    H164574   2.826   9.582   7.078
21563TIP3    H264575   2.864   9.693   6.983
21564TIP3   OH264576   2.909   9.421   7.098
21564TIP3    H164577   2.952   9.407   7.184
21564TIP3    H264578   2.843   9.348   7.099
21565TIP3   OH264579   2.985   9.359   6.729
21565TIP3    H164580   3.025   9.284   6.681
21565TIP3    H264581   3.056   9.425   6.728
21566TIP3   OH264582   2.440   9.365   7.608
21566TIP3    H164583   2.436   9.344   7.702
21566TIP3    H264584   2.536   9.367   7.592
21567TIP3   OH264585   2.978   9.288   7.564
21567TIP3    H164586   3.014   9.333   7.484
21567TIP3    H264587   2.882   9.293   7.548
21568TIP3   OH264588   3.071   9.380   7.321
21568TIP3    H164589   3.143   9.326   7.282
21568TIP3    H264590   3.106   9.470   7.302
21569TIP3   OH264591   1.489   8.952   7.285
21569TIP3    H164592   1.519   9.005   7.209
21569TIP3    H264593   1.467   9.023   7.349
21570TIP3   OH264594   2.168   9.110   7.519
21570TIP3    H164595   2.223   9.172   7.468
21570TIP3    H264596   2.141   9.166   7.594
21571TIP3   OH264597   2.703   9.287   7.532
21571TIP3    H164598   2.682   9.255   7.443
21571TIP3    H264599   2.683   9.207   7.587
21572TIP3   OH264600   2.722   9.210   7.092
21572TIP3    H164601   2.635   9.253   7.107
21572TIP3    H264602   2.708   9.124   7.138
21573TIP3   OH264603   1.597   9.119   7.075
21573TIP3    H164604   1.645   9.060   7.012
21573TIP3    H264605   1.673   9.173   7.106
21574TIP3   OH264606   2.123   9.286   7.180
21574TIP3    H164607   2.190   9.272   7.250
21574TIP3    H264608   2.114   9.384   7.185
21575TIP3   OH264609   3.167   9.892   6.975
21575TIP3    H164610   3.128   9.964   7.026
21575TIP3    H264611   3.092   9.833   6.962
21576TIP3   OH264612   5.000   9.915   7.147
21576TIP3    H164613   5.029   9.997   7.191
21576TIP3    H264614   5.019   9.936   7.054
21577TIP3   OH264615   4.401  10.095   7.171
21577TIP3    H164616   4.443  10.010   7.194
21577TIP3    H264617   4.362  10.073   7.085
21578TIP3   OH264618   3.736   9.758   7.149
21578TIP3    H164619   3.719   9.831   7.086
21578TIP3    H264620   3.689   9.685   7.104
21579TIP3   OH264621   4.433   9.845   6.771
21579TIP3    H164622   4.506   9.830   6.836
21579TIP3    H264623   4.484   9.883   6.697
21580TIP3   OH264624   3.377   9.962   7.253
21580TIP3    H164625   3.456   9.930   7.301
21580TIP3    H264626   3.385   9.912   7.169
21581TIP3   OH264627   3.820  10.160   7.040
21581TIP3    H164628   3.908  10.124   7.064
21581TIP3    H264629   3.772  10.081   7.008
21582TIP3   OH264630   5.083  10.116   7.320
21582TIP3    H164631   5.002  10.164   7.291
21582TIP3    H264632   5.104  10.162   7.403
21583TIP3   OH264633   3.733   9.739   7.586
21583TIP3    H164634   3.666   9.776   7.525
21583TIP3    H264635   3.684   9.733   7.669
21584TIP3   OH264636   4.642   9.853   6.943
21584TIP3    H164637   4.629   9.808   7.028
21584TIP3    H264638   4.690   9.934   6.970
21585TIP3   OH264639   3.607   9.857   7.369
21585TIP3    H164640   3.670   9.929   7.390
21585TIP3    H264641   3.655   9.813   7.294
21586TIP3   OH264642   4.794   9.817   7.313
21586TIP3    H164643   4.706   9.846   7.283
21586TIP3    H264644   4.853   9.849   7.243
21587TIP3   OH264645   4.090   9.459   7.297
21587TIP3    H164646   4.076   9.364   7.316
21587TIP3    H264647   4.013   9.498   7.343
21588TIP3   OH264648   3.982   9.974   6.295
21588TIP3    H164649   4.029  10.042   6.343
21588TIP3    H264650   4.049   9.941   6.232
21589TIP3   OH264651   4.627  10.325   7.416
21589TIP3    H164652   4.638  10.421   7.404
21589TIP3    H264653   4.529  10.320   7.407
21590TIP3   OH264654   4.724   9.405   6.398
21590TIP3    H164655   4.642   9.423   6.449
21590TIP3    H264656   4.735   9.488   6.349
21591TIP3   OH264657   4.850  10.306   7.600
21591TIP3    H164658   4.764  10.298   7.557
21591TIP3    H264659   4.873  10.212   7.614
21592TIP3   OH264660   3.852   9.537   7.424
21592TIP3    H164661   3.762   9.506   7.400
21592TIP3    H264662   3.829   9.620   7.469
21593TIP3   OH264663   4.385   9.652   7.622
21593TIP3    H164664   4.453   9.622   7.686
21593TIP3    H264665   4.301   9.630   7.668
21594TIP3   OH264666   4.628  10.069   7.542
21594TIP3    H164667   4.576  10.071   7.625
21594TIP3    H264668   4.605  10.153   7.500
21595TIP3   OH264669   3.999   9.584   6.397
21595TIP3    H164670   3.966   9.583   6.489
21595TIP3    H264671   3.960   9.501   6.364
21596TIP3   OH264672   3.780  10.066   7.439
21596TIP3    H164673   3.748  10.099   7.524
21596TIP3    H264674   3.779  10.145   7.383
21597TIP3   OH264675   3.668   9.937   6.958
21597TIP3    H164676   3.575   9.910   6.974
21597TIP3    H264677   3.682   9.899   6.869
21598TIP3   OH264678   4.167  10.025   6.688
21598TIP3    H164679   4.087  10.076   6.664
21598TIP3    H264680   4.209  10.009   6.601
21599TIP3   OH264681   4.303  10.038   6.925
21599TIP3    H164682   4.244  10.054   6.849
21599TIP3    H264683   4.350   9.960   6.888
21600TIP3   OH264684   3.653   9.560   6.366
21600TIP3    H164685   3.647   9.556   6.463
21600TIP3    H264686   3.572   9.610   6.344
21601TIP3   OH264687   3.191   9.604   7.228
21601TIP3    H164688   3.266   9.634   7.283
21601TIP3    H264689   3.234   9.565   7.150
21602TIP3   OH264690   3.168   9.579   6.753
21602TIP3    H164691   3.214   9.618   6.675
21602TIP3    H264692   3.109   9.653   6.776
21603TIP3   OH264693   4.357  10.278   7.361
21603TIP3    H164694   4.372  10.212   7.290
21603TIP3    H264695   4.295  10.229   7.418
21604TIP3   OH264696   3.994   9.751   7.018
21604TIP3    H164697   3.912   9.757   7.071
21604TIP3    H264698   4.061   9.771   7.085
21605TIP3   OH264699   3.428   9.818   7.022
21605TIP3    H164700   3.334   9.821   6.994
21605TIP3    H264701   3.454   9.726   7.003
21606TIP3   OH264702   3.699   9.812   6.716
21606TIP3    H164703   3.791   9.833   6.693
21606TIP3    H264704   3.649   9.835   6.635
21607TIP3   OH264705   4.484   9.835   7.220
21607TIP3    H164706   4.453   9.847   7.312
21607TIP3    H264707   4.417   9.773   7.185
21608TIP3   OH264708   3.534   9.831   6.494
21608TIP3    H164709   3.470   9.797   6.429
21608TIP3    H264710   3.581   9.899   6.440
21609TIP3   OH264711   4.068  10.058   7.104
21609TIP3    H164712   4.155  10.048   7.064
21609TIP3    H264713   4.086  10.052   7.199
21610TIP3   OH264714   3.596   9.577   6.997
21610TIP3    H164715   3.564   9.497   7.045
21610TIP3    H264716   3.648   9.538   6.926
21611TIP3   OH264717   4.045   9.966   7.399
21611TIP3    H164718   3.962  10.015   7.408
21611TIP3    H264719   4.109  10.023   7.447
21612TIP3   OH264720   4.245   9.700   6.362
21612TIP3    H164721   4.150   9.676   6.375
21612TIP3    H264722   4.249   9.795   6.386
21613TIP3   OH264723   4.317   9.960   6.451
21613TIP3    H164724   4.407   9.942   6.483
21613TIP3    H264725   4.329  10.046   6.409
21614TIP3   OH264726   4.754  10.017   6.311
21614TIP3    H164727   4.691   9.980   6.245
21614TIP3    H264728   4.764  10.106   6.275
21615TIP3   OH264729   4.416   9.887   7.483
21615TIP3    H164730   4.500   9.920   7.518
21615TIP3    H264731   4.402   9.805   7.535
21616TIP3   OH264732   4.294   9.638   6.645
21616TIP3    H164733   4.280   9.664   6.552
21616TIP3    H264734   4.334   9.719   6.684
21617TIP3   OH264735   3.986   9.819   6.749
21617TIP3    H164736   4.055   9.888   6.737
21617TIP3    H264737   3.986   9.809   6.847
21618TIP3   OH264738   4.236  10.105   7.536
21618TIP3    H164739   4.267  10.165   7.607
21618TIP3    H264740   4.301  10.032   7.540
21619TIP3   OH264741   4.124   9.544   6.850
21619TIP3    H164742   4.113   9.621   6.910
21619TIP3    H264743   4.186   9.581   6.783
21620TIP3   OH264744   3.638   9.544   6.640
21620TIP3    H164745   3.634   9.636   6.674
21620TIP3    H264746   3.734   9.527   6.650
21621TIP3   OH264747   4.894  10.031   7.543
21621TIP3    H164748   4.796  10.028   7.547
21621TIP3    H264749   4.907  10.002   7.451
21622TIP3   OH264750   4.532  10.214   6.902
21622TIP3    H164751   4.462  10.159   6.940
21622TIP3    H264752   4.608  10.194   6.961
21623TIP3   OH264753   3.192   9.740   6.532
21623TIP3    H164754   3.209   9.834   6.518
21623TIP3    H264755   3.111   9.723   6.481
21624TIP3   OH264756   3.587   9.457   7.401
21624TIP3    H164757   3.557   9.421   7.315
21624TIP3    H264758   3.577   9.379   7.460
21625TIP3   OH264759   3.705   9.970   6.330
21625TIP3    H164760   3.676   9.911   6.257
21625TIP3    H264761   3.802   9.953   6.334
21626TIP3   OH264762   4.005   9.971   7.841
21626TIP3    H164763   3.995   9.906   7.769
21626TIP3    H264764   3.981  10.054   7.797
21627TIP3   OH264765   3.994   9.803   7.620
21627TIP3    H164766   4.019   9.848   7.536
21627TIP3    H264767   3.898   9.787   7.606
21628TIP3   OH264768   4.127   9.578   7.703
21628TIP3    H164769   4.078   9.658   7.675
21628TIP3    H264770   4.059   9.509   7.690
21629TIP3   OH264771   4.495  10.032   7.775
21629TIP3    H164772   4.422  10.003   7.831
21629TIP3    H264773   4.572  10.012   7.831
21630TIP3   OH264774   4.724   9.979   7.935
21630TIP3    H164775   4.732   9.882   7.940
21630TIP3    H264776   4.716  10.004   8.028
21631TIP3   OH264777   4.224   9.589   7.957
21631TIP3    H164778   4.282   9.510   7.954
21631TIP3    H264779   4.181   9.584   7.869
21632TIP3   OH264780   4.396   9.803   8.010
21632TIP3    H164781   4.359   9.718   7.978
21632TIP3    H264782   4.315   9.841   8.048
21633TIP3   OH264783   4.585   9.944   6.106
21633TIP3    H164784   4.568   9.960   6.013
21633TIP3    H264785   4.564   9.848   6.111
21634TIP3   OH264786   4.627  10.193   6.651
21634TIP3    H164787   4.629  10.097   6.662
21634TIP3    H264788   4.602  10.220   6.742
21635TIP3   OH264789   5.043  10.476   7.518
21635TIP3    H164790   4.971  10.422   7.559
21635TIP3    H264791   5.120  10.422   7.539
21636TIP3   OH264792   4.533   9.678   6.100
21636TIP3    H164793   4.610   9.643   6.149
21636TIP3    H264794   4.462   9.615   6.120
21637TIP3   OH264795   4.583   9.917   6.546
21637TIP3    H164796   4.627   9.830   6.560
21637TIP3    H264797   4.644   9.956   6.481
21638TIP3   OH264798   4.753  10.097   7.036
21638TIP3    H164799   4.837  10.126   6.993
21638TIP3    H264800   4.769  10.136   7.124
21639TIP3   OH264801   4.839  10.232   7.264
21639TIP3    H164802   4.760  10.261   7.315
21639TIP3    H264803   4.883  10.318   7.245
21640TIP3   OH264804   5.270   9.812   7.829
21640TIP3    H164805   5.333   9.764   7.771
21640TIP3    H264806   5.248   9.891   7.777
21641TIP3   OH264807   4.703   9.676   6.587
21641TIP3    H164808   4.751   9.661   6.672
21641TIP3    H264809   4.642   9.599   6.587
21642TIP3   OH264810   3.401   9.663   7.402
21642TIP3    H164811   3.465   9.589   7.408
21642TIP3    H264812   3.461   9.739   7.397
21643TIP3   OH264813   3.270   9.946   7.511
21643TIP3    H164814   3.283   9.932   7.416
21643TIP3    H264815   3.238  10.036   7.513
21644TIP3   OH264816   5.129   9.975   7.655
21644TIP3    H164817   5.037  10.007   7.636
21644TIP3    H264818   5.127   9.897   7.596
21645TIP3   OH264819   4.781   9.614   6.218
21645TIP3    H164820   4.821   9.541   6.167
21645TIP3    H264821   4.851   9.682   6.215
21646TIP3   OH264822   3.187   9.441   6.983
21646TIP3    H164823   3.094   9.436   7.010
21646TIP3    H264824   3.184   9.498   6.904
21647TIP3   OH264825   3.419   9.487   7.799
21647TIP3    H164826   3.361   9.459   7.871
21647TIP3    H264827   3.364   9.552   7.749
21648TIP3   OH264828   5.047   9.737   7.518
21648TIP3    H164829   4.956   9.732   7.483
21648TIP3    H264830   5.077   9.644   7.505
21649TIP3   OH264831   4.256   9.656   7.139
21649TIP3    H164832   4.207   9.588   7.188
21649TIP3    H264833   4.324   9.604   7.093
21650TIP3   OH264834   4.773   9.535   7.039
21650TIP3    H164835   4.808   9.588   6.965
21650TIP3    H264836   4.677   9.553   7.034
21651TIP3   OH264837   4.869   9.635   6.803
21651TIP3    H164838   4.943   9.584   6.764
21651TIP3    H264839   4.901   9.727   6.790
21652TIP3   OH264840   3.498   9.363   7.152
21652TIP3    H164841   3.406   9.329   7.155
21652TIP3    H264842   3.548   9.278   7.150
21653TIP3   OH264843   3.281   9.235   6.800
21653TIP3    H164844   3.314   9.292   6.729
21653TIP3    H264845   3.257   9.300   6.869
21654TIP3   OH264846   3.942   9.396   7.033
21654TIP3    H164847   4.000   9.447   6.974
21654TIP3    H264848   3.965   9.434   7.119
21655TIP3   OH264849   4.491   9.542   7.015
21655TIP3    H164850   4.487   9.502   6.928
21655TIP3    H264851   4.477   9.463   7.073
21656TIP3   OH264852   4.519   9.466   6.579
21656TIP3    H164853   4.432   9.508   6.594
21656TIP3    H264854   4.505   9.380   6.625
21657TIP3   OH264855   3.403   9.396   6.561
21657TIP3    H164856   3.451   9.331   6.507
21657TIP3    H264857   3.477   9.448   6.599
21658TIP3   OH264858   3.915   9.571   6.661
21658TIP3    H164859   3.973   9.523   6.722
21658TIP3    H264860   3.936   9.663   6.688
21659TIP3   OH264861   3.683   9.554   8.011
21659TIP3    H164862   3.663   9.496   8.087
21659TIP3    H264863   3.777   9.573   8.026
21660TIP3   OH264864   3.955   9.576   8.105
21660TIP3    H164865   4.041   9.546   8.070
21660TIP3    H264866   3.968   9.553   8.199
21661TIP3   OH264867   4.781   9.708   7.946
21661TIP3    H164868   4.802   9.675   8.036
21661TIP3    H264869   4.869   9.703   7.903
21662TIP3   OH264870   4.963  10.148   6.464
21662TIP3    H164871   4.922  10.221   6.514
21662TIP3    H264872   4.887  10.090   6.446
21663TIP3   OH264873   6.142  10.360   6.668
21663TIP3    H164874   6.199  10.286   6.690
21663TIP3    H264875   6.142  10.356   6.570
21664TIP3   OH264876   5.536  10.015   6.635
21664TIP3    H164877   5.516  10.089   6.573
21664TIP3    H264878   5.486   9.943   6.591
21665TIP3   OH264879   6.231  10.104   6.258
21665TIP3    H164880   6.302  10.091   6.324
21665TIP3    H264881   6.282  10.137   6.182
21666TIP3   OH264882   5.158  10.198   6.752
21666TIP3    H164883   5.246  10.192   6.792
21666TIP3    H264884   5.175  10.163   6.663
21667TIP3   OH264885   5.623  10.417   6.516
21667TIP3    H164886   5.705  10.375   6.547
21667TIP3    H264887   5.568  10.341   6.490
21668TIP3   OH264888   5.528  10.000   7.074
21668TIP3    H164889   5.470  10.035   7.004
21668TIP3    H264890   5.474  10.020   7.154
21669TIP3   OH264891   6.447  10.113   6.430
21669TIP3    H164892   6.422  10.039   6.487
21669TIP3    H264893   6.526  10.146   6.474
21670TIP3   OH264894   5.404  10.111   6.855
21670TIP3    H164895   5.462  10.188   6.874
21670TIP3    H264896   5.453  10.071   6.780
21671TIP3   OH264897   5.886   9.717   6.783
21671TIP3    H164898   5.870   9.622   6.801
21671TIP3    H264899   5.810   9.756   6.831
21672TIP3   OH264900   5.782  10.226   5.789
21672TIP3    H164901   5.825  10.304   5.826
21672TIP3    H264902   5.845  10.199   5.720
21673TIP3   OH264903   6.522   9.662   5.888
21673TIP3    H164904   6.435   9.676   5.932
21673TIP3    H264905   6.530   9.746   5.838
21674TIP3   OH264906   5.648   9.793   6.915
21674TIP3    H164907   5.558   9.766   6.889
21674TIP3    H264908   5.627   9.876   6.961
21675TIP3   OH264909   5.797   9.841   5.883
21675TIP3    H164910   5.763   9.840   5.975
21675TIP3    H264911   5.757   9.758   5.850
21676TIP3   OH264912   5.576  10.319   6.922
21676TIP3    H164913   5.529  10.329   7.008
21676TIP3    H264914   5.569  10.409   6.887
21677TIP3   OH264915   5.465  10.195   6.445
21677TIP3    H164916   5.371  10.169   6.461
21677TIP3    H264917   5.477  10.158   6.355
21678TIP3   OH264918   5.962  10.280   6.171
21678TIP3    H164919   5.881  10.332   6.150
21678TIP3    H264920   6.001  10.265   6.083
21679TIP3   OH264921   6.102  10.311   6.401
21679TIP3    H164922   6.043  10.316   6.322
21679TIP3    H264923   6.151  10.231   6.373
21680TIP3   OH264924   5.431  10.331   7.155
21680TIP3    H164925   5.415  10.394   7.226
21680TIP3    H264926   5.396  10.248   7.194
21681TIP3   OH264927   5.448   9.815   5.853
21681TIP3    H164928   5.442   9.813   5.950
21681TIP3    H264929   5.371   9.869   5.831
21682TIP3   OH264930   4.990   9.860   6.718
21682TIP3    H164931   5.063   9.895   6.775
21682TIP3    H264932   5.037   9.828   6.640
21683TIP3   OH264933   4.964   9.836   6.241
21683TIP3    H164934   5.008   9.875   6.163
21683TIP3    H264935   4.904   9.909   6.264
21684TIP3   OH264936   5.790  10.016   6.506
21684TIP3    H164937   5.705  10.013   6.555
21684TIP3    H264938   5.850  10.044   6.577
21685TIP3   OH264939   5.225  10.078   6.509
21685TIP3    H164940   5.130  10.083   6.483
21685TIP3    H264941   5.249   9.986   6.488
21686TIP3   OH264942   5.496  10.068   6.203
21686TIP3    H164943   5.588  10.086   6.176
21686TIP3    H264944   5.444  10.091   6.123
21687TIP3   OH264945   6.261  10.091   6.707
21687TIP3    H164946   6.230  10.073   6.797
21687TIP3    H264947   6.203  10.028   6.659
21688TIP3   OH264948   5.330  10.086   5.982
21688TIP3    H164949   5.266  10.053   5.915
21688TIP3    H264950   5.379  10.152   5.930
21689TIP3   OH264951   5.865  10.312   6.593
21689TIP3    H164952   5.949  10.312   6.543
21689TIP3    H264953   5.898  10.332   6.682
21690TIP3   OH264954   5.394   9.836   6.483
21690TIP3    H164955   5.364   9.754   6.526
21690TIP3    H264956   5.447   9.803   6.409
21691TIP3   OH264957   5.845  10.243   6.920
21691TIP3    H164958   5.750  10.261   6.901
21691TIP3    H264959   5.883  10.331   6.914
21692TIP3   OH264960   6.040   9.958   5.847
21692TIP3    H164961   5.946   9.932   5.860
21692TIP3    H264962   6.041  10.053   5.872
21693TIP3   OH264963   6.115  10.216   5.937
21693TIP3    H164964   6.207  10.203   5.968
21693TIP3    H264965   6.120  10.303   5.894
21694TIP3   OH264966   6.537  10.263   5.801
21694TIP3    H164967   6.476  10.233   5.729
21694TIP3    H264968   6.558  10.352   5.770
21695TIP3   OH264969   5.370  10.083   7.292
21695TIP3    H164970   5.272  10.082   7.299
21695TIP3    H264971   5.395  10.020   7.361
21696TIP3   OH264972   6.090   9.895   6.130
21696TIP3    H164973   6.071   9.921   6.039
21696TIP3    H264974   6.124   9.978   6.170
21697TIP3   OH264975   5.787  10.070   6.237
21697TIP3    H164976   5.851  10.143   6.222
21697TIP3    H264977   5.780  10.068   6.335
21698TIP3   OH264978   5.935   9.817   6.364
21698TIP3    H164979   5.899   9.902   6.395
21698TIP3    H264980   5.985   9.841   6.284
21699TIP3   OH264981   5.434   9.801   6.129
21699TIP3    H164982   5.431   9.893   6.160
21699TIP3    H264983   5.531   9.784   6.137
21700TIP3   OH264984   4.987   9.997   6.019
21700TIP3    H164985   5.007  10.090   6.005
21700TIP3    H264986   4.908   9.982   5.966
21701TIP3   OH264987   5.384   9.714   6.888
21701TIP3    H164988   5.351   9.679   6.803
21701TIP3    H264989   5.374   9.637   6.947
21702TIP3   OH264990   5.504  10.226   5.825
21702TIP3    H164991   5.474  10.175   5.747
21702TIP3    H264992   5.601  10.212   5.824
21703TIP3   OH264993   5.795  10.048   7.111
21703TIP3    H164994   5.815  10.116   7.043
21703TIP3    H264995   5.698  10.043   7.104
21704TIP3   OH264996   5.929   9.813   7.131
21704TIP3    H164997   5.877   9.897   7.122
21704TIP3    H264998   5.857   9.750   7.150
21705TIP3   OH264999   6.380  10.198   5.586
21705TIP3    H165000   6.357  10.218   5.495
21705TIP3    H265001   6.357  10.102   5.590
21706TIP3   OH265002   6.382  10.457   6.141
21706TIP3    H165003   6.389  10.361   6.127
21706TIP3    H265004   6.384  10.465   6.237
21707TIP3   OH265005   6.329   9.932   5.581
21707TIP3    H165006   6.403   9.898   5.635
21707TIP3    H265007   6.254   9.873   5.605
21708TIP3   OH265008   6.389  10.184   6.039
21708TIP3    H165009   6.428  10.094   6.052
21708TIP3    H265010   6.443  10.212   5.962
21709TIP3   OH265011   5.233  10.207   7.548
21709TIP3    H165012   5.322  10.195   7.581
21709TIP3    H265013   5.186  10.138   7.598
21710TIP3   OH265014   6.491   9.931   6.073
21710TIP3    H165015   6.538   9.913   6.157
21710TIP3    H265016   6.426   9.857   6.073
21711TIP3   OH265017   5.196   9.919   6.895
21711TIP3    H165018   5.263   9.848   6.905
21711TIP3    H265019   5.253   9.997   6.886
21712TIP3   OH265020   4.999  10.201   6.974
21712TIP3    H165021   5.049  10.194   6.889
21712TIP3    H265022   5.015  10.294   6.996
21713TIP3   OH265023   6.576   9.869   5.703
21713TIP3    H165024   6.620   9.798   5.653
21713TIP3    H265025   6.642   9.941   5.701
21714TIP3   OH265026   4.986   9.694   6.469
21714TIP3    H165027   4.893   9.693   6.497
21714TIP3    H265028   4.982   9.753   6.391
21715TIP3   OH265029   5.204   9.781   7.283
21715TIP3    H165030   5.151   9.774   7.364
21715TIP3    H265031   5.138   9.818   7.221
21716TIP3   OH265032   6.060   9.911   6.641
21716TIP3    H165033   5.999   9.848   6.684
21716TIP3    H265034   6.087   9.860   6.563
21717TIP3   OH265035   6.562   9.810   6.545
21717TIP3    H165036   6.598   9.847   6.461
21717TIP3    H265037   6.466   9.807   6.526
21718TIP3   OH265038   6.654   9.880   6.297
21718TIP3    H165039   6.731   9.828   6.266
21718TIP3    H265040   6.682   9.969   6.264
21719TIP3   OH265041   5.298   9.610   6.640
21719TIP3    H165042   5.203   9.588   6.646
21719TIP3    H265043   5.334   9.524   6.618
21720TIP3   OH265044   5.084   9.490   6.288
21720TIP3    H165045   5.112   9.548   6.215
21720TIP3    H265046   5.053   9.555   6.354
21721TIP3   OH265047   5.733   9.652   6.523
21721TIP3    H165048   5.796   9.681   6.454
21721TIP3    H265049   5.770   9.696   6.601
21722TIP3   OH265050   6.294   9.795   6.488
21722TIP3    H165051   6.255   9.758   6.408
21722TIP3    H265052   6.273   9.724   6.554
21723TIP3   OH265053   6.313   9.720   6.070
21723TIP3    H165054   6.225   9.762   6.081
21723TIP3    H265055   6.295   9.633   6.111
21724TIP3   OH265056   5.199   9.651   6.050
21724TIP3    H165057   5.248   9.588   5.993
21724TIP3    H265058   5.273   9.705   6.086
21725TIP3   OH265059   5.714   9.819   6.148
21725TIP3    H165060   5.773   9.761   6.198
21725TIP3    H265061   5.741   9.907   6.182
21726TIP3   OH265062   5.499   9.902   7.544
21726TIP3    H165063   5.482   9.822   7.597
21726TIP3    H265064   5.594   9.895   7.528
21727TIP3   OH265065   6.764  10.403   5.908
21727TIP3    H165066   6.744  10.475   5.970
21727TIP3    H265067   6.697  10.338   5.928
21728TIP3   OH265068   7.615  10.078   5.355
21728TIP3    H165069   7.576  10.117   5.433
21728TIP3    H265070   7.555  10.003   5.337
21729TIP3   OH265071   7.246  10.073   5.334
21729TIP3    H165072   7.234  10.070   5.431
21729TIP3    H265073   7.171  10.131   5.310
21730TIP3   OH265074   6.755  10.084   6.155
21730TIP3    H165075   6.833  10.133   6.187
21730TIP3    H265076   6.793  10.040   6.077
21731TIP3   OH265077   6.760  10.097   5.722
21731TIP3    H165078   6.804  10.140   5.646
21731TIP3    H265079   6.704  10.170   5.754
21732TIP3   OH265080   7.137  10.311   5.488
21732TIP3    H165081   7.064  10.298   5.424
21732TIP3    H265082   7.190  10.379   5.440
21733TIP3   OH265083   7.217  10.041   5.609
21733TIP3    H165084   7.184  10.122   5.652
21733TIP3    H265085   7.296  10.022   5.661
21734TIP3   OH265086   6.789  10.254   5.495
21734TIP3    H165087   6.799  10.351   5.497
21734TIP3    H265088   6.699  10.242   5.461
21735TIP3   OH265089   7.304  10.455   5.327
21735TIP3    H165090   7.259  10.433   5.243
21735TIP3    H265091   7.383  10.499   5.295
21736TIP3   OH265092   6.770   9.925   5.929
21736TIP3    H165093   6.679   9.936   5.963
21736TIP3    H265094   6.775   9.995   5.860
21737TIP3   OH265095   7.072   9.856   6.059
21737TIP3    H165096   6.981   9.829   6.081
21737TIP3    H265097   7.123   9.778   6.088
21738TIP3   OH265098   6.880   9.733   5.764
21738TIP3    H165099   6.909   9.796   5.696
21738TIP3    H265100   6.848   9.795   5.833
21739TIP3   OH265101   6.989   9.898   5.534
21739TIP3    H165102   7.037   9.841   5.471
21739TIP3    H265103   7.061   9.955   5.567
21740TIP3   OH265104   6.778   2.150   9.530
21740TIP3    H165105   6.793   2.245   9.508
21740TIP3    H265106   6.869   2.114   9.515
21741TIP3   OH265107   6.258   2.366   9.631
21741TIP3    H165108   6.328   2.299   9.617
21741TIP3    H265109   6.261   2.376   9.727
21742TIP3   OH265110   6.549   1.611   9.672
21742TIP3    H165111   6.514   1.564   9.595
21742TIP3    H265112   6.641   1.628   9.642
21743TIP3   OH265113   6.761   2.207   9.794
21743TIP3    H165114   6.696   2.144   9.827
21743TIP3    H265115   6.764   2.184   9.699
21744TIP3   OH265116   6.815   2.421   9.515
21744TIP3    H165117   6.863   2.496   9.475
21744TIP3    H265118   6.732   2.467   9.538
21745TIP3   OH265119   5.984   2.104   9.594
21745TIP3    H165120   5.938   2.052   9.662
21745TIP3    H265121   6.070   2.057   9.592
21746TIP3   OH265122   6.434   2.163   9.505
21746TIP3    H165123   6.481   2.185   9.589
21746TIP3    H265124   6.503   2.171   9.437
21747TIP3   OH265125   6.788   1.682   9.555
21747TIP3    H165126   6.770   1.629   9.476
21747TIP3    H265127   6.754   1.770   9.527
21748TIP3   OH265128   6.815   2.503   9.797
21748TIP3    H165129   6.825   2.410   9.771
21748TIP3    H265130   6.748   2.535   9.735
21749TIP3   OH265131   7.596   2.168   9.201
21749TIP3    H165132   7.650   2.093   9.170
21749TIP3    H265133   7.642   2.193   9.283
21750TIP3   OH265134   7.517   2.453   9.448
21750TIP3    H165135   7.524   2.527   9.384
21750TIP3    H265136   7.591   2.472   9.507
21751TIP3   OH265137   7.299   2.108   9.446
21751TIP3    H165138   7.327   2.178   9.507
21751TIP3    H265139   7.366   2.112   9.377
21752TIP3   OH265140   7.784   2.385   9.077
21752TIP3    H165141   7.740   2.363   9.163
21752TIP3    H265142   7.866   2.333   9.088
21753TIP3   OH265143   7.573   2.667   9.289
21753TIP3    H165144   7.669   2.659   9.272
21753TIP3    H265145   7.546   2.718   9.210
21754TIP3   OH265146   7.029   2.053   9.487
21754TIP3    H165147   7.124   2.073   9.493
21754TIP3    H265148   7.032   1.961   9.454
21755TIP3   OH265149   7.005   2.657   9.914
21755TIP3    H165150   6.930   2.610   9.871
21755TIP3    H265151   7.016   2.603   9.995
21756TIP3   OH265152   7.064   2.418   9.651
21756TIP3    H165153   6.981   2.397   9.608
21756TIP3    H265154   7.050   2.510   9.676
21757TIP3   OH265155   7.834   2.615   9.210
21757TIP3    H165156   7.873   2.669   9.140
21757TIP3    H265157   7.814   2.532   9.162
21758TIP3   OH265158   7.132   2.461   9.302
21758TIP3    H165159   7.133   2.475   9.398
21758TIP3    H265160   7.221   2.420   9.286
21759TIP3   OH265161   4.617   3.708   9.625
21759TIP3    H165162   4.603   3.803   9.609
21759TIP3    H265163   4.711   3.695   9.600
21760TIP3   OH265164   4.596   3.993   9.657
21760TIP3    H165165   4.682   4.025   9.624
21760TIP3    H265166   4.537   4.061   9.620
21761TIP3   OH265167   7.835   5.422   0.542
21761TIP3    H165168   7.840   5.508   0.493
21761TIP3    H265169   7.820   5.364   0.463
21762TIP3   OH265170   6.308   3.839  10.018
21762TIP3    H165171   6.317   3.792  10.102
21762TIP3    H265172   6.336   3.929  10.043
21763TIP3   OH265173   5.967   4.307  10.037
21763TIP3    H165174   6.021   4.246   9.981
21763TIP3    H265175   6.016   4.307  10.120
21764TIP3   OH265176   5.950   3.762   9.832
21764TIP3    H165177   5.942   3.757   9.736
21764TIP3    H265178   5.925   3.857   9.846
21765TIP3   OH265179   6.106   4.149   9.864
21765TIP3    H165180   6.147   4.066   9.833
21765TIP3    H265181   6.164   4.214   9.817
21766TIP3   OH265182   6.228   3.926   9.761
21766TIP3    H165183   6.233   3.852   9.697
21766TIP3    H265184   6.267   3.886   9.840
21767TIP3   OH265185   5.906   3.401   9.745
21767TIP3    H165186   5.821   3.437   9.714
21767TIP3    H265187   5.959   3.400   9.663
21768TIP3   OH265188   5.878   3.191   9.500
21768TIP3    H165189   5.951   3.240   9.541
21768TIP3    H265190   5.929   3.126   9.447
21769TIP3   OH265191   6.262   3.488   9.756
21769TIP3    H165192   6.231   3.506   9.847
21769TIP3    H265193   6.353   3.460   9.779
21770TIP3   OH265194   6.107   3.350   9.571
21770TIP3    H165195   6.166   3.408   9.624
21770TIP3    H265196   6.135   3.375   9.479
21771TIP3   OH265197   5.859   4.016   9.856
21771TIP3    H165198   5.930   4.082   9.867
21771TIP3    H265199   5.786   4.069   9.821
21772TIP3   OH265200   6.619   2.589   9.622
21772TIP3    H165201   6.532   2.604   9.665
21772TIP3    H265202   6.630   2.672   9.570
21773TIP3   OH265203   6.419   3.959   9.178
21773TIP3    H165204   6.427   4.056   9.161
21773TIP3    H265205   6.511   3.929   9.164
21774TIP3   OH265206   5.731   4.276   9.657
21774TIP3    H165207   5.682   4.258   9.575
21774TIP3    H265208   5.693   4.361   9.686
21775TIP3   OH265209   5.929   4.177   9.296
21775TIP3    H165210   5.989   4.108   9.260
21775TIP3    H265211   5.964   4.188   9.387
21776TIP3   OH265212   5.980   4.224   9.564
21776TIP3    H165213   5.892   4.236   9.607
21776TIP3    H265214   6.033   4.190   9.637
21777TIP3   OH265215   6.184   3.403   9.320
21777TIP3    H165216   6.146   3.375   9.234
21777TIP3    H265217   6.268   3.443   9.291
21778TIP3   OH265218   5.882   2.802   9.610
21778TIP3    H165219   5.900   2.800   9.705
21778TIP3    H265220   5.889   2.706   9.592
21779TIP3   OH265221   6.071   3.214   9.878
21779TIP3    H165222   6.025   3.274   9.816
21779TIP3    H265223   6.127   3.163   9.816
21780TIP3   OH265224   5.532   2.745   9.605
21780TIP3    H165225   5.551   2.803   9.681
21780TIP3    H265226   5.461   2.796   9.561
21781TIP3   OH265227   5.431   3.013   9.693
21781TIP3    H165228   5.365   2.980   9.630
21781TIP3    H265229   5.478   3.078   9.637
21782TIP3   OH265230   5.668   3.561   9.725
21782TIP3    H165231   5.600   3.496   9.695
21782TIP3    H265232   5.666   3.542   9.820
21783TIP3   OH265233   6.142   2.881   9.573
21783TIP3    H165234   6.045   2.881   9.579
21783TIP3    H265235   6.167   2.969   9.609
21784TIP3   OH265236   6.232   3.119   9.676
21784TIP3    H165237   6.326   3.124   9.705
21784TIP3    H265238   6.222   3.199   9.622
21785TIP3   OH265239   5.836   3.712   9.561
21785TIP3    H165240   5.791   3.800   9.561
21785TIP3    H265241   5.775   3.660   9.617
21786TIP3   OH265242   6.655   3.212   9.530
21786TIP3    H165243   6.593   3.169   9.466
21786TIP3    H265244   6.655   3.301   9.490
21787TIP3   OH265245   6.358   4.031   9.441
21787TIP3    H165246   6.332   3.956   9.495
21787TIP3    H265247   6.371   3.991   9.353
21788TIP3   OH265248   5.424   4.098   9.858
21788TIP3    H165249   5.345   4.113   9.910
21788TIP3    H265250   5.473   4.181   9.874
21789TIP3   OH265251   6.115   3.760   9.344
21789TIP3    H165252   6.162   3.736   9.426
21789TIP3    H265253   6.025   3.731   9.366
21790TIP3   OH265254   6.451   4.234   9.162
21790TIP3    H165255   6.486   4.305   9.106
21790TIP3    H265256   6.371   4.280   9.197
21791TIP3   OH265257   6.273   3.705   9.575
21791TIP3    H165258   6.263   3.629   9.635
21791TIP3    H265259   6.368   3.696   9.551
21792TIP3   OH265260   5.480   3.737   9.344
21792TIP3    H165261   5.490   3.646   9.312
21792TIP3    H265262   5.455   3.722   9.437
21793TIP3   OH265263   5.427   3.738   9.621
21793TIP3    H165264   5.515   3.722   9.660
21793TIP3    H265265   5.426   3.837   9.615
21794TIP3   OH265266   6.103   2.861   9.847
21794TIP3    H165267   6.125   2.836   9.755
21794TIP3    H265268   6.192   2.885   9.880
21795TIP3   OH265269   5.692   3.941   9.564
21795TIP3    H165270   5.601   3.965   9.589
21795TIP3    H265271   5.711   4.012   9.500
21796TIP3   OH265272   5.431   4.007   9.605
21796TIP3    H165273   5.401   4.083   9.550
21796TIP3    H265274   5.424   4.045   9.695
21797TIP3   OH265275   5.153   3.661   9.616
21797TIP3    H165276   5.230   3.720   9.606
21797TIP3    H265277   5.186   3.586   9.561
21798TIP3   OH265278   6.412   4.371  10.082
21798TIP3    H165279   6.360   4.426  10.019
21798TIP3    H265280   6.500   4.412  10.072
21799TIP3   OH265281   5.641   3.943   9.255
21799TIP3    H165282   5.586   3.870   9.292
21799TIP3    H265283   5.716   3.892   9.217
21800TIP3   OH265284   6.076   3.984   9.166
21800TIP3    H165285   6.123   3.921   9.223
21800TIP3    H265286   6.131   3.984   9.084
21801TIP3   OH265287   5.284   3.461   9.475
21801TIP3    H165288   5.334   3.424   9.550
21801TIP3    H265289   5.354   3.463   9.406
21802TIP3   OH265290   5.802   3.660   9.286
21802TIP3    H165291   5.799   3.672   9.383
21802TIP3    H265292   5.801   3.562   9.279
21803TIP3   OH265293   5.476   3.366   9.672
21803TIP3    H165294   5.469   3.324   9.759
21803TIP3    H265295   5.518   3.294   9.620
21804TIP3   OH265296   5.600   3.159   9.538
21804TIP3    H165297   5.573   3.160   9.443
21804TIP3    H265298   5.698   3.163   9.528
21805TIP3   OH265299   6.417   3.489   9.202
21805TIP3    H165300   6.397   3.443   9.118
21805TIP3    H265301   6.384   3.579   9.178
21806TIP3   OH265302   5.402   4.226   9.441
21806TIP3    H165303   5.498   4.220   9.423
21806TIP3    H265304   5.373   4.274   9.362
21807TIP3   OH265305   4.874   3.622   9.587
21807TIP3    H165306   4.963   3.638   9.625
21807TIP3    H265307   4.876   3.524   9.576
21808TIP3   OH265308   6.666   4.476  10.069
21808TIP3    H165309   6.704   4.553  10.116
21808TIP3    H265310   6.702   4.494   9.981
21809TIP3   OH265311   6.548   3.678   9.535
21809TIP3    H165312   6.617   3.740   9.503
21809TIP3    H265313   6.594   3.638   9.612
21810TIP3   OH265314   6.676   3.547   9.737
21810TIP3    H165315   6.615   3.503   9.799
21810TIP3    H265316   6.747   3.580   9.796
21811TIP3   OH265317   6.712   3.930  10.089
21811TIP3    H165318   6.792   3.872  10.084
21811TIP3    H265319   6.744   4.011  10.046
21812TIP3   OH265320   6.617   3.451   9.386
21812TIP3    H165321   6.546   3.453   9.318
21812TIP3    H265322   6.589   3.528   9.440
21813TIP3   OH265323   6.484   3.126   9.339
21813TIP3    H165324   6.445   3.159   9.257
21813TIP3    H265325   6.462   3.030   9.332
21814TIP3   OH265326   6.492   3.396   9.880
21814TIP3    H165327   6.498   3.302   9.852
21814TIP3    H265328   6.472   3.389   9.974
21815TIP3   OH265329   6.431   2.860   9.326
21815TIP3    H165330   6.506   2.826   9.379
21815TIP3    H265331   6.358   2.799   9.346
21816TIP3   OH265332   6.507   3.141   9.756
21816TIP3    H165333   6.538   3.051   9.778
21816TIP3    H265334   6.565   3.162   9.680
21817TIP3   OH265335   6.596   2.871   9.816
21817TIP3    H165336   6.648   2.865   9.899
21817TIP3    H265337   6.557   2.782   9.808
21818TIP3   OH265338   6.677   2.800   9.450
21818TIP3    H165339   6.720   2.728   9.399
21818TIP3    H265340   6.746   2.869   9.446
21819TIP3   OH265341   6.239   4.324   9.713
21819TIP3    H165342   6.297   4.322   9.634
21819TIP3    H265343   6.278   4.397   9.766
21820TIP3   OH265344   6.406   2.651   9.787
21820TIP3    H165345   6.315   2.684   9.783
21820TIP3    H265346   6.413   2.623   9.881
21821TIP3   OH265347   4.877   3.981   9.692
21821TIP3    H165348   4.841   3.937   9.771
21821TIP3    H265349   4.896   4.070   9.726
21822TIP3   OH265350   5.670   4.179   9.392
21822TIP3    H165351   5.758   4.202   9.355
21822TIP3    H265352   5.648   4.104   9.332
21823TIP3   OH265353   6.391   4.300   9.484
21823TIP3    H165354   6.381   4.202   9.472
21823TIP3    H265355   6.344   4.332   9.404
21824TIP3   OH265356   4.977   4.021   9.442
21824TIP3    H165357   4.952   4.002   9.536
21824TIP3    H265358   5.065   3.978   9.435
21825TIP3   OH265359   7.879   3.817   9.455
21825TIP3    H165360   7.854   3.904   9.419
21825TIP3    H265361   7.813   3.761   9.409
21826TIP3   OH265362   7.799   3.817   9.802
21826TIP3    H165363   7.873   3.795   9.860
21826TIP3    H265364   7.836   3.799   9.714
21827TIP3   OH265365   7.190   3.736  10.191
21827TIP3    H165366   7.198   3.673  10.264
21827TIP3    H265367   7.276   3.725  10.145
21828TIP3   OH265368   8.111   4.127   9.488
21828TIP3    H165369   8.127   4.052   9.547
21828TIP3    H265370   8.145   4.202   9.542
21829TIP3   OH265371   7.150   4.125   9.916
21829TIP3    H165372   7.141   4.027   9.912
21829TIP3    H265373   7.246   4.134   9.899
21830TIP3   OH265374   6.859   3.328   9.687
21830TIP3    H165375   6.809   3.410   9.703
21830TIP3    H265376   6.788   3.268   9.658
21831TIP3   OH265377   6.916   3.604   9.859
21831TIP3    H165378   6.960   3.529   9.904
21831TIP3    H265379   6.979   3.624   9.789
21832TIP3   OH265380   7.785   4.550   9.491
21832TIP3    H165381   7.862   4.492   9.504
21832TIP3    H265382   7.750   4.559   9.581
21833TIP3   OH265383   7.654   4.042   9.872
21833TIP3    H165384   7.687   3.954   9.841
21833TIP3    H265385   7.736   4.093   9.873
21834TIP3   OH265386   7.398   3.212   9.875
21834TIP3    H165387   7.377   3.282   9.811
21834TIP3    H265388   7.366   3.133   9.828
21835TIP3   OH265389   7.062   3.409   9.971
21835TIP3    H165390   7.136   3.383  10.031
21835TIP3    H265391   7.079   3.348   9.896
21836TIP3   OH265392   7.491   3.596   9.766
21836TIP3    H165393   7.582   3.564   9.760
21836TIP3    H265394   7.443   3.517   9.732
21837TIP3   OH265395   7.764   4.020   9.308
21837TIP3    H165396   7.737   3.988   9.220
21837TIP3    H265397   7.681   4.049   9.349
21838TIP3   OH265398   7.518   3.960  10.100
21838TIP3    H165399   7.463   4.032  10.133
21838TIP3    H265400   7.573   4.003  10.032
21839TIP3   OH265401   7.289   3.328  10.099
21839TIP3    H165402   7.366   3.384  10.111
21839TIP3    H265403   7.325   3.262  10.036
21840TIP3   OH265404   6.752   3.844   9.427
21840TIP3    H165405   6.713   3.871   9.342
21840TIP3    H265406   6.784   3.930   9.463
21841TIP3   OH265407   8.176   4.348   9.652
21841TIP3    H165408   8.094   4.345   9.706
21841TIP3    H265409   8.178   4.442   9.624
21842TIP3   OH265410   8.011   4.199   9.234
21842TIP3    H165411   8.011   4.113   9.190
21842TIP3    H265412   8.043   4.176   9.323
21843TIP3   OH265413   7.719   3.684   9.266
21843TIP3    H165414   7.632   3.719   9.239
21843TIP3    H265415   7.762   3.664   9.181
21844TIP3   OH265416   7.671   3.451   8.984
21844TIP3    H165417   7.742   3.501   9.029
21844TIP3    H265418   7.725   3.386   8.935
21845TIP3   OH265419   8.046   3.747   9.243
21845TIP3    H165420   7.996   3.772   9.324
21845TIP3    H265421   8.127   3.711   9.282
21846TIP3   OH265422   7.296   3.752   9.647
21846TIP3    H165423   7.250   3.691   9.586
21846TIP3    H265424   7.366   3.694   9.684
21847TIP3   OH265425   7.411   4.160   9.801
21847TIP3    H165426   7.393   4.108   9.722
21847TIP3    H265427   7.498   4.124   9.829
21848TIP3   OH265428   7.411   3.718  10.021
21848TIP3    H165429   7.452   3.688   9.937
21848TIP3    H265430   7.466   3.796  10.045
21849TIP3   OH265431   7.953   4.351   9.819
21849TIP3    H165432   7.933   4.447   9.822
21849TIP3    H265433   7.901   4.318   9.893
21850TIP3   OH265434   7.892   3.608   9.062
21850TIP3    H165435   7.954   3.662   9.116
21850TIP3    H265436   7.922   3.631   8.971
21851TIP3   OH265437   7.157   3.592   9.462
21851TIP3    H165438   7.087   3.631   9.405
21851TIP3    H265439   7.124   3.503   9.476
21852TIP3   OH265440   8.217   4.216   8.668
21852TIP3    H165441   8.227   4.311   8.648
21852TIP3    H265442   8.309   4.183   8.654
21853TIP3   OH265443   6.800   4.181   9.992
21853TIP3    H165444   6.896   4.175   9.982
21853TIP3    H265445   6.790   4.258  10.050
21854TIP3   OH265446   7.563   4.523   9.135
21854TIP3    H165447   7.509   4.513   9.054
21854TIP3    H265448   7.529   4.607   9.172
21855TIP3   OH265449   6.964   4.381   9.526
21855TIP3    H165450   7.011   4.372   9.613
21855TIP3    H265451   6.906   4.303   9.528
21856TIP3   OH265452   7.735   4.423   8.792
21856TIP3    H165453   7.775   4.354   8.734
21856TIP3    H265454   7.810   4.439   8.851
21857TIP3   OH265455   7.973   3.666   8.812
21857TIP3    H165456   7.940   3.631   8.727
21857TIP3    H265457   8.062   3.696   8.786
21858TIP3   OH265458   7.691   3.031   9.109
21858TIP3    H165459   7.667   3.033   9.203
21858TIP3    H265460   7.648   2.948   9.082
21859TIP3   OH265461   7.345   3.390   9.668
21859TIP3    H165462   7.255   3.355   9.687
21859TIP3    H265463   7.365   3.342   9.584
21860TIP3   OH265464   7.846   3.468   9.393
21860TIP3    H165465   7.797   3.540   9.348
21860TIP3    H265466   7.902   3.432   9.322
21861TIP3   OH265467   7.345   3.001   9.080
21861TIP3    H165468   7.337   2.999   9.177
21861TIP3    H265469   7.266   3.052   9.055
21862TIP3   OH265470   6.913   3.073   9.918
21862TIP3    H165471   7.003   3.084   9.952
21862TIP3    H265472   6.925   3.011   9.843
21863TIP3   OH265473   6.858   3.025   9.469
21863TIP3    H165474   6.905   3.062   9.391
21863TIP3    H265475   6.799   3.100   9.489
21864TIP3   OH265476   7.627   3.266   9.718
21864TIP3    H165477   7.552   3.225   9.765
21864TIP3    H265478   7.699   3.231   9.774
21865TIP3   OH265479   7.118   3.260   9.744
21865TIP3    H165480   7.023   3.267   9.718
21865TIP3    H265481   7.142   3.169   9.719
21866TIP3   OH265482   7.382   3.254   9.433
21866TIP3    H165483   7.478   3.265   9.415
21866TIP3    H265484   7.340   3.279   9.347
21867TIP3   OH265485   7.229   3.294   9.209
21867TIP3    H165486   7.160   3.245   9.161
21867TIP3    H265487   7.283   3.327   9.134
21868TIP3   OH265488   7.293   3.028   9.701
21868TIP3    H165489   7.261   2.947   9.748
21868TIP3    H265490   7.326   2.989   9.619
21869TIP3   OH265491   7.474   3.827   9.216
21869TIP3    H165492   7.408   3.754   9.205
21869TIP3    H265493   7.459   3.851   9.311
21870TIP3   OH265494   7.934   3.147   9.053
21870TIP3    H165495   7.841   3.128   9.079
21870TIP3    H265496   7.957   3.224   9.109
21871TIP3   OH265497   8.029   3.384   9.180
21871TIP3    H165498   8.126   3.378   9.174
21871TIP3    H265499   8.009   3.455   9.117
21872TIP3   OH265500   7.182   3.853   9.882
21872TIP3    H165501   7.220   3.817   9.800
21872TIP3    H265502   7.216   3.791   9.948
21873TIP3   OH265503   7.622   3.974   9.045
21873TIP3    H165504   7.577   4.059   9.055
21873TIP3    H265505   7.566   3.914   9.099
21874TIP3   OH265506   8.464   3.428   8.907
21874TIP3    H165507   8.370   3.404   8.913
21874TIP3    H265508   8.459   3.525   8.902
21875TIP3   OH265509   8.143   4.288   8.925
21875TIP3    H165510   8.128   4.212   8.983
21875TIP3    H265511   8.164   4.246   8.840
21876TIP3   OH265512   7.272   4.145   9.508
21876TIP3    H165513   7.261   4.231   9.463
21876TIP3    H265514   7.182   4.126   9.534
21877TIP3   OH265515   6.840   3.450   9.223
21877TIP3    H165516   6.885   3.533   9.244
21877TIP3    H265517   6.763   3.454   9.284
21878TIP3   OH265518   7.423   3.920   9.465
21878TIP3    H165519   7.373   4.002   9.483
21878TIP3    H265520   7.387   3.861   9.533
21879TIP3   OH265521   7.551   4.482   9.962
21879TIP3    H165522   7.599   4.561   9.935
21879TIP3    H265523   7.607   4.444  10.031
21880TIP3   OH265524   7.196   4.383   9.371
21880TIP3    H165525   7.110   4.391   9.416
21880TIP3    H265526   7.227   4.477   9.375
21881TIP3   OH265527   7.908   4.022   8.831
21881TIP3    H165528   7.959   3.997   8.911
21881TIP3    H265529   7.824   3.977   8.848
21882TIP3   OH265530   8.248   4.490   8.649
21882TIP3    H165531   8.284   4.559   8.591
21882TIP3    H265532   8.169   4.538   8.681
21883TIP3   OH265533   8.062   3.960   9.057
21883TIP3    H165534   8.056   3.887   9.122
21883TIP3    H265535   8.156   3.950   9.028
21884TIP3   OH265536   6.987   4.371  10.129
21884TIP3    H165537   7.032   4.286  10.139
21884TIP3    H265538   7.014   4.413  10.212
21885TIP3   OH265539   7.278   3.995   8.828
21885TIP3    H165540   7.285   3.903   8.796
21885TIP3    H265541   7.251   3.980   8.921
21886TIP3   OH265542   7.222   4.003   9.099
21886TIP3    H165543   7.281   3.968   9.167
21886TIP3    H265544   7.228   4.100   9.112
21887TIP3   OH265545   6.953   3.695   9.305
21887TIP3    H165546   6.886   3.739   9.362
21887TIP3    H265547   6.965   3.764   9.237
21888TIP3   OH265548   7.908   3.115   9.337
21888TIP3    H165549   7.917   3.084   9.246
21888TIP3    H265550   7.998   3.094   9.369
21889TIP3   OH265551   7.522   4.243   9.080
21889TIP3    H165552   7.426   4.244   9.105
21889TIP3    H265553   7.511   4.249   8.982
21890TIP3   OH265554   7.655   3.267   9.447
21890TIP3    H165555   7.738   3.317   9.428
21890TIP3    H265556   7.652   3.273   9.545
21891TIP3   OH265557   7.250   4.275   9.120
21891TIP3    H165558   7.211   4.337   9.054
21891TIP3    H265559   7.218   4.315   9.204
21892TIP3   OH265560   7.332   2.989   9.359
21892TIP3    H165561   7.329   3.081   9.393
21892TIP3    H265562   7.428   2.971   9.367
21893TIP3   OH265563   6.946   3.902   9.110
21893TIP3    H165564   7.009   3.976   9.113
21893TIP3    H265565   6.991   3.846   9.044
21894TIP3   OH265566   6.890   3.179   9.245
21894TIP3    H165567   6.890   3.277   9.240
21894TIP3    H265568   6.811   3.156   9.196
21895TIP3   OH265569   8.208   4.621   9.587
21895TIP3    H165570   8.171   4.674   9.514
21895TIP3    H265571   8.304   4.628   9.569
21896TIP3   OH265572   6.817   4.120   9.496
21896TIP3    H165573   6.749   4.149   9.558
21896TIP3    H265574   6.785   4.161   9.412
21897TIP3   OH265575   7.447   4.197   8.759
21897TIP3    H165576   7.385   4.122   8.779
21897TIP3    H265577   7.514   4.151   8.705
21898TIP3   OH265578   7.872   4.240   8.649
21898TIP3    H165579   7.918   4.176   8.707
21898TIP3    H265580   7.927   4.239   8.568
21899TIP3   OH265581   7.082   3.719   8.963
21899TIP3    H165582   7.136   3.680   9.034
21899TIP3    H265583   7.148   3.721   8.890
21900TIP3   OH265584   7.598   3.914   8.773
21900TIP3    H165585   7.597   3.922   8.870
21900TIP3    H265586   7.599   3.816   8.763
21901TIP3   OH265587   7.295   3.621   9.187
21901TIP3    H165588   7.264   3.577   9.268
21901TIP3    H265589   7.328   3.545   9.134
21902TIP3   OH265590   7.391   3.417   9.024
21902TIP3    H165591   7.366   3.419   8.929
21902TIP3    H265592   7.489   3.418   9.017
21903TIP3   OH265593   8.207   3.746   8.688
21903TIP3    H165594   8.189   3.698   8.605
21903TIP3    H265595   8.175   3.836   8.662
21904TIP3   OH265596   7.200   4.472   8.931
21904TIP3    H165597   7.294   4.478   8.908
21904TIP3    H265598   7.162   4.522   8.856
21905TIP3   OH265599   6.677   3.858   9.147
21905TIP3    H165600   6.772   3.879   9.132
21905TIP3    H265601   6.671   3.769   9.105
21906TIP3   OH265602   6.595   4.471   9.558
21906TIP3    H165603   6.527   4.411   9.522
21906TIP3    H265604   6.637   4.412   9.625
21907TIP3   OH265605   6.727   4.319   9.745
21907TIP3    H165606   6.718   4.249   9.812
21907TIP3    H265607   6.786   4.381   9.793
21908TIP3   OH265608   8.472   4.725   9.549
21908TIP3    H165609   8.459   4.759   9.640
21908TIP3    H265610   8.460   4.803   9.493
21909TIP3   OH265611   8.334   3.938   9.009
21909TIP3    H165612   8.413   3.992   8.990
21909TIP3    H265613   8.345   3.917   9.104
21910TIP3   OH265614   8.344   3.820   9.261
21910TIP3    H165615   8.361   3.732   9.222
21910TIP3    H265616   8.437   3.850   9.273
21911TIP3   OH265617   8.410   3.707   8.866
21911TIP3    H165618   8.339   3.709   8.798
21911TIP3    H265619   8.383   3.784   8.919
21912TIP3   OH265620   8.201   3.391   8.828
21912TIP3    H165621   8.231   3.415   8.740
21912TIP3    H265622   8.208   3.294   8.828
21913TIP3   OH265623   6.936   3.777  10.079
21913TIP3    H165624   6.930   3.720  10.000
21913TIP3    H265625   7.026   3.757  10.111
21914TIP3   OH265626   8.231   3.111   8.845
21914TIP3    H165627   8.301   3.055   8.809
21914TIP3    H265628   8.151   3.059   8.827
21915TIP3   OH265629   6.876   2.895   9.703
21915TIP3    H165630   6.781   2.882   9.718
21915TIP3    H265631   6.878   2.945   9.619
21916TIP3   OH265632   8.000   4.601   9.183
21916TIP3    H165633   8.068   4.568   9.121
21916TIP3    H265634   8.056   4.636   9.254
21917TIP3   OH265635   7.217   4.635   9.996
21917TIP3    H165636   7.162   4.680  10.060
21917TIP3    H265637   7.216   4.694   9.919
21918TIP3   OH265638   7.658   4.710   9.810
21918TIP3    H165639   7.580   4.710   9.752
21918TIP3    H265640   7.649   4.796   9.853
21919TIP3   OH265641   7.919   4.614   9.844
21919TIP3    H165642   7.833   4.659   9.833
21919TIP3    H265643   7.982   4.689   9.829
21920TIP3   OH265644   8.093   4.814   9.780
21920TIP3    H165645   8.106   4.907   9.750
21920TIP3    H265646   8.149   4.764   9.719
21921TIP3   OH265647   6.903   4.477   9.892
21921TIP3    H165648   6.929   4.457   9.984
21921TIP3    H265649   6.980   4.438   9.846
21922TIP3   OH265650   7.102   4.346   9.759
21922TIP3    H165651   7.117   4.266   9.814
21922TIP3    H265652   7.191   4.387   9.760
21923TIP3   OH265653   7.366   4.442   9.761
21923TIP3    H165654   7.395   4.348   9.760
21923TIP3    H265655   7.404   4.469   9.847
21924TIP3   OH265656   7.212   2.812   9.835
21924TIP3    H165657   7.129   2.760   9.850
21924TIP3    H265658   7.255   2.804   9.922
21925TIP3   OH265659   6.959   2.679   9.504
21925TIP3    H165660   7.003   2.734   9.438
21925TIP3    H265661   6.952   2.739   9.580
21926TIP3   OH265662   6.695   4.250   9.294
21926TIP3    H165663   6.609   4.217   9.261
21926TIP3    H265664   6.684   4.344   9.274
21927TIP3   OH265665   7.095   2.839   9.278
21927TIP3    H165666   7.143   2.773   9.223
21927TIP3    H265667   7.170   2.891   9.315
21928TIP3   OH265668   7.614   3.004   9.380
21928TIP3    H165669   7.700   2.960   9.392
21928TIP3    H265670   7.638   3.096   9.406
21929TIP3   OH265671   7.472   4.444   8.877
21929TIP3    H165672   7.558   4.463   8.834
21929TIP3    H265673   7.444   4.368   8.821
21930TIP3   OH265674   8.183   4.553   8.974
21930TIP3    H165675   8.174   4.455   8.959
21930TIP3    H265676   8.144   4.587   8.892
21931TIP3   OH265677   6.770   4.273   8.933
21931TIP3    H165678   6.769   4.300   9.026
21931TIP3    H265679   6.859   4.231   8.924
21932TIP3   OH265680   8.547   4.099   8.920
21932TIP3    H165681   8.515   4.115   8.829
21932TIP3    H265682   8.580   4.187   8.947
21933TIP3   OH265683   9.313   4.777   8.624
21933TIP3    H165684   9.262   4.759   8.543
21933TIP3    H265685   9.271   4.858   8.658
21934TIP3   OH265686   8.761   4.638   9.018
21934TIP3    H165687   8.823   4.597   9.079
21934TIP3    H265688   8.697   4.565   9.006
21935TIP3   OH265689   9.521   4.684   8.258
21935TIP3    H165690   9.581   4.612   8.228
21935TIP3    H265691   9.556   4.704   8.347
21936TIP3   OH265692   9.560   4.725   8.532
21936TIP3    H165693   9.474   4.751   8.573
21936TIP3    H265694   9.555   4.627   8.540
21937TIP3   OH265695   9.297   4.198   8.559
21937TIP3    H165696   9.301   4.296   8.553
21937TIP3    H265697   9.389   4.170   8.543
21938TIP3   OH265698   9.003   4.464   9.044
21938TIP3    H165699   9.043   4.496   8.960
21938TIP3    H265700   8.993   4.369   9.025
21939TIP3   OH265701   8.635   3.712   8.704
21939TIP3    H165702   8.682   3.794   8.732
21939TIP3    H265703   8.563   3.707   8.770
21940TIP3   OH265704   8.984   4.652   8.835
21940TIP3    H165705   8.904   4.654   8.892
21940TIP3    H265706   9.018   4.743   8.848
21941TIP3   OH265707   9.956   4.721   8.076
21941TIP3    H165708  10.020   4.783   8.041
21941TIP3    H265709   9.916   4.776   8.147
21942TIP3   OH265710   9.072   4.253   8.319
21942TIP3    H165711   9.078   4.161   8.285
21942TIP3    H265712   9.050   4.236   8.413
21943TIP3   OH265713   8.999   4.264   8.593
21943TIP3    H165714   9.079   4.236   8.641
21943TIP3    H265715   9.008   4.362   8.594
21944TIP3   OH265716   8.753   3.950   8.775
21944TIP3    H165717   8.706   3.982   8.853
21944TIP3    H265718   8.758   4.031   8.720
21945TIP3   OH265719   9.285   4.467   8.547
21945TIP3    H165720   9.195   4.491   8.579
21945TIP3    H265721   9.294   4.531   8.475
21946TIP3   OH265722   9.026   4.533   8.597
21946TIP3    H165723   8.993   4.601   8.534
21946TIP3    H265724   9.006   4.577   8.683
21947TIP3   OH265725   8.740   4.166   8.594
21947TIP3    H165726   8.815   4.228   8.601
21947TIP3    H265727   8.779   4.106   8.527
21948TIP3   OH265728   8.658   3.424   8.679
21948TIP3    H165729   8.689   3.511   8.708
21948TIP3    H265730   8.609   3.398   8.760
21949TIP3   OH265731   8.617   4.383   8.996
21949TIP3    H165732   8.536   4.412   9.039
21949TIP3    H265733   8.599   4.413   8.904
21950TIP3   OH265734   9.236   4.455   8.233
21950TIP3    H165735   9.178   4.382   8.267
21950TIP3    H265736   9.306   4.403   8.189
21951TIP3   OH265737   9.679   4.485   8.146
21951TIP3    H165738   9.755   4.432   8.173
21951TIP3    H265739   9.706   4.505   8.053
21952TIP3   OH265740   8.868   3.982   8.439
21952TIP3    H165741   8.906   3.921   8.505
21952TIP3    H265742   8.941   3.984   8.373
21953TIP3   OH265743   9.376   4.174   8.256
21953TIP3    H165744   9.342   4.164   8.346
21953TIP3    H265745   9.387   4.079   8.232
21954TIP3   OH265746   8.995   4.738   8.417
21954TIP3    H165747   9.089   4.731   8.393
21954TIP3    H265748   8.961   4.784   8.338
21955TIP3   OH265749   8.475   4.113   8.639
21955TIP3    H165750   8.568   4.136   8.619
21955TIP3    H265751   8.468   4.025   8.595
21956TIP3   OH265752   8.388   4.728   9.046
21956TIP3    H165753   8.321   4.665   9.011
21956TIP3    H265754   8.434   4.670   9.112
21957TIP3   OH265755   8.522   4.580   9.235
21957TIP3    H165756   8.501   4.511   9.298
21957TIP3    H265757   8.584   4.636   9.286
21958TIP3   OH265758   8.735   4.725   9.360
21958TIP3    H165759   8.746   4.713   9.456
21958TIP3    H265760   8.825   4.710   9.328
21959TIP3   OH265761   8.490   4.507   8.789
21959TIP3    H165762   8.407   4.471   8.753
21959TIP3    H265763   8.480   4.600   8.761
21960TIP3   OH265764   9.261   4.693   8.359
21960TIP3    H165765   9.346   4.717   8.318
21960TIP3    H265766   9.238   4.615   8.303
21961TIP3   OH265767   8.568   4.531   8.420
21961TIP3    H165768   8.570   4.556   8.513
21961TIP3    H265769   8.655   4.486   8.408
21962TIP3   OH265770   4.161   5.454   9.890
21962TIP3    H165771   4.085   5.426   9.837
21962TIP3    H265772   4.118   5.495   9.965
21963TIP3   OH265773   3.731   4.755   9.634
21963TIP3    H165774   3.799   4.815   9.674
21963TIP3    H265775   3.791   4.694   9.586
21964TIP3   OH265776   3.930   4.905   9.730
21964TIP3    H165777   4.004   4.913   9.792
21964TIP3    H265778   3.972   4.933   9.645
21965TIP3   OH265779   4.261   5.517   9.331
21965TIP3    H165780   4.268   5.613   9.312
21965TIP3    H265781   4.353   5.487   9.317
21966TIP3   OH265782   3.596   5.852   9.796
21966TIP3    H165783   3.545   5.827   9.716
21966TIP3    H265784   3.564   5.943   9.814
21967TIP3   OH265785   3.770   5.732   9.446
21967TIP3    H165786   3.829   5.664   9.406
21967TIP3    H265787   3.813   5.743   9.534
21968TIP3   OH265788   3.838   5.780   9.709
21968TIP3    H165789   3.751   5.796   9.752
21968TIP3    H265790   3.887   5.735   9.779
21969TIP3   OH265791   4.020   4.951   9.475
21969TIP3    H165792   3.989   4.928   9.386
21969TIP3    H265793   4.102   5.000   9.453
21970TIP3   OH265794   3.671   5.262   9.692
21970TIP3    H165795   3.631   5.351   9.701
21970TIP3    H265796   3.613   5.210   9.749
21971TIP3   OH265797   4.520   4.775   9.659
21971TIP3    H165798   4.449   4.730   9.608
21971TIP3    H265799   4.502   4.867   9.628
21972TIP3   OH265800   4.188   5.587   9.592
21972TIP3    H165801   4.194   5.512   9.653
21972TIP3    H265802   4.209   5.547   9.505
21973TIP3   OH265803   3.947   5.315   9.488
21973TIP3    H165804   4.007   5.286   9.561
21973TIP3    H265805   3.862   5.288   9.524
21974TIP3   OH265806   4.292   5.791   9.313
21974TIP3    H165807   4.331   5.860   9.257
21974TIP3    H265808   4.212   5.839   9.343
21975TIP3   OH265809   4.108   5.240   9.695
21975TIP3    H165810   4.095   5.211   9.786
21975TIP3    H265811   4.206   5.241   9.689
21976TIP3   OH265812   3.325   5.300   9.493
21976TIP3    H165813   3.349   5.223   9.438
21976TIP3    H265814   3.296   5.256   9.574
21977TIP3   OH265815   3.526   5.495   9.699
21977TIP3    H165816   3.430   5.511   9.687
21977TIP3    H265817   3.562   5.550   9.628
21978TIP3   OH265818   3.261   5.561   9.731
21978TIP3    H165819   3.229   5.622   9.661
21978TIP3    H265820   3.275   5.628   9.801
21979TIP3   OH265821   3.487   5.505   9.404
21979TIP3    H165822   3.435   5.429   9.438
21979TIP3    H265823   3.559   5.459   9.356
21980TIP3   OH265824   3.916   5.543   9.314
21980TIP3    H165825   3.966   5.482   9.372
21980TIP3    H265826   3.970   5.544   9.232
21981TIP3   OH265827   3.164   5.072   9.613
21981TIP3    H165828   3.165   4.981   9.649
21981TIP3    H265829   3.214   5.057   9.530
21982TIP3   OH265830   3.628   5.212   9.427
21982TIP3    H165831   3.640   5.226   9.523
21982TIP3    H265832   3.633   5.114   9.423
21983TIP3   OH265833   3.442   4.764   9.671
21983TIP3    H165834   3.381   4.764   9.595
21983TIP3    H265835   3.527   4.776   9.626
21984TIP3   OH265836   4.256   5.044   9.353
21984TIP3    H165837   4.236   5.000   9.268
21984TIP3    H265838   4.225   5.135   9.331
21985TIP3   OH265839   3.238   5.773   9.572
21985TIP3    H165840   3.335   5.781   9.563
21985TIP3    H265841   3.211   5.832   9.498
21986TIP3   OH265842   4.387   5.240   9.679
21986TIP3    H165843   4.455   5.303   9.647
21986TIP3    H265844   4.436   5.196   9.752
21987TIP3   OH265845   4.523   5.102   9.867
21987TIP3    H165846   4.469   5.069   9.941
21987TIP3    H265847   4.604   5.136   9.911
21988TIP3   OH265848   4.457   5.012   9.534
21988TIP3    H165849   4.385   5.013   9.466
21988TIP3    H265850   4.428   5.088   9.588
21989TIP3   OH265851   4.323   4.680   9.499
21989TIP3    H165852   4.292   4.723   9.419
21989TIP3    H265853   4.303   4.586   9.480
21990TIP3   OH265854   4.276   4.412   9.477
21990TIP3    H165855   4.351   4.384   9.533
21990TIP3    H265856   4.201   4.362   9.511
21991TIP3   OH265857   4.527   4.373   9.600
21991TIP3    H165858   4.565   4.292   9.561
21991TIP3    H265859   4.594   4.439   9.576
21992TIP3   OH265860   4.087   5.900   9.870
21992TIP3    H165861   4.130   5.883   9.783
21992TIP3    H265862   4.144   5.972   9.902
21993TIP3   OH265863   3.512   5.746   9.539
21993TIP3    H165864   3.602   5.765   9.504
21993TIP3    H265865   3.488   5.673   9.478
21994TIP3   OH265866   4.225   5.855   9.635
21994TIP3    H165867   4.216   5.758   9.619
21994TIP3    H265868   4.187   5.890   9.552
21995TIP3   OH265869   2.840   5.606   9.612
21995TIP3    H165870   2.866   5.677   9.675
21995TIP3    H265871   2.925   5.560   9.595
21996TIP3   OH265872   5.720   5.368   9.595
21996TIP3    H165873   5.699   5.461   9.570
21996TIP3    H265874   5.645   5.322   9.554
21997TIP3   OH265875   5.696   5.386   9.965
21997TIP3    H165876   5.728   5.348  10.049
21997TIP3    H265877   5.671   5.307   9.915
21998TIP3   OH265878   5.965   5.679   9.645
21998TIP3    H165879   5.949   5.616   9.716
21998TIP3    H265880   5.996   5.757   9.694
21999TIP3   OH265881   5.020   5.660  10.098
21999TIP3    H165882   4.991   5.573  10.064
21999TIP3    H265883   5.105   5.670  10.052
22000TIP3   OH265884   4.698   4.867   9.848
22000TIP3    H165885   4.655   4.953   9.858
22000TIP3    H265886   4.632   4.822   9.791
22001TIP3   OH265887   4.781   5.157   9.941
22001TIP3    H165888   4.836   5.096   9.990
22001TIP3    H265889   4.842   5.196   9.878
22002TIP3   OH265890   5.529   5.635  10.025
22002TIP3    H165891   5.540   5.550   9.979
22002TIP3    H265892   5.625   5.652  10.043
22003TIP3   OH265893   6.545   4.933  10.020
22003TIP3    H165894   6.531   5.023  10.054
22003TIP3    H265895   6.562   4.951   9.926
22004TIP3   OH265896   5.940   5.104  10.055
22004TIP3    H165897   5.973   5.012  10.066
22004TIP3    H265898   5.910   5.098   9.962
22005TIP3   OH265899   5.292   4.749   9.993
22005TIP3    H165900   5.259   4.827   9.946
22005TIP3    H265901   5.234   4.680   9.956
22006TIP3   OH265902   5.969   4.852   9.642
22006TIP3    H165903   6.040   4.835   9.708
22006TIP3    H265904   6.021   4.885   9.567
22007TIP3   OH265905   5.354   5.156   9.870
22007TIP3    H165906   5.447   5.127   9.879
22007TIP3    H265907   5.308   5.072   9.852
22008TIP3   OH265908   5.633   5.599   9.461
22008TIP3    H165909   5.573   5.602   9.386
22008TIP3    H265910   5.596   5.668   9.520
22009TIP3   OH265911   6.175   4.850   9.823
22009TIP3    H165912   6.193   4.816   9.913
22009TIP3    H265913   6.227   4.932   9.829
22010TIP3   OH265914   4.593   5.402   9.577
22010TIP3    H165915   4.557   5.428   9.490
22010TIP3    H265916   4.624   5.489   9.612
22011TIP3   OH265917   6.036   5.912   9.804
22011TIP3    H165918   5.950   5.911   9.852
22011TIP3    H265919   6.035   6.003   9.768
22012TIP3   OH265920   6.299   4.795  10.063
22012TIP3    H165921   6.275   4.817  10.154
22012TIP3    H265922   6.388   4.835  10.055
22013TIP3   OH265923   5.901   5.726   9.369
22013TIP3    H165924   5.819   5.676   9.371
22013TIP3    H265925   5.927   5.722   9.463
22014TIP3   OH265926   5.554   5.225   9.420
22014TIP3    H165927   5.475   5.278   9.398
22014TIP3    H265928   5.601   5.225   9.335
22015TIP3   OH265929   5.512   5.008   9.136
22015TIP3    H165930   5.578   5.061   9.184
22015TIP3    H265931   5.570   4.947   9.088
22016TIP3   OH265932   6.452   5.453   9.995
22016TIP3    H165933   6.374   5.510  10.009
22016TIP3    H265934   6.488   5.495   9.914
22017TIP3   OH265935   5.898   5.303   9.395
22017TIP3    H165936   5.845   5.332   9.473
22017TIP3    H265937   5.984   5.283   9.437
22018TIP3   OH265938   5.125   5.302   9.809
22018TIP3    H165939   5.085   5.247   9.739
22018TIP3    H265940   5.209   5.254   9.826
22019TIP3   OH265941   5.272   5.707   9.939
22019TIP3    H165942   5.217   5.722   9.858
22019TIP3    H265943   5.336   5.646   9.898
22020TIP3   OH265944   5.316   5.297  10.103
22020TIP3    H165945   5.350   5.252  10.022
22020TIP3    H265946   5.397   5.315  10.154
22021TIP3   OH265947   5.811   5.925   9.949
22021TIP3    H165948   5.781   6.008   9.990
22021TIP3    H265949   5.776   5.854  10.005
22022TIP3   OH265950   5.741   5.164   9.217
22022TIP3    H165951   5.799   5.226   9.268
22022TIP3    H265952   5.767   5.187   9.125
22023TIP3   OH265953   6.257   4.405   9.266
22023TIP3    H165954   6.175   4.427   9.316
22023TIP3    H265955   6.271   4.488   9.215
22024TIP3   OH265956   4.987   5.146   9.624
22024TIP3    H165957   4.929   5.197   9.562
22024TIP3    H265958   4.955   5.057   9.608
22025TIP3   OH265959   6.054   5.772   8.811
22025TIP3    H165960   6.061   5.869   8.801
22025TIP3    H265961   6.148   5.744   8.801
22026TIP3   OH265962   5.362   6.101   9.282
22026TIP3    H165963   5.317   6.083   9.197
22026TIP3    H265964   5.329   6.188   9.308
22027TIP3   OH265965   4.799   5.941   9.677
22027TIP3    H165966   4.848   5.932   9.762
22027TIP3    H265967   4.736   5.868   9.686
22028TIP3   OH265968   5.566   5.992   8.936
22028TIP3    H165969   5.626   5.922   8.901
22028TIP3    H265970   5.599   6.001   9.028
22029TIP3   OH265971   5.616   6.038   9.206
22029TIP3    H165972   5.528   6.046   9.251
22029TIP3    H265973   5.674   6.016   9.281
22030TIP3   OH265974   5.816   5.205   8.960
22030TIP3    H165975   5.785   5.185   8.870
22030TIP3    H265976   5.893   5.261   8.941
22031TIP3   OH265977   5.529   4.586   9.264
22031TIP3    H165978   5.495   4.582   9.355
22031TIP3    H265979   5.490   4.503   9.229
22032TIP3   OH265980   5.191   4.938   9.824
22032TIP3    H165981   5.098   4.914   9.842
22032TIP3    H265982   5.203   4.901   9.734
22033TIP3   OH265983   5.691   5.024   9.552
22033TIP3    H165984   5.639   5.097   9.511
22033TIP3    H265985   5.746   4.995   9.477
22034TIP3   OH265986   5.848   5.056   9.793
22034TIP3    H165987   5.789   5.085   9.719
22034TIP3    H265988   5.883   4.974   9.752
22035TIP3   OH265989   5.185   4.559   9.229
22035TIP3    H165990   5.175   4.558   9.326
22035TIP3    H265991   5.107   4.612   9.203
22036TIP3   OH265992   4.727   4.602   9.616
22036TIP3    H165993   4.763   4.634   9.531
22036TIP3    H265994   4.657   4.669   9.630
22037TIP3   OH265995   5.803   5.286  10.199
22037TIP3    H165996   5.865   5.227  10.151
22037TIP3    H265997   5.863   5.326  10.265
22038TIP3   OH265998   5.542   4.768   9.875
22038TIP3    H165999   5.459   4.760   9.926
22038TIP3    H266000   5.611   4.746   9.941
22039TIP3   OH266001   4.954   4.802   9.919
22039TIP3    H166002   4.863   4.820   9.883
22039TIP3    H266003   4.979   4.720   9.874
22040TIP3   OH266004   5.229   4.814   9.584
22040TIP3    H166005   5.324   4.827   9.564
22040TIP3    H266006   5.185   4.836   9.499
22041TIP3   OH266007   5.991   4.844  10.078
22041TIP3    H166008   5.968   4.817  10.169
22041TIP3    H266009   5.967   4.766  10.027
22042TIP3   OH266010   5.074   4.848   9.361
22042TIP3    H166011   5.004   4.803   9.311
22042TIP3    H266012   5.126   4.886   9.288
22043TIP3   OH266013   5.607   5.096   9.953
22043TIP3    H166014   5.684   5.054   9.912
22043TIP3    H266015   5.611   5.065  10.045
22044TIP3   OH266016   5.142   4.556   9.865
22044TIP3    H166017   5.174   4.471   9.904
22044TIP3    H266018   5.179   4.549   9.775
22045TIP3   OH266019   5.324   5.376   9.369
22045TIP3    H166020   5.250   5.313   9.355
22045TIP3    H266021   5.304   5.411   9.459
22046TIP3   OH266022   6.223   5.600  10.009
22046TIP3    H166023   6.254   5.666   9.942
22046TIP3    H266024   6.137   5.574   9.972
22047TIP3   OH266025   5.782   4.688   9.234
22047TIP3    H166026   5.685   4.672   9.239
22047TIP3    H266027   5.791   4.783   9.254
22048TIP3   OH266028   5.851   4.937   9.335
22048TIP3    H166029   5.947   4.945   9.349
22048TIP3    H266030   5.830   5.017   9.282
22049TIP3   OH266031   4.984   5.397  10.025
22049TIP3    H166032   5.033   5.375   9.943
22049TIP3    H266033   5.026   5.339  10.089
22050TIP3   OH266034   5.467   5.525   9.184
22050TIP3    H166035   5.419   5.611   9.190
22050TIP3    H266036   5.417   5.471   9.250
22051TIP3   OH266037   6.294   5.028   9.170
22051TIP3    H166038   6.232   4.984   9.107
22051TIP3    H266039   6.289   5.118   9.130
22052TIP3   OH266040   5.997   5.847   9.083
22052TIP3    H166041   5.965   5.786   9.152
22052TIP3    H266042   6.002   5.791   9.004
22053TIP3   OH266043   5.973   5.472   9.933
22053TIP3    H166044   5.880   5.447   9.919
22053TIP3    H266045   6.019   5.401   9.883
22054TIP3   OH266046   5.118   5.711   9.705
22054TIP3    H166047   5.151   5.780   9.644
22054TIP3    H266048   5.030   5.696   9.670
22055TIP3   OH266049   4.682   5.007   9.373
22055TIP3    H166050   4.726   5.093   9.391
22055TIP3    H266051   4.604   5.015   9.433
22056TIP3   OH266052   5.248   5.467   9.611
22056TIP3    H166053   5.240   5.561   9.634
22056TIP3    H266054   5.209   5.424   9.690
22057TIP3   OH266055   5.431   5.976  10.105
22057TIP3    H166056   5.434   6.059  10.053
22057TIP3    H266057   5.456   6.012  10.191
22058TIP3   OH266058   5.035   5.939   9.521
22058TIP3    H166059   4.950   5.953   9.566
22058TIP3    H266060   5.073   6.029   9.524
22059TIP3   OH266061   5.778   5.690  10.094
22059TIP3    H166062   5.794   5.685  10.190
22059TIP3    H266063   5.852   5.641  10.055
22060TIP3   OH266064   5.747   5.573   8.977
22060TIP3    H166065   5.803   5.542   9.052
22060TIP3    H266066   5.659   5.551   9.011
22061TIP3   OH266067   6.088   6.048   8.799
22061TIP3    H166068   6.122   6.120   8.744
22061TIP3    H266069   6.009   6.092   8.835
22062TIP3   OH266070   5.907   5.482   9.178
22062TIP3    H166071   5.897   5.436   9.264
22062TIP3    H266072   6.003   5.501   9.179
22063TIP3   OH266073   5.115   5.555   8.980
22063TIP3    H166074   5.130   5.463   8.951
22063TIP3    H266075   5.095   5.543   9.075
22064TIP3   OH266076   5.061   5.558   9.254
22064TIP3    H166077   5.141   5.538   9.304
22064TIP3    H266078   5.061   5.657   9.257
22065TIP3   OH266079   4.795   5.254   9.455
22065TIP3    H166080   4.728   5.300   9.510
22065TIP3    H266081   4.810   5.321   9.386
22066TIP3   OH266082   5.830   4.642   9.510
22066TIP3    H166083   5.813   4.664   9.416
22066TIP3    H266084   5.866   4.726   9.545
22067TIP3   OH266085   5.324   5.754   9.200
22067TIP3    H166086   5.241   5.785   9.240
22067TIP3    H266087   5.348   5.831   9.147
22068TIP3   OH266088   5.512   4.822   9.608
22068TIP3    H166089   5.576   4.893   9.588
22068TIP3    H266090   5.523   4.815   9.706
22069TIP3   OH266091   5.666   4.556   9.714
22069TIP3    H166092   5.657   4.639   9.765
22069TIP3    H266093   5.728   4.585   9.643
22070TIP3   OH266094   5.065   5.830   9.268
22070TIP3    H166095   5.039   5.901   9.205
22070TIP3    H266096   5.054   5.875   9.354
22071TIP3   OH266097   5.169   4.547   9.507
22071TIP3    H166098   5.171   4.639   9.537
22071TIP3    H266099   5.264   4.525   9.514
22072TIP3   OH266100   6.072   5.237   9.793
22072TIP3    H166101   6.000   5.171   9.799
22072TIP3    H266102   6.147   5.190   9.836
22073TIP3   OH266103   4.787   5.461   9.261
22073TIP3    H166104   4.853   5.533   9.269
22073TIP3    H266105   4.832   5.407   9.193
22074TIP3   OH266106   4.731   4.737   9.383
22074TIP3    H166107   4.727   4.835   9.385
22074TIP3    H266108   4.652   4.715   9.331
22075TIP3   OH266109   6.047   6.185   9.739
22075TIP3    H166110   6.004   6.236   9.666
22075TIP3    H266111   6.141   6.205   9.720
22076TIP3   OH266112   4.655   5.667   9.649
22076TIP3    H166113   4.583   5.707   9.699
22076TIP3    H266114   4.641   5.710   9.562
22077TIP3   OH266115   5.278   5.758   8.889
22077TIP3    H166116   5.223   5.687   8.930
22077TIP3    H266117   5.353   5.707   8.856
22078TIP3   OH266118   5.713   5.799   8.803
22078TIP3    H166119   5.758   5.735   8.861
22078TIP3    H266120   5.770   5.798   8.723
22079TIP3   OH266121   4.922   5.274   9.114
22079TIP3    H166122   4.981   5.245   9.186
22079TIP3    H266123   4.987   5.280   9.041
22080TIP3   OH266124   5.431   5.472   8.918
22080TIP3    H166125   5.436   5.487   9.015
22080TIP3    H266126   5.431   5.374   8.915
22081TIP3   OH266127   5.130   5.178   9.333
22081TIP3    H166128   5.108   5.130   9.414
22081TIP3    H266129   5.168   5.107   9.278
22082TIP3   OH266130   5.232   4.973   9.176
22082TIP3    H166131   5.206   4.978   9.082
22082TIP3    H266132   5.330   4.978   9.168
22083TIP3   OH266133   6.056   5.302   8.838
22083TIP3    H166134   6.032   5.258   8.754
22083TIP3    H266135   6.022   5.392   8.818
22084TIP3   OH266136   5.038   6.031   9.080
22084TIP3    H166137   5.134   6.026   9.061
22084TIP3    H266138   5.010   6.083   9.002
22085TIP3   OH266139   4.519   5.414   9.301
22085TIP3    H166140   4.613   5.438   9.283
22085TIP3    H266141   4.513   5.327   9.256
22086TIP3   OH266142   4.434   6.027   9.706
22086TIP3    H166143   4.368   5.963   9.669
22086TIP3    H266144   4.480   5.971   9.772
22087TIP3   OH266145   4.569   5.884   9.894
22087TIP3    H166146   4.547   5.821   9.964
22087TIP3    H266147   4.613   5.954   9.947
22088TIP3   OH266148   6.302   6.278   9.699
22088TIP3    H166149   6.320   6.341   9.770
22088TIP3    H266150   6.352   6.318   9.626
22089TIP3   OH266151   6.192   5.488   9.171
22089TIP3    H166152   6.257   5.556   9.144
22089TIP3    H266153   6.234   5.451   9.251
22090TIP3   OH266154   6.319   5.355   9.376
22090TIP3    H166155   6.249   5.316   9.433
22090TIP3    H266156   6.377   5.399   9.440
22091TIP3   OH266157   6.346   5.737   9.804
22091TIP3    H166158   6.419   5.684   9.767
22091TIP3    H266159   6.348   5.817   9.748
22092TIP3   OH266160   6.203   6.030  10.011
22092TIP3    H166161   6.136   6.098  10.022
22092TIP3    H266162   6.167   5.976   9.940
22093TIP3   OH266163   6.254   5.264   9.022
22093TIP3    H166164   6.183   5.267   8.954
22093TIP3    H266165   6.227   5.341   9.077
22094TIP3   OH266166   6.127   4.937   8.976
22094TIP3    H166167   6.082   4.980   8.903
22094TIP3    H266168   6.100   4.843   8.964
22095TIP3   OH266169   6.131   5.216   9.523
22095TIP3    H166170   6.137   5.119   9.518
22095TIP3    H266171   6.117   5.231   9.619
22096TIP3   OH266172   6.069   4.670   8.961
22096TIP3    H166173   6.141   4.640   9.019
22096TIP3    H266174   5.994   4.613   8.985
22097TIP3   OH266175   6.126   4.931   9.418
22097TIP3    H166176   6.167   4.842   9.430
22097TIP3    H266177   6.183   4.966   9.347
22098TIP3   OH266178   6.288   5.105   9.901
22098TIP3    H166179   6.377   5.129   9.866
22098TIP3    H266180   6.297   5.141   9.991
22099TIP3   OH266181   6.338   5.242  10.135
22099TIP3    H166182   6.289   5.290  10.202
22099TIP3    H266183   6.388   5.315  10.091
22100TIP3   OH266184   6.235   4.681   9.451
22100TIP3    H166185   6.284   4.665   9.535
22100TIP3    H266186   6.174   4.604   9.452
22101TIP3   OH266187   6.316   4.613   9.089
22101TIP3    H166188   6.355   4.543   9.033
22101TIP3    H266189   6.381   4.686   9.081
22102TIP3   OH266190   4.669   4.476   9.843
22102TIP3    H166191   4.631   4.410   9.782
22102TIP3    H266192   4.701   4.539   9.775
22103TIP3   OH266193   5.859   6.161   9.346
22103TIP3    H166194   5.916   6.133   9.272
22103TIP3    H266195   5.923   6.201   9.406
22104TIP3   OH266196   5.071   6.194  10.153
22104TIP3    H166197   5.010   6.239  10.212
22104TIP3    H266198   5.060   6.244  10.070
22105TIP3   OH266199   5.471   6.241   9.981
22105TIP3    H166200   5.409   6.259   9.907
22105TIP3    H266201   5.502   6.331  10.000
22106TIP3   OH266202   5.755   6.181  10.033
22106TIP3    H166203   5.679   6.204   9.977
22106TIP3    H266204   5.823   6.245  10.002
22107TIP3   OH266205   5.934   6.367   9.926
22107TIP3    H166206   5.947   6.458   9.891
22107TIP3    H266207   5.983   6.313   9.862
22108TIP3   OH266208   4.744   6.045  10.042
22108TIP3    H166209   4.744   6.016  10.134
22108TIP3    H266210   4.818   5.994  10.003
22109TIP3   OH266211   4.935   5.901   9.913
22109TIP3    H166212   4.959   5.818   9.958
22109TIP3    H266213   5.023   5.942   9.899
22110TIP3   OH266214   5.191   6.004   9.894
22110TIP3    H166215   5.265   5.960   9.848
22110TIP3    H266216   5.225   6.026   9.981
22111TIP3   OH266217   5.767   4.650   9.997
22111TIP3    H166218   5.767   4.580  10.063
22111TIP3    H266219   5.846   4.623   9.943
22112TIP3   OH266220   6.295   4.529   9.886
22112TIP3    H166221   6.339   4.586   9.819
22112TIP3    H266222   6.223   4.588   9.914
22113TIP3   OH266223   6.405   4.641   9.663
22113TIP3    H166224   6.478   4.590   9.624
22113TIP3    H266225   6.437   4.733   9.649
22114TIP3   OH266226   4.790   4.255   9.641
22114TIP3    H166227   4.841   4.293   9.566
22114TIP3    H266228   4.827   4.303   9.716
22115TIP3   OH266229   5.514   4.392   9.881
22115TIP3    H166230   5.566   4.461   9.836
22115TIP3    H266231   5.485   4.436   9.962
22116TIP3   OH266232   5.994   4.545   9.889
22116TIP3    H166233   6.024   4.521   9.800
22116TIP3    H266234   5.993   4.458   9.934
22117TIP3   OH266235   6.052   4.467   9.445
22117TIP3    H166236   5.966   4.511   9.458
22117TIP3    H266237   6.036   4.382   9.491
22118TIP3   OH266238   4.532   5.809   9.453
22118TIP3    H166239   4.448   5.778   9.414
22118TIP3    H266240   4.527   5.903   9.426
22119TIP3   OH266241   4.937   4.392   9.432
22119TIP3    H166242   4.986   4.330   9.374
22119TIP3    H266243   5.011   4.447   9.466
22120TIP3   OH266244   5.445   4.569   9.530
22120TIP3    H166245   5.501   4.519   9.591
22120TIP3    H266246   5.473   4.660   9.553
22121TIP3   OH266247   5.305   5.995   9.025
22121TIP3    H166248   5.395   6.016   8.991
22121TIP3    H266249   5.285   5.918   8.967
22122TIP3   OH266250   6.029   6.113   9.123
22122TIP3    H166251   6.022   6.015   9.110
22122TIP3    H266252   5.981   6.145   9.044
22123TIP3   OH266253   4.609   5.824   9.085
22123TIP3    H166254   4.617   5.863   9.173
22123TIP3    H266255   4.698   5.785   9.070
22124TIP3   OH266256   7.519   5.630   9.073
22124TIP3    H166257   7.489   5.721   9.053
22124TIP3    H266258   7.442   5.579   9.039
22125TIP3   OH266259   7.513   5.628   9.456
22125TIP3    H166260   7.544   5.608   9.546
22125TIP3    H266261   7.472   5.545   9.429
22126TIP3   OH266262   6.823   5.529   9.814
22126TIP3    H166263   6.841   5.503   9.905
22126TIP3    H266264   6.905   5.572   9.787
22127TIP3   OH266265   7.761   5.925   9.139
22127TIP3    H166266   7.752   5.851   9.201
22127TIP3    H266267   7.783   5.998   9.197
22128TIP3   OH266268   6.794   5.936   9.551
22128TIP3    H166269   6.783   5.839   9.551
22128TIP3    H266270   6.889   5.943   9.534
22129TIP3   OH266271   6.496   5.138   9.330
22129TIP3    H166272   6.446   5.220   9.347
22129TIP3    H266273   6.426   5.084   9.289
22130TIP3   OH266274   6.557   5.427   9.503
22130TIP3    H166275   6.605   5.349   9.538
22130TIP3    H266276   6.610   5.452   9.426
22131TIP3   OH266277   7.380   6.381   9.133
22131TIP3    H166278   7.445   6.326   9.083
22131TIP3    H266279   7.388   6.342   9.221
22132TIP3   OH266280   7.304   5.846   9.500
22132TIP3    H166281   7.345   5.771   9.455
22132TIP3    H266282   7.384   5.901   9.514
22133TIP3   OH266283   8.303   5.175   9.496
22133TIP3    H166284   8.355   5.246   9.534
22133TIP3    H266285   8.330   5.179   9.403
22134TIP3   OH266286   7.729   5.353   9.538
22134TIP3    H166287   7.772   5.266   9.553
22134TIP3    H266288   7.699   5.343   9.446
22135TIP3   OH266289   7.068   5.016   9.501
22135TIP3    H166290   7.046   5.088   9.438
22135TIP3    H266291   7.020   4.942   9.457
22136TIP3   OH266292   7.762   5.107   9.124
22136TIP3    H166293   7.836   5.091   9.188
22136TIP3    H266294   7.812   5.143   9.049
22137TIP3   OH266295   6.700   5.218   9.609
22137TIP3    H166296   6.783   5.196   9.655
22137TIP3    H266297   6.710   5.162   9.529
22138TIP3   OH266298   7.140   5.415   9.401
22138TIP3    H166299   7.234   5.390   9.412
22138TIP3    H266300   7.101   5.331   9.368
22139TIP3   OH266301   7.066   4.995   9.938
22139TIP3    H166302   7.005   5.034   9.871
22139TIP3    H266303   7.006   4.981  10.012
22140TIP3   OH266304   7.409   5.851   8.944
22140TIP3    H166305   7.368   5.831   8.859
22140TIP3    H266306   7.367   5.937   8.965
22141TIP3   OH266307   7.139   5.777   9.730
22141TIP3    H166308   7.117   5.857   9.779
22141TIP3    H266309   7.209   5.810   9.670
22142TIP3   OH266310   7.969   5.100   9.300
22142TIP3    H166311   7.949   5.063   9.386
22142TIP3    H266312   8.013   5.184   9.325
22143TIP3   OH266313   6.936   5.111   9.721
22143TIP3    H166314   6.999   5.184   9.740
22143TIP3    H266315   6.981   5.069   9.644
22144TIP3   OH266316   6.394   5.659   9.064
22144TIP3    H166317   6.349   5.685   8.982
22144TIP3    H266318   6.422   5.746   9.100
22145TIP3   OH266319   8.108   5.076   9.668
22145TIP3    H166320   8.024   5.095   9.623
22145TIP3    H266321   8.175   5.108   9.604
22146TIP3   OH266322   7.422   4.713   9.657
22146TIP3    H166323   7.401   4.619   9.675
22146TIP3    H266324   7.343   4.755   9.699
22147TIP3   OH266325   7.556   6.230   8.998
22147TIP3    H166326   7.593   6.143   8.967
22147TIP3    H266327   7.601   6.290   8.935
22148TIP3   OH266328   7.674   6.007   8.888
22148TIP3    H166329   7.635   5.930   8.844
22148TIP3    H266330   7.707   5.966   8.971
22149TIP3   OH266331   7.350   5.481   8.907
22149TIP3    H166332   7.269   5.532   8.887
22149TIP3    H266333   7.393   5.478   8.820
22150TIP3   OH266334   7.309   5.264   8.623
22150TIP3    H166335   7.376   5.317   8.669
22150TIP3    H266336   7.366   5.202   8.574
22151TIP3   OH266337   7.697   5.564   8.876
22151TIP3    H166338   7.642   5.589   8.954
22151TIP3    H266339   7.781   5.539   8.920
22152TIP3   OH266340   6.927   5.561   9.294
22152TIP3    H166341   6.886   5.504   9.226
22152TIP3    H266342   7.005   5.507   9.321
22153TIP3   OH266343   7.056   5.974   9.443
22153TIP3    H166344   7.034   5.939   9.355
22153TIP3    H266345   7.141   5.930   9.462
22154TIP3   OH266346   7.070   5.526   9.651
22154TIP3    H166347   7.097   5.511   9.558
22154TIP3    H266348   7.101   5.618   9.668
22155TIP3   OH266349   7.538   5.420   8.703
22155TIP3    H166350   7.596   5.481   8.754
22155TIP3    H266351   7.563   5.443   8.611
22156TIP3   OH266352   7.284   6.101   8.973
22156TIP3    H166353   7.337   6.171   9.013
22156TIP3    H266354   7.214   6.151   8.929
22157TIP3   OH266355   8.054   4.663   8.753
22157TIP3    H166356   7.971   4.689   8.798
22157TIP3    H266357   8.072   4.743   8.699
22158TIP3   OH266358   6.795   5.403   9.099
22158TIP3    H166359   6.730   5.452   9.043
22158TIP3    H266360   6.750   5.319   9.110
22159TIP3   OH266361   7.850   6.029   8.301
22159TIP3    H166362   7.858   6.125   8.285
22159TIP3    H266363   7.942   5.999   8.288
22160TIP3   OH266364   6.428   5.978   9.643
22160TIP3    H166365   6.523   5.986   9.628
22160TIP3    H266366   6.407   6.058   9.693
22161TIP3   OH266367   7.163   6.347   8.782
22161TIP3    H166368   7.115   6.330   8.700
22161TIP3    H266369   7.129   6.434   8.810
22162TIP3   OH266370   6.599   6.196   9.163
22162TIP3    H166371   6.645   6.186   9.250
22162TIP3    H266372   6.540   6.119   9.165
22163TIP3   OH266373   7.364   6.250   8.417
22163TIP3    H166374   7.422   6.179   8.384
22163TIP3    H266375   7.395   6.259   8.510
22164TIP3   OH266376   7.411   6.296   8.684
22164TIP3    H166377   7.322   6.307   8.727
22164TIP3    H266378   7.461   6.255   8.756
22165TIP3   OH266379   7.184   4.801   9.772
22165TIP3    H166380   7.095   4.767   9.750
22165TIP3    H266381   7.158   4.880   9.823
22166TIP3   OH266382   7.615   5.468   8.449
22166TIP3    H166383   7.579   5.444   8.362
22166TIP3    H266384   7.697   5.515   8.422
22167TIP3   OH266385   7.327   4.840   8.751
22167TIP3    H166386   7.290   4.838   8.841
22167TIP3    H266387   7.285   4.760   8.714
22168TIP3   OH266388   7.117   5.304   9.795
22168TIP3    H166389   7.089   5.340   9.880
22168TIP3    H266390   7.103   5.383   9.736
22169TIP3   OH266391   6.997   5.195   9.311
22169TIP3    H166392   6.903   5.171   9.328
22169TIP3    H266393   7.008   5.155   9.222
22170TIP3   OH266394   7.487   5.282   9.040
22170TIP3    H166395   7.434   5.353   8.997
22170TIP3    H266396   7.541   5.251   8.965
22171TIP3   OH266397   7.641   5.310   9.278
22171TIP3    H166398   7.581   5.340   9.208
22171TIP3    H266399   7.675   5.229   9.234
22172TIP3   OH266400   6.984   4.817   8.717
22172TIP3    H166401   6.970   4.816   8.814
22172TIP3    H266402   6.905   4.869   8.689
22173TIP3   OH266403   6.525   4.867   9.583
22173TIP3    H166404   6.600   4.896   9.638
22173TIP3    H266405   6.567   4.833   9.502
22174TIP3   OH266406   6.496   4.843   9.107
22174TIP3    H166407   6.539   4.881   9.028
22174TIP3    H266408   6.434   4.915   9.128
22175TIP3   OH266409   7.650   5.553   9.702
22175TIP3    H166410   7.684   5.480   9.645
22175TIP3    H266411   7.593   5.506   9.765
22176TIP3   OH266412   7.324   5.011   9.373
22176TIP3    H166413   7.240   5.013   9.423
22176TIP3    H266414   7.390   5.019   9.444
22177TIP3   OH266415   6.757   5.075   9.381
22177TIP3    H166416   6.663   5.084   9.354
22177TIP3    H266417   6.777   4.983   9.357
22178TIP3   OH266418   7.028   5.070   9.069
22178TIP3    H166419   7.120   5.088   9.043
22178TIP3    H266420   6.977   5.092   8.987
22179TIP3   OH266421   7.819   5.092   9.570
22179TIP3    H166422   7.797   5.099   9.666
22179TIP3    H266423   7.747   5.033   9.540
22180TIP3   OH266424   6.872   5.102   8.849
22180TIP3    H166425   6.799   5.058   8.801
22180TIP3    H266426   6.922   5.139   8.774
22181TIP3   OH266427   7.406   5.346   9.467
22181TIP3    H166428   7.482   5.308   9.420
22181TIP3    H266429   7.412   5.303   9.555
22182TIP3   OH266430   6.933   4.832   9.351
22182TIP3    H166431   6.894   4.754   9.397
22182TIP3    H266432   6.968   4.793   9.270
22183TIP3   OH266433   7.383   5.246   9.738
22183TIP3    H166434   7.288   5.265   9.754
22183TIP3    H266435   7.424   5.280   9.819
22184TIP3   OH266436   7.121   5.633   8.857
22184TIP3    H166437   7.048   5.568   8.844
22184TIP3    H266438   7.101   5.667   8.947
22185TIP3   OH266439   7.579   4.942   8.725
22185TIP3    H166440   7.482   4.926   8.727
22185TIP3    H266441   7.587   5.038   8.741
22186TIP3   OH266442   7.647   5.194   8.823
22186TIP3    H166443   7.744   5.202   8.835
22186TIP3    H266444   7.626   5.272   8.768
22187TIP3   OH266445   6.819   5.660   9.530
22187TIP3    H166446   6.851   5.631   9.442
22187TIP3    H266447   6.846   5.586   9.586
22188TIP3   OH266448   7.266   5.785   8.680
22188TIP3    H166449   7.218   5.871   8.684
22188TIP3    H266450   7.210   5.729   8.739
22189TIP3   OH266451   8.087   5.285   8.657
22189TIP3    H166452   8.026   5.240   8.594
22189TIP3    H266453   8.085   5.374   8.615
22190TIP3   OH266454   7.801   6.101   8.567
22190TIP3    H166455   7.760   6.034   8.625
22190TIP3    H266456   7.802   6.056   8.480
22191TIP3   OH266457   7.768   5.735   9.389
22191TIP3    H166458   7.679   5.699   9.409
22191TIP3    H266459   7.812   5.656   9.351
22192TIP3   OH266460   6.913   5.960   9.157
22192TIP3    H166461   6.912   6.043   9.104
22192TIP3    H266462   6.818   5.943   9.166
22193TIP3   OH266463   6.479   5.264   8.862
22193TIP3    H166464   6.522   5.350   8.881
22193TIP3    H266465   6.400   5.269   8.920
22194TIP3   OH266466   7.051   5.726   9.101
22194TIP3    H166467   7.015   5.816   9.118
22194TIP3    H266468   7.012   5.676   9.175
22195TIP3   OH266469   6.835   6.197   9.010
22195TIP3    H166470   6.747   6.207   9.054
22195TIP3    H266471   6.866   6.291   9.012
22196TIP3   OH266472   7.544   5.966   9.556
22196TIP3    H166473   7.556   5.964   9.652
22196TIP3    H266474   7.624   5.917   9.529
22197TIP3   OH266475   7.546   5.832   8.466
22197TIP3    H166476   7.596   5.806   8.546
22197TIP3    H266477   7.456   5.804   8.490
22198TIP3   OH266478   7.883   6.302   8.285
22198TIP3    H166479   7.908   6.367   8.218
22198TIP3    H266480   7.805   6.348   8.325
22199TIP3   OH266481   7.705   5.768   8.685
22199TIP3    H166482   7.694   5.700   8.754
22199TIP3    H266483   7.801   5.763   8.670
22200TIP3   OH266484   6.621   6.181   9.779
22200TIP3    H166485   6.662   6.096   9.798
22200TIP3    H266486   6.635   6.230   9.861
22201TIP3   OH266487   6.914   5.811   8.466
22201TIP3    H166488   6.923   5.718   8.437
22201TIP3    H266489   6.892   5.799   8.560
22202TIP3   OH266490   6.858   5.816   8.737
22202TIP3    H166491   6.927   5.791   8.799
22202TIP3    H266492   6.859   5.914   8.744
22203TIP3   OH266493   6.593   5.511   8.943
22203TIP3    H166494   6.525   5.555   8.999
22203TIP3    H266495   6.604   5.579   8.873
22204TIP3   OH266496   7.756   5.133   9.838
22204TIP3    H166497   7.807   5.190   9.898
22204TIP3    H266498   7.692   5.097   9.901
22205TIP3   OH266499   7.627   4.893   8.999
22205TIP3    H166500   7.606   4.916   8.906
22205TIP3    H266501   7.662   4.978   9.033
22206TIP3   OH266502   7.124   6.015   8.689
22206TIP3    H166503   7.035   6.039   8.723
22206TIP3    H266504   7.137   6.085   8.624
22207TIP3   OH266505   7.315   5.074   9.101
22207TIP3    H166506   7.376   5.148   9.083
22207TIP3    H266507   7.317   5.070   9.199
22208TIP3   OH266508   7.461   4.800   9.206
22208TIP3    H166509   7.442   4.879   9.259
22208TIP3    H266510   7.518   4.837   9.136
22209TIP3   OH266511   6.867   6.088   8.755
22209TIP3    H166512   6.837   6.157   8.692
22209TIP3    H266513   6.850   6.132   8.841
22210TIP3   OH266514   6.966   4.802   8.995
22210TIP3    H166515   6.963   4.894   9.028
22210TIP3    H266516   7.062   4.786   9.001
22211TIP3   OH266517   7.862   5.490   9.272
22211TIP3    H166518   7.783   5.434   9.281
22211TIP3    H266519   7.928   5.440   9.324
22212TIP3   OH266520   6.583   5.716   8.748
22212TIP3    H166521   6.646   5.790   8.755
22212TIP3    H266522   6.629   5.663   8.680
22213TIP3   OH266523   6.527   4.994   8.881
22213TIP3    H166524   6.527   5.091   8.879
22213TIP3    H266525   6.446   4.973   8.835
22214TIP3   OH266526   6.920   4.717   9.751
22214TIP3    H166527   6.886   4.684   9.666
22214TIP3    H266528   6.906   4.640   9.810
22215TIP3   OH266529   6.453   5.931   9.133
22215TIP3    H166530   6.385   5.961   9.195
22215TIP3    H266531   6.422   5.974   9.050
22216TIP3   OH266532   7.076   6.015   8.379
22216TIP3    H166533   7.019   5.943   8.416
22216TIP3    H266534   7.149   5.962   8.342
22217TIP3   OH266535   7.512   6.055   8.291
22217TIP3    H166536   7.553   5.987   8.347
22217TIP3    H266537   7.565   6.052   8.209
22218TIP3   OH266538   6.719   5.532   8.599
22218TIP3    H166539   6.775   5.500   8.672
22218TIP3    H266540   6.786   5.536   8.527
22219TIP3   OH266541   7.235   5.731   8.409
22219TIP3    H166542   7.232   5.743   8.506
22219TIP3    H266543   7.232   5.633   8.402
22220TIP3   OH266544   6.930   5.435   8.823
22220TIP3    H166545   6.898   5.393   8.904
22220TIP3    H266546   6.964   5.359   8.771
22221TIP3   OH266547   7.028   5.228   8.662
22221TIP3    H166548   7.001   5.234   8.568
22221TIP3    H266549   7.125   5.234   8.654
22222TIP3   OH266550   7.851   5.559   8.326
22222TIP3    H166551   7.830   5.513   8.243
22222TIP3    H266552   7.817   5.649   8.303
22223TIP3   OH266553   7.334   5.069   9.968
22223TIP3    H166554   7.345   5.094   9.875
22223TIP3    H266555   7.240   5.042   9.971
22224TIP3   OH266556   6.836   6.290   8.567
22224TIP3    H166557   6.931   6.287   8.546
22224TIP3    H266558   6.803   6.340   8.490
22225TIP3   OH266559   6.315   5.672   8.784
22225TIP3    H166560   6.409   5.694   8.770
22225TIP3    H266561   6.308   5.584   8.741
22226TIP3   OH266562   6.231   6.286   9.197
22226TIP3    H166563   6.163   6.226   9.160
22226TIP3    H266564   6.274   6.227   9.262
22227TIP3   OH266565   6.366   6.134   9.382
22227TIP3    H166566   6.348   6.063   9.446
22227TIP3    H266567   6.420   6.195   9.436
22228TIP3   OH266568   7.982   5.746   8.659
22228TIP3    H166569   8.051   5.807   8.628
22228TIP3    H266570   8.026   5.706   8.737
22229TIP3   OH266571   8.110   5.615   8.860
22229TIP3    H166572   8.047   5.573   8.922
22229TIP3    H266573   8.179   5.651   8.920
22230TIP3   OH266574   8.050   5.522   8.509
22230TIP3    H166575   7.979   5.523   8.441
22230TIP3    H266576   8.020   5.597   8.564
22231TIP3   OH266577   7.921   5.196   8.463
22231TIP3    H166578   7.879   5.234   8.385
22231TIP3    H266579   7.896   5.101   8.454
22232TIP3   OH266580   7.927   5.471   9.007
22232TIP3    H166581   7.933   5.374   9.000
22232TIP3    H266582   7.910   5.484   9.103
22233TIP3   OH266583   6.554   5.542   9.755
22233TIP3    H166584   6.547   5.514   9.661
22233TIP3    H266585   6.651   5.545   9.766
22234TIP3   OH266586   7.864   4.931   8.452
22234TIP3    H166587   7.937   4.895   8.506
22234TIP3    H266588   7.790   4.870   8.470
22235TIP3   OH266589   7.923   5.189   8.904
22235TIP3    H166590   7.965   5.101   8.919
22235TIP3    H266591   7.980   5.222   8.832
22236TIP3   OH266592   8.053   5.347   9.405
22236TIP3    H166593   8.142   5.364   9.366
22236TIP3    H266594   8.070   5.371   9.497
22237TIP3   OH266595   8.033   4.940   8.941
22237TIP3    H166596   8.080   4.921   9.025
22237TIP3    H266597   7.973   4.863   8.936
22238TIP3   OH266598   6.732   4.922   9.756
22238TIP3    H166599   6.793   4.847   9.769
22238TIP3    H266600   6.794   4.997   9.751
22239TIP3   OH266601   6.541   5.192   9.840
22239TIP3    H166602   6.587   5.196   9.754
22239TIP3    H266603   6.540   5.285   9.867
22240TIP3   OH266604   8.113   4.868   8.576
22240TIP3    H166605   8.151   4.800   8.518
22240TIP3    H266606   8.178   4.941   8.568
22241TIP3   OH266607   6.518   4.701   9.335
22241TIP3    H166608   6.424   4.697   9.361
22241TIP3    H266609   6.515   4.759   9.256
22242TIP3   OH266610   7.663   6.410   8.825
22242TIP3    H166611   7.719   6.389   8.747
22242TIP3    H266612   7.734   6.430   8.889
22243TIP3   OH266613   6.735   4.753  10.119
22243TIP3    H166614   6.704   4.742  10.210
22243TIP3    H266615   6.671   4.817  10.084
22244TIP3   OH266616   6.858   6.430   9.623
22244TIP3    H166617   6.843   6.489   9.698
22244TIP3    H266618   6.852   6.492   9.547
22245TIP3   OH266619   6.542   6.290   9.537
22245TIP3    H166620   6.570   6.267   9.628
22245TIP3    H266621   6.618   6.252   9.487
22246TIP3   OH266622   6.736   6.160   9.397
22246TIP3    H166623   6.755   6.079   9.449
22246TIP3    H266624   6.826   6.199   9.388
22247TIP3   OH266625   7.002   6.259   9.394
22247TIP3    H166626   7.037   6.168   9.403
22247TIP3    H266627   6.998   6.290   9.485
22248TIP3   OH266628   7.583   4.916   9.497
22248TIP3    H166629   7.536   4.844   9.543
22248TIP3    H266630   7.653   4.868   9.449
22249TIP3   OH266631   8.104   4.779   9.389
22249TIP3    H166632   8.140   4.833   9.314
22249TIP3    H266633   8.014   4.813   9.395
22250TIP3   OH266634   8.198   4.893   9.159
22250TIP3    H166635   8.270   4.842   9.117
22250TIP3    H266636   8.227   4.985   9.139
22251TIP3   OH266637   6.828   4.621   9.505
22251TIP3    H166638   6.735   4.589   9.506
22251TIP3    H266639   6.876   4.536   9.501
22252TIP3   OH266640   6.620   4.492   9.155
22252TIP3    H166641   6.645   4.549   9.080
22252TIP3    H266642   6.587   4.557   9.220
22253TIP3   OH266643   7.280   4.647   9.384
22253TIP3    H166644   7.330   4.708   9.328
22253TIP3    H266645   7.284   4.692   9.470
22254TIP3   OH266646   7.811   4.796   9.375
22254TIP3    H166647   7.824   4.776   9.282
22254TIP3    H266648   7.809   4.706   9.414
22255TIP3   OH266649   7.844   4.730   8.924
22255TIP3    H166650   7.761   4.781   8.937
22255TIP3    H266651   7.842   4.669   8.999
22256TIP3   OH266652   6.332   6.063   8.932
22256TIP3    H166653   6.246   6.030   8.900
22256TIP3    H266654   6.322   6.158   8.911
22257TIP3   OH266655   6.731   4.648   8.919
22257TIP3    H166656   6.779   4.588   8.859
22257TIP3    H266657   6.804   4.703   8.953
22258TIP3   OH266658   7.244   4.825   9.017
22258TIP3    H166659   7.304   4.778   9.077
22258TIP3    H266660   7.265   4.918   9.040
22259TIP3   OH266661   7.104   6.250   8.515
22259TIP3    H166662   7.191   6.274   8.477
22259TIP3    H266663   7.081   6.176   8.455
22260TIP3   OH266664   7.829   6.370   8.608
22260TIP3    H166665   7.823   6.272   8.594
22260TIP3    H266666   7.786   6.404   8.528
22261TIP3   OH266667   6.406   6.087   8.570
22261TIP3    H166668   6.405   6.114   8.663
22261TIP3    H266669   6.496   6.046   8.561
22262TIP3   OH266670   8.286   5.392   8.816
22262TIP3    H166671   8.240   5.476   8.832
22262TIP3    H266672   8.215   5.340   8.774
22263TIP3   OH266673   8.356   5.678   8.966
22263TIP3    H166674   8.402   5.599   9.001
22263TIP3    H266675   8.416   5.709   8.898
22264TIP3   OH266676   8.888   5.240   8.964
22264TIP3    H166677   8.883   5.324   8.916
22264TIP3    H266678   8.812   5.193   8.926
22265TIP3   OH266679   8.465   5.449   9.091
22265TIP3    H166680   8.560   5.443   9.113
22265TIP3    H266681   8.467   5.398   9.008
22266TIP3   OH266682   8.181   5.911   8.548
22266TIP3    H166683   8.141   5.929   8.461
22266TIP3    H266684   8.212   5.997   8.577
22267TIP3   OH266685   9.104   5.517   8.110
22267TIP3    H166686   9.168   5.571   8.158
22267TIP3    H266687   9.164   5.456   8.062
22268TIP3   OH266688   9.847   4.923   8.235
22268TIP3    H166689   9.765   4.935   8.289
22268TIP3    H266690   9.839   4.995   8.171
22269TIP3   OH266691   8.581   5.641   8.565
22269TIP3    H166692   8.511   5.691   8.519
22269TIP3    H266693   8.533   5.565   8.599
22270TIP3   OH266694   9.417   5.728   7.925
22270TIP3    H166695   9.381   5.691   7.842
22270TIP3    H266696   9.460   5.807   7.894
22271TIP3   OH266697   9.130   5.096   8.235
22271TIP3    H166698   9.092   5.092   8.325
22271TIP3    H266699   9.087   5.017   8.197
22272TIP3   OH266700   8.788   5.428   8.779
22272TIP3    H166701   8.697   5.413   8.809
22272TIP3    H266702   8.785   5.390   8.689
22273TIP3   OH266703   8.781   5.077   8.203
22273TIP3    H166704   8.766   5.069   8.299
22273TIP3    H266705   8.700   5.125   8.176
22274TIP3   OH266706   8.307   5.119   9.064
22274TIP3    H166707   8.382   5.143   9.121
22274TIP3    H266708   8.349   5.086   8.983
22275TIP3   OH266709   8.291   5.099   8.594
22275TIP3    H166710   8.336   5.136   8.515
22275TIP3    H266711   8.230   5.172   8.614
22276TIP3   OH266712   8.546   5.320   8.861
22276TIP3    H166713   8.455   5.325   8.826
22276TIP3    H266714   8.578   5.231   8.834
22277TIP3   OH266715   8.806   5.308   8.537
22277TIP3    H166716   8.895   5.335   8.510
22277TIP3    H266717   8.750   5.338   8.461
22278TIP3   OH266718   8.654   5.365   8.325
22278TIP3    H166719   8.586   5.316   8.275
22278TIP3    H266720   8.710   5.398   8.252
22279TIP3   OH266721   8.704   5.088   8.823
22279TIP3    H166722   8.679   5.009   8.876
22279TIP3    H266723   8.757   5.049   8.753
22280TIP3   OH266724   8.869   5.895   8.339
22280TIP3    H166725   8.821   5.809   8.331
22280TIP3    H266726   8.882   5.898   8.435
22281TIP3   OH266727   9.369   5.225   8.218
22281TIP3    H166728   9.276   5.193   8.213
22281TIP3    H266729   9.367   5.303   8.161
22282TIP3   OH266730   8.273   5.518   8.348
22282TIP3    H166731   8.319   5.603   8.367
22282TIP3    H266732   8.196   5.524   8.408
22283TIP3   OH266733   8.704   6.065   7.956
22283TIP3    H166734   8.720   5.976   7.918
22283TIP3    H266735   8.674   6.043   8.046
22284TIP3   OH266736   8.635   6.063   8.233
22284TIP3    H166737   8.689   5.993   8.275
22284TIP3    H266738   8.684   6.143   8.259
22285TIP3   OH266739   8.380   5.765   8.424
22285TIP3    H166740   8.315   5.809   8.481
22285TIP3    H266741   8.395   5.834   8.356
22286TIP3   OH266742   9.426   5.128   8.470
22286TIP3    H166743   9.408   5.163   8.379
22286TIP3    H266744   9.431   5.211   8.521
22287TIP3   OH266745   9.081   5.354   8.568
22287TIP3    H166746   9.174   5.376   8.556
22287TIP3    H266747   9.052   5.411   8.641
22288TIP3   OH266748   9.245   5.035   8.689
22288TIP3    H166749   9.281   5.097   8.753
22288TIP3    H266750   9.302   5.059   8.612
22289TIP3   OH266751   8.760   5.046   8.478
22289TIP3    H166752   8.759   5.139   8.511
22289TIP3    H266753   8.857   5.029   8.484
22290TIP3   OH266754   8.373   5.971   8.228
22290TIP3    H166755   8.445   6.036   8.232
22290TIP3    H266756   8.413   5.909   8.164
22291TIP3   OH266757   8.323   5.249   8.369
22291TIP3    H166758   8.323   5.346   8.365
22291TIP3    H266759   8.243   5.227   8.319
22292TIP3   OH266760   8.692   4.972   9.253
22292TIP3    H166761   8.688   4.953   9.158
22292TIP3    H266762   8.712   4.883   9.289
22293TIP3   OH266763   8.260   6.225   8.638
22293TIP3    H166764   8.175   6.199   8.677
22293TIP3    H266765   8.229   6.251   8.547
22294TIP3   OH266766   8.845   6.276   7.853
22294TIP3    H166767   8.801   6.197   7.891
22294TIP3    H266768   8.938   6.251   7.859
22295TIP3   OH266769   8.515   5.786   8.090
22295TIP3    H166770   8.569   5.747   8.160
22295TIP3    H266771   8.581   5.789   8.017
22296TIP3   OH266772   9.019   5.988   7.893
22296TIP3    H166773   9.012   5.996   7.990
22296TIP3    H266774   9.029   5.891   7.884
22297TIP3   OH266775   8.706   5.681   8.308
22297TIP3    H166776   8.681   5.647   8.397
22297TIP3    H266777   8.742   5.602   8.265
22298TIP3   OH266778   8.824   5.484   8.148
22298TIP3    H166779   8.797   5.489   8.054
22298TIP3    H266780   8.922   5.489   8.139
22299TIP3   OH266781   8.108   5.926   8.275
22299TIP3    H166782   8.202   5.949   8.255
22299TIP3    H266783   8.100   5.839   8.231
22300TIP3   OH266784   9.658   5.467   7.939
22300TIP3    H166785   9.649   5.485   7.845
22300TIP3    H266786   9.638   5.371   7.939
22301TIP3   OH266787   9.620   5.203   7.934
22301TIP3    H166788   9.709   5.171   7.958
22301TIP3    H266789   9.562   5.125   7.947
22302TIP3   OH266790   8.502   5.163   9.252
22302TIP3    H166791   8.560   5.084   9.259
22302TIP3    H266792   8.569   5.227   9.220
22303TIP3   OH266793   8.300   5.410   9.316
22303TIP3    H166794   8.333   5.400   9.224
22303TIP3    H266795   8.331   5.502   9.332
22304TIP3   OH266796   9.875   5.139   8.012
22304TIP3    H166797   9.928   5.074   7.963
22304TIP3    H266798   9.943   5.175   8.072
22305TIP3   OH266799   8.313   4.957   8.822
22305TIP3    H166800   8.219   4.954   8.846
22305TIP3    H266801   8.312   5.014   8.743
22306TIP3   OH266802   8.627   4.880   8.993
22306TIP3    H166803   8.534   4.848   8.995
22306TIP3    H266804   8.675   4.794   8.994
22307TIP3   OH266805   8.417   4.747   8.644
22307TIP3    H166806   8.444   4.803   8.568
22307TIP3    H266807   8.385   4.814   8.708
22308TIP3   OH266808   9.068   4.907   8.878
22308TIP3    H166809   9.124   4.951   8.812
22308TIP3    H266810   9.046   4.978   8.940
22309TIP3   OH266811   9.629   4.964   8.389
22309TIP3    H166812   9.551   5.019   8.407
22309TIP3    H266813   9.613   4.886   8.445
22310TIP3   OH266814   8.130   6.307   8.416
22310TIP3    H166815   8.044   6.271   8.385
22310TIP3    H266816   8.120   6.399   8.384
22311TIP3   OH266817   8.526   4.904   8.405
22311TIP3    H166818   8.574   4.842   8.346
22311TIP3    H266819   8.600   4.957   8.441
22312TIP3   OH266820   9.039   5.085   8.500
22312TIP3    H166821   9.098   5.043   8.565
22312TIP3    H266822   9.048   5.179   8.526
22313TIP3   OH266823   8.206   6.341   8.054
22313TIP3    H166824   8.199   6.370   8.146
22313TIP3    H266825   8.294   6.298   8.050
22314TIP3   OH266826   2.106   7.078   9.477
22314TIP3    H166827   2.110   7.171   9.448
22314TIP3    H266828   2.195   7.045   9.453
22315TIP3   OH266829   1.869   6.523   9.617
22315TIP3    H166830   1.837   6.473   9.540
22315TIP3    H266831   1.953   6.558   9.582
22316TIP3   OH266832   2.152   7.125   9.744
22316TIP3    H166833   2.061   7.106   9.774
22316TIP3    H266834   2.142   7.101   9.649
22317TIP3   OH266835   1.803   6.861   9.609
22317TIP3    H166836   1.857   6.824   9.682
22317TIP3    H266837   1.717   6.866   9.653
22318TIP3   OH266838   2.136   7.349   9.455
22318TIP3    H166839   2.147   7.395   9.369
22318TIP3    H266840   2.054   7.391   9.482
22319TIP3   OH266841   1.782   7.107   9.479
22319TIP3    H166842   1.804   7.015   9.499
22319TIP3    H266843   1.808   7.115   9.385
22320TIP3   OH266844   1.465   6.781   9.588
22320TIP3    H166845   1.447   6.785   9.684
22320TIP3    H266846   1.510   6.694   9.577
22321TIP3   OH266847   2.099   6.611   9.505
22321TIP3    H166848   2.086   6.559   9.423
22321TIP3    H266849   2.072   6.699   9.471
22322TIP3   OH266850   2.313   6.574   9.673
22322TIP3    H166851   2.234   6.588   9.616
22322TIP3    H266852   2.287   6.616   9.757
22323TIP3   OH266853   2.165   6.238   9.658
22323TIP3    H166854   2.141   6.303   9.591
22323TIP3    H266855   2.140   6.155   9.616
22324TIP3   OH266856   3.560   6.932   9.748
22324TIP3    H166857   3.526   7.021   9.766
22324TIP3    H266858   3.486   6.889   9.701
22325TIP3   OH266859   3.769   7.236   9.822
22325TIP3    H166860   3.811   7.156   9.855
22325TIP3    H266861   3.834   7.303   9.848
22326TIP3   OH266862   3.453   7.696   9.797
22326TIP3    H166863   3.494   7.609   9.784
22326TIP3    H266864   3.392   7.684   9.873
22327TIP3   OH266865   4.372   6.453  10.154
22327TIP3    H166866   4.371   6.541  10.193
22327TIP3    H266867   4.409   6.473  10.066
22328TIP3   OH266868   3.810   6.400   9.788
22328TIP3    H166869   3.883   6.391   9.854
22328TIP3    H266870   3.858   6.442   9.715
22329TIP3   OH266871   4.020   6.411   9.965
22329TIP3    H166872   4.020   6.398  10.062
22329TIP3    H266873   4.077   6.489   9.959
22330TIP3   OH266874   2.439   6.932   9.719
22330TIP3    H166875   2.382   6.971   9.651
22330TIP3    H266876   2.464   7.009   9.773
22331TIP3   OH266877   3.872   7.456   9.983
22331TIP3    H166878   3.777   7.453  10.006
22331TIP3    H266879   3.877   7.536   9.926
22332TIP3   OH266880   3.589   7.501   9.638
22332TIP3    H166881   3.660   7.442   9.669
22332TIP3    H266882   3.642   7.575   9.600
22333TIP3   OH266883   3.399   6.792   9.570
22333TIP3    H166884   3.313   6.831   9.541
22333TIP3    H266885   3.442   6.773   9.484
22334TIP3   OH266886   3.355   6.565   9.287
22334TIP3    H166887   3.425   6.619   9.328
22334TIP3    H266888   3.410   6.501   9.238
22335TIP3   OH266889   4.287   7.002  10.150
22335TIP3    H166890   4.218   7.068  10.164
22335TIP3    H266891   4.329   7.036  10.068
22336TIP3   OH266892   3.729   6.856   9.543
22336TIP3    H166893   3.687   6.883   9.628
22336TIP3    H266894   3.821   6.838   9.574
22337TIP3   OH266895   2.966   6.854   9.948
22337TIP3    H166896   2.916   6.804   9.880
22337TIP3    H266897   3.037   6.792   9.970
22338TIP3   OH266898   3.069   7.293  10.051
22338TIP3    H166899   3.084   7.218   9.993
22338TIP3    H266900   3.135   7.277  10.122
22339TIP3   OH266901   3.617   7.452  10.100
22339TIP3    H166902   3.523   7.474  10.095
22339TIP3    H266903   3.617   7.367  10.146
22340TIP3   OH266904   3.575   6.726   9.364
22340TIP3    H166905   3.639   6.778   9.419
22340TIP3    H266906   3.607   6.748   9.273
22341TIP3   OH266907   3.311   7.420   9.646
22341TIP3    H166908   3.401   7.457   9.651
22341TIP3    H266909   3.262   7.489   9.598
22342TIP3   OH266910   4.099   5.964   9.415
22342TIP3    H166911   4.018   5.990   9.464
22342TIP3    H266912   4.115   6.046   9.363
22343TIP3   OH266913   2.841   6.701   9.759
22343TIP3    H166914   2.774   6.743   9.700
22343TIP3    H266915   2.787   6.632   9.800
22344TIP3   OH266916   3.894   7.338   8.971
22344TIP3    H166917   3.909   7.435   8.953
22344TIP3    H266918   3.986   7.305   8.957
22345TIP3   OH266919   3.201   7.648   9.441
22345TIP3    H166920   3.165   7.623   9.354
22345TIP3    H266921   3.158   7.734   9.456
22346TIP3   OH266922   3.412   7.542   9.083
22346TIP3    H166923   3.473   7.474   9.050
22346TIP3    H266924   3.446   7.558   9.173
22347TIP3   OH266925   3.457   7.592   9.357
22347TIP3    H166926   3.369   7.605   9.398
22347TIP3    H266927   3.513   7.579   9.436
22348TIP3   OH266928   3.658   6.781   9.114
22348TIP3    H166929   3.623   6.752   9.027
22348TIP3    H266930   3.747   6.812   9.087
22349TIP3   OH266931   3.372   6.144   9.413
22349TIP3    H166932   3.338   6.138   9.504
22349TIP3    H266933   3.330   6.064   9.375
22350TIP3   OH266934   3.530   6.584   9.698
22350TIP3    H166935   3.484   6.660   9.657
22350TIP3    H266936   3.590   6.556   9.626
22351TIP3   OH266937   3.702   6.620   9.930
22351TIP3    H166938   3.632   6.643   9.866
22351TIP3    H266939   3.729   6.534   9.895
22352TIP3   OH266940   3.026   6.118   9.385
22352TIP3    H166941   3.011   6.110   9.481
22352TIP3    H266942   2.946   6.168   9.358
22353TIP3   OH266943   2.560   6.153   9.782
22353TIP3    H166944   2.585   6.189   9.694
22353TIP3    H266945   2.528   6.232   9.827
22354TIP3   OH266946   3.082   6.357   9.719
22354TIP3    H166947   3.165   6.398   9.692
22354TIP3    H266948   3.018   6.390   9.651
22355TIP3   OH266949   2.912   6.411   9.514
22355TIP3    H166950   2.839   6.363   9.470
22355TIP3    H266951   2.962   6.441   9.436
22356TIP3   OH266952   3.169   6.940   9.515
22356TIP3    H166953   3.098   6.873   9.502
22356TIP3    H266954   3.153   6.965   9.609
22357TIP3   OH266955   4.058   7.174  10.164
22357TIP3    H166956   4.102   7.227  10.094
22357TIP3    H266957   3.986   7.131  10.113
22358TIP3   OH266958   3.625   6.244   9.388
22358TIP3    H166959   3.528   6.230   9.390
22358TIP3    H266960   3.634   6.340   9.405
22359TIP3   OH266961   3.693   6.497   9.485
22359TIP3    H166962   3.789   6.500   9.502
22359TIP3    H266963   3.679   6.574   9.428
22360TIP3   OH266964   3.346   7.110   9.378
22360TIP3    H166965   3.279   7.183   9.365
22360TIP3    H266966   3.285   7.044   9.420
22361TIP3   OH266967   4.131   6.586   9.322
22361TIP3    H166968   4.068   6.544   9.259
22361TIP3    H266969   4.130   6.676   9.282
22362TIP3   OH266970   3.799   7.351   9.229
22362TIP3    H166971   3.877   7.326   9.280
22362TIP3    H266972   3.836   7.347   9.138
22363TIP3   OH266973   3.831   7.031  10.075
22363TIP3    H166974   3.741   7.002  10.058
22363TIP3    H266975   3.880   6.959  10.030
22364TIP3   OH266976   2.960   7.231   9.766
22364TIP3    H166977   2.963   7.317   9.720
22364TIP3    H266978   2.878   7.238   9.817
22365TIP3   OH266979   2.531   6.567   9.516
22365TIP3    H166980   2.578   6.649   9.540
22365TIP3    H266981   2.453   6.572   9.576
22366TIP3   OH266982   3.120   7.013   9.778
22366TIP3    H166983   3.075   7.099   9.768
22366TIP3    H266984   3.058   6.966   9.837
22367TIP3   OH266985   2.900   7.489   9.662
22367TIP3    H166986   2.830   7.517   9.725
22367TIP3    H266987   2.953   7.570   9.657
22368TIP3   OH266988   3.922   7.606   8.954
22368TIP3    H166989   3.990   7.672   8.930
22368TIP3    H266990   3.847   7.667   8.969
22369TIP3   OH266991   2.966   7.107   9.131
22369TIP3    H166992   2.965   7.015   9.100
22369TIP3    H266993   2.936   7.097   9.224
22370TIP3   OH266994   2.900   7.114   9.401
22370TIP3    H166995   2.969   7.091   9.464
22370TIP3    H266996   2.902   7.212   9.403
22371TIP3   OH266997   2.646   6.807   9.599
22371TIP3    H166998   2.573   6.842   9.656
22371TIP3    H266999   2.652   6.881   9.535
22372TIP3   OH267000   3.673   6.194   9.659
22372TIP3    H167001   3.655   6.218   9.566
22372TIP3    H267002   3.712   6.277   9.694
22373TIP3   OH267003   3.174   7.312   9.344
22373TIP3    H167004   3.085   7.332   9.381
22373TIP3    H267005   3.181   7.385   9.280
22374TIP3   OH267006   3.374   6.366   9.745
22374TIP3    H167007   3.436   6.440   9.725
22374TIP3    H267008   3.347   6.390   9.837
22375TIP3   OH267009   3.509   6.103   9.855
22375TIP3    H167010   3.506   6.175   9.920
22375TIP3    H267011   3.565   6.144   9.785
22376TIP3   OH267012   2.914   7.383   9.408
22376TIP3    H167013   2.886   7.454   9.345
22376TIP3    H267014   2.900   7.428   9.494
22377TIP3   OH267015   3.022   6.095   9.669
22377TIP3    H167016   3.016   6.189   9.696
22377TIP3    H267017   3.120   6.087   9.668
22378TIP3   OH267018   3.911   6.800   9.949
22378TIP3    H167019   3.839   6.734   9.955
22378TIP3    H267020   3.986   6.751   9.988
22379TIP3   OH267021   2.626   7.019   9.411
22379TIP3    H167022   2.693   7.090   9.416
22379TIP3    H267023   2.668   6.962   9.344
22380TIP3   OH267024   2.575   6.297   9.545
22380TIP3    H167025   2.575   6.395   9.537
22380TIP3    H267026   2.493   6.272   9.502
22381TIP3   OH267027   3.888   7.691   9.852
22381TIP3    H167028   3.849   7.759   9.795
22381TIP3    H267029   3.981   7.722   9.855
22382TIP3   OH267030   2.508   7.180   9.811
22382TIP3    H167031   2.430   7.221   9.849
22382TIP3    H267032   2.498   7.202   9.716
22383TIP3   OH267033   3.120   7.316   9.040
22383TIP3    H167034   3.067   7.241   9.076
22383TIP3    H267035   3.192   7.269   8.995
22384TIP3   OH267036   3.576   7.341   8.959
22384TIP3    H167037   3.665   7.354   8.995
22384TIP3    H267038   3.594   7.353   8.863
22385TIP3   OH267039   2.761   6.834   9.262
22385TIP3    H167040   2.815   6.799   9.335
22385TIP3    H267041   2.829   6.837   9.191
22386TIP3   OH267042   3.284   7.031   9.072
22386TIP3    H167043   3.251   7.040   9.162
22386TIP3    H267044   3.286   6.933   9.063
22387TIP3   OH267045   2.982   6.736   9.491
22387TIP3    H167046   2.940   6.694   9.568
22387TIP3    H267047   3.010   6.659   9.438
22388TIP3   OH267048   3.073   6.531   9.324
22388TIP3    H167049   3.046   6.535   9.230
22388TIP3    H267050   3.170   6.534   9.316
22389TIP3   OH267051   3.892   6.854   8.992
22389TIP3    H167052   3.875   6.813   8.905
22389TIP3    H267053   3.868   6.947   8.970
22390TIP3   OH267054   2.880   7.587   9.230
22390TIP3    H167055   2.976   7.593   9.213
22390TIP3    H267056   2.849   7.640   9.154
22391TIP3   OH267057   2.354   6.977   9.437
22391TIP3    H167058   2.450   6.998   9.432
22391TIP3    H267059   2.352   6.886   9.400
22392TIP3   OH267060   4.123   7.844   9.863
22392TIP3    H167061   4.198   7.885   9.908
22392TIP3    H267062   4.141   7.871   9.772
22393TIP3   OH267063   4.041   7.049   9.316
22393TIP3    H167064   4.110   7.114   9.290
22393TIP3    H267065   4.080   7.012   9.398
22394TIP3   OH267066   4.165   6.908   9.522
22394TIP3    H167067   4.099   6.887   9.590
22394TIP3    H267068   4.208   6.989   9.560
22395TIP3   OH267069   4.183   7.291   9.950
22395TIP3    H167070   4.223   7.234   9.883
22395TIP3    H267071   4.196   7.378   9.907
22396TIP3   OH267072   4.052   7.609  10.147
22396TIP3    H167073   3.968   7.652  10.162
22396TIP3    H267074   4.030   7.548  10.074
22397TIP3   OH267075   4.095   6.820   9.174
22397TIP3    H167076   4.023   6.826   9.108
22397TIP3    H267077   4.075   6.899   9.228
22398TIP3   OH267078   3.958   6.497   9.132
22398TIP3    H167079   3.931   6.538   9.048
22398TIP3    H267080   3.935   6.403   9.117
22399TIP3   OH267081   3.957   6.775   9.675
22399TIP3    H167082   3.984   6.682   9.669
22399TIP3    H267083   3.952   6.790   9.771
22400TIP3   OH267084   3.910   6.230   9.112
22400TIP3    H167085   3.986   6.200   9.165
22400TIP3    H267086   3.839   6.169   9.137
22401TIP3   OH267087   3.965   6.487   9.565
22401TIP3    H167088   4.009   6.400   9.577
22401TIP3    H267089   4.023   6.525   9.497
22402TIP3   OH267090   4.127   6.667  10.051
22402TIP3    H167091   4.216   6.690  10.014
22402TIP3    H267092   4.136   6.709  10.137
22403TIP3   OH267093   4.077   6.240   9.604
22403TIP3    H167094   4.129   6.223   9.686
22403TIP3    H267095   4.017   6.162   9.603
22404TIP3   OH267096   4.156   6.171   9.238
22404TIP3    H167097   4.199   6.103   9.183
22404TIP3    H267098   4.221   6.245   9.235
22405TIP3   OH267099   3.728   7.691   9.505
22405TIP3    H167100   3.776   7.680   9.420
22405TIP3    H267101   3.767   7.774   9.536
22406TIP3   OH267102   4.151   6.120  10.062
22406TIP3    H167103   4.194   6.158   9.982
22406TIP3    H267104   4.058   6.141  10.042
22407TIP3   OH267105   4.243   6.187   9.818
22407TIP3    H167106   4.317   6.139   9.775
22407TIP3    H267107   4.276   6.280   9.806
22408TIP3   OH267108   3.877   6.097   9.992
22408TIP3    H167109   3.868   6.110   9.897
22408TIP3    H267110   3.910   6.006   9.998
22409TIP3   OH267111   3.895   6.028   9.596
22409TIP3    H167112   3.808   6.070   9.605
22409TIP3    H267113   3.879   5.939   9.636
22410TIP3   OH267114   2.378   7.318   9.600
22410TIP3    H167115   2.296   7.297   9.551
22410TIP3    H267116   2.393   7.408   9.563
22411TIP3   OH267117   2.777   5.979   9.545
22411TIP3    H167118   2.826   5.898   9.523
22411TIP3    H267119   2.826   6.010   9.623
22412TIP3   OH267120   3.297   6.116   9.681
22412TIP3    H167121   3.370   6.090   9.740
22412TIP3    H267122   3.304   6.214   9.693
22413TIP3   OH267123   3.152   7.548   9.183
22413TIP3    H167124   3.237   7.574   9.141
22413TIP3    H267125   3.125   7.478   9.119
22414TIP3   OH267126   3.855   7.659   9.265
22414TIP3    H167127   3.852   7.567   9.235
22414TIP3    H267128   3.825   7.705   9.184
22415TIP3   OH267129   2.446   7.377   9.244
22415TIP3    H167130   2.464   7.458   9.294
22415TIP3    H267131   2.536   7.341   9.228
22416TIP3   OH267132   5.358   7.187   9.226
22416TIP3    H167133   5.331   7.278   9.203
22416TIP3    H267134   5.282   7.138   9.189
22417TIP3   OH267135   5.359   7.190   9.604
22417TIP3    H167136   5.381   7.163   9.696
22417TIP3    H267137   5.314   7.111   9.571
22418TIP3   OH267138   4.681   7.066   9.964
22418TIP3    H167139   4.673   7.083  10.059
22418TIP3    H267140   4.741   7.136   9.933
22419TIP3   OH267141   5.602   7.482   9.284
22419TIP3    H167142   5.591   7.419   9.356
22419TIP3    H267143   5.633   7.561   9.333
22420TIP3   OH267144   4.635   7.493   9.719
22420TIP3    H167145   4.627   7.395   9.715
22420TIP3    H267146   4.727   7.503   9.687
22421TIP3   OH267147   4.338   6.688   9.484
22421TIP3    H167148   4.299   6.776   9.506
22421TIP3    H267149   4.262   6.648   9.438
22422TIP3   OH267150   5.263   7.955   9.309
22422TIP3    H167151   5.302   7.886   9.251
22422TIP3    H267152   5.233   7.902   9.384
22423TIP3   OH267153   5.155   7.409   9.664
22423TIP3    H167154   5.187   7.336   9.609
22423TIP3    H267155   5.240   7.453   9.683
22424TIP3   OH267156   6.173   6.747   9.656
22424TIP3    H167157   6.157   6.842   9.669
22424TIP3    H267158   6.198   6.747   9.561
22425TIP3   OH267159   5.570   6.913   9.690
22425TIP3    H167160   5.614   6.827   9.701
22425TIP3    H267161   5.538   6.905   9.598
22426TIP3   OH267162   4.911   6.572   9.649
22426TIP3    H167163   4.889   6.645   9.588
22426TIP3    H267164   4.861   6.499   9.606
22427TIP3   OH267165   5.602   6.667   9.276
22427TIP3    H167166   5.676   6.652   9.339
22427TIP3    H267167   5.653   6.700   9.199
22428TIP3   OH267168   4.537   6.757   9.775
22428TIP3    H167169   4.629   6.746   9.802
22428TIP3    H267170   4.541   6.734   9.681
22429TIP3   OH267171   4.980   6.973   9.548
22429TIP3    H167172   5.073   6.947   9.562
22429TIP3    H267173   4.940   6.889   9.516
22430TIP3   OH267174   4.906   6.556  10.094
22430TIP3    H167175   4.853   6.593  10.019
22430TIP3    H267176   4.840   6.554  10.164
22431TIP3   OH267177   5.250   7.407   9.094
22431TIP3    H167178   5.209   7.391   9.008
22431TIP3    H267179   5.205   7.489   9.121
22432TIP3   OH267180   4.993   7.340   9.884
22432TIP3    H167181   4.927   7.410   9.884
22432TIP3    H267182   5.055   7.370   9.815
22433TIP3   OH267183   5.812   6.666   9.449
22433TIP3    H167184   5.809   6.622   9.534
22433TIP3    H267185   5.863   6.747   9.471
22434TIP3   OH267186   4.785   6.663   9.873
22434TIP3    H167187   4.843   6.741   9.888
22434TIP3    H267188   4.828   6.624   9.793
22435TIP3   OH267189   4.234   7.220   9.209
22435TIP3    H167190   4.198   7.252   9.125
22435TIP3    H267191   4.262   7.305   9.250
22436TIP3   OH267192   5.666   7.702   9.433
22436TIP3    H167193   5.584   7.704   9.488
22436TIP3    H267194   5.664   7.794   9.400
22437TIP3   OH267195   5.955   6.622   9.805
22437TIP3    H167196   5.872   6.659   9.772
22437TIP3    H267197   6.023   6.665   9.750
22438TIP3   OH267198   5.263   6.281   9.798
22438TIP3    H167199   5.238   6.187   9.792
22438TIP3    H267200   5.184   6.317   9.845
22439TIP3   OH267201   5.371   7.783   9.124
22439TIP3    H167202   5.421   7.699   9.107
22439TIP3    H267203   5.436   7.846   9.087
22440TIP3   OH267204   5.515   7.565   9.038
22440TIP3    H167205   5.477   7.486   8.997
22440TIP3    H267206   5.551   7.528   9.121
22441TIP3   OH267207   5.191   7.038   9.058
22441TIP3    H167208   5.110   7.090   9.039
22441TIP3    H267209   5.234   7.039   8.970
22442TIP3   OH267210   5.150   6.822   8.774
22442TIP3    H167211   5.216   6.875   8.821
22442TIP3    H267212   5.209   6.760   8.725
22443TIP3   OH267213   6.090   7.263   9.636
22443TIP3    H167214   6.014   7.324   9.642
22443TIP3    H267215   6.133   7.298   9.554
22444TIP3   OH267216   5.537   7.121   9.028
22444TIP3    H167217   5.482   7.146   9.106
22444TIP3    H267218   5.621   7.097   9.073
22445TIP3   OH267219   4.769   7.121   9.440
22445TIP3    H167220   4.726   7.063   9.374
22445TIP3    H267221   4.844   7.066   9.470
22446TIP3   OH267222   4.889   7.521   9.596
22446TIP3    H167223   4.869   7.493   9.505
22446TIP3    H267224   4.981   7.489   9.608
22447TIP3   OH267225   4.943   7.082   9.806
22447TIP3    H167226   4.941   7.075   9.708
22447TIP3    H267227   4.958   7.177   9.821
22448TIP3   OH267228   5.441   7.724   9.582
22448TIP3    H167229   5.398   7.802   9.622
22448TIP3    H267230   5.413   7.650   9.639
22449TIP3   OH267231   5.380   6.976   8.854
22449TIP3    H167232   5.436   7.039   8.904
22449TIP3    H267233   5.405   7.000   8.761
22450TIP3   OH267234   5.124   7.656   9.138
22450TIP3    H167235   5.201   7.715   9.138
22450TIP3    H267236   5.059   7.705   9.085
22451TIP3   OH267237   5.894   6.219   8.904
22451TIP3    H167238   5.812   6.239   8.953
22451TIP3    H267239   5.907   6.302   8.854
22452TIP3   OH267240   4.641   6.959   9.241
22452TIP3    H167241   4.575   7.009   9.189
22452TIP3    H267242   4.587   6.887   9.275
22453TIP3   OH267243   5.693   7.588   8.451
22453TIP3    H167244   5.699   7.685   8.435
22453TIP3    H267245   5.786   7.560   8.439
22454TIP3   OH267246   4.264   7.534   9.822
22454TIP3    H167247   4.338   7.507   9.765
22454TIP3    H267248   4.271   7.630   9.829
22455TIP3   OH267249   5.009   7.906   8.930
22455TIP3    H167250   4.960   7.880   8.849
22455TIP3    H267251   4.967   7.991   8.953
22456TIP3   OH267252   5.204   7.803   8.580
22456TIP3    H167253   5.263   7.737   8.538
22456TIP3    H267254   5.239   7.807   8.671
22457TIP3   OH267255   5.261   7.855   8.848
22457TIP3    H167256   5.168   7.866   8.880
22457TIP3    H267257   5.300   7.806   8.922
22458TIP3   OH267258   5.026   6.351   9.927
22458TIP3    H167259   4.936   6.321   9.902
22458TIP3    H267260   5.004   6.437   9.968
22459TIP3   OH267261   5.455   7.021   8.598
22459TIP3    H167262   5.420   6.999   8.509
22459TIP3    H267263   5.531   7.076   8.574
22460TIP3   OH267264   5.167   6.399   8.901
22460TIP3    H167265   5.132   6.397   8.992
22460TIP3    H267266   5.127   6.317   8.866
22461TIP3   OH267267   4.957   6.863   9.953
22461TIP3    H167268   4.898   6.900  10.020
22461TIP3    H267269   4.955   6.939   9.889
22462TIP3   OH267270   4.841   6.752   9.461
22462TIP3    H167271   4.746   6.732   9.478
22462TIP3    H267272   4.851   6.713   9.371
22463TIP3   OH267273   5.328   6.839   9.190
22463TIP3    H167274   5.275   6.911   9.148
22463TIP3    H267275   5.382   6.809   9.115
22464TIP3   OH267276   5.482   6.869   9.430
22464TIP3    H167277   5.424   6.901   9.358
22464TIP3    H267278   5.516   6.788   9.386
22465TIP3   OH267279   4.821   6.373   8.867
22465TIP3    H167280   4.811   6.374   8.964
22465TIP3    H267281   4.745   6.429   8.841
22466TIP3   OH267282   4.364   6.412   9.742
22466TIP3    H167283   4.433   6.455   9.796
22466TIP3    H267284   4.407   6.402   9.656
22467TIP3   OH267285   4.334   6.399   9.257
22467TIP3    H167286   4.378   6.438   9.178
22467TIP3    H267287   4.275   6.474   9.280
22468TIP3   OH267288   5.467   7.109   9.847
22468TIP3    H167289   5.517   7.045   9.790
22468TIP3    H267290   5.507   7.093   9.933
22469TIP3   OH267291   5.167   6.571   9.523
22469TIP3    H167292   5.081   6.572   9.570
22469TIP3    H267293   5.230   6.583   9.596
22470TIP3   OH267294   4.601   6.637   9.527
22470TIP3    H167295   4.505   6.647   9.504
22470TIP3    H267296   4.620   6.545   9.502
22471TIP3   OH267297   4.868   6.626   9.219
22471TIP3    H167298   4.960   6.645   9.195
22471TIP3    H267299   4.818   6.650   9.138
22472TIP3   OH267300   5.654   6.652   9.718
22472TIP3    H167301   5.622   6.660   9.811
22472TIP3    H267302   5.589   6.589   9.682
22473TIP3   OH267303   4.714   6.654   8.997
22473TIP3    H167304   4.641   6.615   8.946
22473TIP3    H267305   4.765   6.696   8.925
22474TIP3   OH267306   5.249   6.900   9.613
22474TIP3    H167307   5.322   6.871   9.556
22474TIP3    H267308   5.269   6.857   9.697
22475TIP3   OH267309   4.774   6.391   9.499
22475TIP3    H167310   4.739   6.311   9.543
22475TIP3    H267311   4.816   6.355   9.420
22476TIP3   OH267312   5.220   6.778   9.922
22476TIP3    H167313   5.127   6.811   9.919
22476TIP3    H267314   5.270   6.858   9.941
22477TIP3   OH267315   4.963   7.189   9.009
22477TIP3    H167316   4.888   7.127   8.995
22477TIP3    H267317   4.942   7.225   9.098
22478TIP3   OH267318   5.860   7.415   9.646
22478TIP3    H167319   5.890   7.469   9.569
22478TIP3    H267320   5.776   7.379   9.611
22479TIP3   OH267321   5.419   6.502   8.871
22479TIP3    H167322   5.322   6.486   8.876
22479TIP3    H267323   5.428   6.597   8.892
22480TIP3   OH267324   5.488   6.751   8.973
22480TIP3    H167325   5.584   6.760   8.986
22480TIP3    H267326   5.466   6.831   8.920
22481TIP3   OH267327   4.685   7.220   9.694
22481TIP3    H167328   4.694   7.198   9.599
22481TIP3    H267329   4.652   7.136   9.728
22482TIP3   OH267330   5.109   7.343   8.835
22482TIP3    H167331   5.063   7.429   8.838
22482TIP3    H267332   5.051   7.288   8.892
22483TIP3   OH267333   5.931   6.843   8.806
22483TIP3    H167334   5.869   6.798   8.744
22483TIP3    H267335   5.926   6.932   8.766
22484TIP3   OH267336   5.641   7.659   8.718
22484TIP3    H167337   5.601   7.591   8.774
22484TIP3    H267338   5.643   7.616   8.631
22485TIP3   OH267339   5.619   7.290   9.555
22485TIP3    H167340   5.526   7.260   9.562
22485TIP3    H267341   5.658   7.214   9.508
22486TIP3   OH267342   4.753   7.520   9.315
22486TIP3    H167343   4.750   7.604   9.264
22486TIP3    H267344   4.660   7.497   9.313
22487TIP3   OH267345   4.320   6.822   9.010
22487TIP3    H167346   4.366   6.906   9.030
22487TIP3    H267347   4.243   6.828   9.071
22488TIP3   OH267348   4.893   7.287   9.252
22488TIP3    H167349   4.858   7.376   9.269
22488TIP3    H267350   4.852   7.235   9.323
22489TIP3   OH267351   5.026   7.856   9.767
22489TIP3    H167352   5.050   7.932   9.711
22489TIP3    H267353   5.106   7.842   9.818
22490TIP3   OH267354   4.681   7.752   9.174
22490TIP3    H167355   4.583   7.751   9.163
22490TIP3    H267356   4.699   7.848   9.170
22491TIP3   OH267357   5.416   7.495   9.737
22491TIP3    H167358   5.439   7.476   9.829
22491TIP3    H267359   5.484   7.447   9.689
22492TIP3   OH267360   5.387   7.388   8.614
22492TIP3    H167361   5.435   7.363   8.697
22492TIP3    H267362   5.296   7.364   8.637
22493TIP3   OH267363   5.727   7.864   8.436
22493TIP3    H167364   5.763   7.938   8.384
22493TIP3    H267365   5.645   7.906   8.468
22494TIP3   OH267366   5.546   7.323   8.835
22494TIP3    H167367   5.537   7.256   8.906
22494TIP3    H267368   5.643   7.320   8.821
22495TIP3   OH267369   4.472   7.755   9.956
22495TIP3    H167370   4.469   7.664   9.923
22495TIP3    H267371   4.559   7.757   9.996
22496TIP3   OH267372   4.751   7.368   8.614
22496TIP3    H167373   4.763   7.275   8.585
22496TIP3    H267374   4.731   7.356   8.709
22497TIP3   OH267375   4.700   7.373   8.887
22497TIP3    H167376   4.768   7.352   8.952
22497TIP3    H267377   4.699   7.471   8.890
22498TIP3   OH267378   4.432   7.067   9.093
22498TIP3    H167379   4.367   7.112   9.152
22498TIP3    H267380   4.444   7.136   9.025
22499TIP3   OH267381   5.584   6.692   9.980
22499TIP3    H167382   5.654   6.742  10.022
22499TIP3    H267383   5.547   6.640  10.052
22500TIP3   OH267384   5.462   6.455   9.151
22500TIP3    H167385   5.448   6.476   9.056
22500TIP3    H267386   5.500   6.539   9.184
22501TIP3   OH267387   4.969   7.574   8.847
22501TIP3    H167388   4.882   7.606   8.876
22501TIP3    H267389   4.968   7.601   8.753
22502TIP3   OH267390   5.153   6.634   9.250
22502TIP3    H167391   5.215   6.707   9.231
22502TIP3    H267392   5.156   6.629   9.348
22503TIP3   OH267393   5.292   6.364   9.353
22503TIP3    H167394   5.276   6.444   9.407
22503TIP3    H267395   5.356   6.399   9.286
22504TIP3   OH267396   4.705   7.645   8.899
22504TIP3    H167397   4.676   7.714   8.835
22504TIP3    H267398   4.669   7.683   8.982
22505TIP3   OH267399   4.806   6.360   9.146
22505TIP3    H167400   4.804   6.453   9.177
22505TIP3    H267401   4.902   6.343   9.151
22506TIP3   OH267402   5.711   7.048   9.429
22506TIP3    H167403   5.635   6.988   9.439
22506TIP3    H267404   5.783   6.998   9.474
22507TIP3   OH267405   4.418   7.275   8.900
22507TIP3    H167406   4.472   7.356   8.911
22507TIP3    H267407   4.472   7.228   8.833
22508TIP3   OH267408   4.367   6.551   9.033
22508TIP3    H167409   4.373   6.649   9.031
22508TIP3    H267410   4.287   6.537   8.981
22509TIP3   OH267411   5.643   7.973   9.368
22509TIP3    H167412   5.610   8.029   9.295
22509TIP3    H267413   5.736   8.000   9.372
22510TIP3   OH267414   4.761   6.279   9.900
22510TIP3    H167415   4.728   6.247   9.813
22510TIP3    H267416   4.745   6.200   9.956
22511TIP3   OH267417   4.279   7.487   9.262
22511TIP3    H167418   4.249   7.548   9.330
22511TIP3    H267419   4.319   7.553   9.200
22512TIP3   OH267420   4.927   7.574   8.559
22512TIP3    H167421   4.866   7.498   8.571
22512TIP3    H267422   4.953   7.561   8.466
22513TIP3   OH267423   5.358   7.621   8.446
22513TIP3    H167424   5.394   7.545   8.496
22513TIP3    H267425   5.403   7.613   8.360
22514TIP3   OH267426   4.559   7.088   8.750
22514TIP3    H167427   4.617   7.062   8.823
22514TIP3    H267428   4.625   7.094   8.677
22515TIP3   OH267429   5.075   7.284   8.561
22515TIP3    H167430   5.070   7.301   8.657
22515TIP3    H267431   5.067   7.187   8.558
22516TIP3   OH267432   4.768   6.994   8.973
22516TIP3    H167433   4.737   6.955   9.057
22516TIP3    H267434   4.802   6.917   8.924
22517TIP3   OH267435   4.869   6.784   8.814
22517TIP3    H167436   4.841   6.792   8.720
22517TIP3    H267437   4.966   6.793   8.805
22518TIP3   OH267438   5.695   7.116   8.475
22518TIP3    H167439   5.669   7.072   8.392
22518TIP3    H267440   5.662   7.207   8.455
22519TIP3   OH267441   5.173   6.610  10.147
22519TIP3    H167442   5.198   6.657  10.064
22519TIP3    H267443   5.078   6.594  10.130
22520TIP3   OH267444   4.677   7.849   8.714
22520TIP3    H167445   4.773   7.846   8.696
22520TIP3    H267446   4.648   7.898   8.635
22521TIP3   OH267447   4.149   7.232   8.928
22521TIP3    H167448   4.244   7.255   8.919
22521TIP3    H267449   4.148   7.142   8.890
22522TIP3   OH267450   4.053   7.843   9.357
22522TIP3    H167451   4.003   7.774   9.309
22522TIP3    H267452   4.108   7.788   9.416
22523TIP3   OH267453   4.192   7.697   9.540
22523TIP3    H167454   4.201   7.612   9.584
22523TIP3    H267455   4.261   7.751   9.582
22524TIP3   OH267456   5.825   7.303   8.808
22524TIP3    H167457   5.892   7.369   8.780
22524TIP3    H267458   5.869   7.264   8.887
22525TIP3   OH267459   5.951   7.169   9.010
22525TIP3    H167460   5.885   7.129   9.071
22525TIP3    H267461   6.017   7.208   9.071
22526TIP3   OH267462   5.977   7.548   9.442
22526TIP3    H167463   6.056   7.518   9.396
22526TIP3    H267464   5.961   7.636   9.405
22527TIP3   OH267465   5.892   7.079   8.659
22527TIP3    H167466   5.821   7.081   8.591
22527TIP3    H267467   5.863   7.155   8.714
22528TIP3   OH267468   5.766   6.751   8.612
22528TIP3    H167469   5.717   6.794   8.541
22528TIP3    H267470   5.739   6.657   8.600
22529TIP3   OH267471   5.767   7.029   9.160
22529TIP3    H167472   5.774   6.932   9.154
22529TIP3    H267473   5.753   7.043   9.256
22530TIP3   OH267474   4.404   7.070   9.920
22530TIP3    H167475   4.369   7.093   9.830
22530TIP3    H267476   4.500   7.073   9.906
22531TIP3   OH267477   5.706   6.484   8.597
22531TIP3    H167478   5.778   6.454   8.657
22531TIP3    H267479   5.631   6.428   8.621
22532TIP3   OH267480   5.764   6.745   9.055
22532TIP3    H167481   5.805   6.656   9.069
22532TIP3    H267482   5.821   6.778   8.984
22533TIP3   OH267483   5.925   6.910   9.541
22533TIP3    H167484   6.011   6.939   9.502
22533TIP3    H267485   5.932   6.954   9.628
22534TIP3   OH267486   5.979   7.055   9.767
22534TIP3    H167487   5.931   7.102   9.836
22534TIP3    H267488   6.021   7.130   9.718
22535TIP3   OH267489   5.873   6.493   9.092
22535TIP3    H167490   5.920   6.476   9.177
22535TIP3    H267491   5.811   6.417   9.090
22536TIP3   OH267492   4.568   6.478   9.919
22536TIP3    H167493   4.637   6.409   9.919
22536TIP3    H267494   4.621   6.558   9.902
22537TIP3   OH267495   4.376   6.751   9.996
22537TIP3    H167496   4.428   6.754   9.912
22537TIP3    H267497   4.377   6.845  10.020
22538TIP3   OH267498   5.954   6.428   8.727
22538TIP3    H167499   5.992   6.358   8.671
22538TIP3    H267500   6.019   6.500   8.718
22539TIP3   OH267501   4.357   6.250   9.479
22539TIP3    H167502   4.265   6.256   9.510
22539TIP3    H267503   4.357   6.313   9.404
22540TIP3   OH267504   5.531   7.965   9.001
22540TIP3    H167505   5.561   7.939   8.911
22540TIP3    H267506   5.589   8.040   9.016
22541TIP3   OH267507   4.689   8.014   9.804
22541TIP3    H167508   4.622   8.073   9.839
22541TIP3    H267509   4.703   8.051   9.715
22542TIP3   OH267510   5.110   8.064   9.610
22542TIP3    H167511   5.046   8.071   9.536
22542TIP3    H267512   5.104   8.153   9.648
22543TIP3   OH267513   5.356   7.963   9.682
22543TIP3    H167514   5.269   7.996   9.652
22543TIP3    H267515   5.416   8.024   9.635
22544TIP3   OH267516   4.374   7.838   9.699
22544TIP3    H167517   4.418   7.830   9.786
22544TIP3    H267518   4.449   7.807   9.641
22545TIP3   OH267519   4.576   7.729   9.565
22545TIP3    H167520   4.602   7.640   9.593
22545TIP3    H267521   4.661   7.767   9.534
22546TIP3   OH267522   4.850   7.823   9.546
22546TIP3    H167523   4.878   7.731   9.531
22546TIP3    H267524   4.878   7.834   9.639
22547TIP3   OH267525   5.434   6.472   9.649
22547TIP3    H167526   5.378   6.403   9.689
22547TIP3    H267527   5.497   6.420   9.595
22548TIP3   OH267528   5.945   6.350   9.546
22548TIP3    H167529   5.981   6.399   9.469
22548TIP3    H267530   5.851   6.370   9.540
22549TIP3   OH267531   6.039   6.452   9.311
22549TIP3    H167532   6.111   6.400   9.269
22549TIP3    H267533   6.072   6.543   9.294
22550TIP3   OH267534   4.668   6.182   9.656
22550TIP3    H167535   4.575   6.151   9.655
22550TIP3    H267536   4.716   6.096   9.651
22551TIP3   OH267537   4.459   6.048   9.304
22551TIP3    H167538   4.488   6.105   9.231
22551TIP3    H267539   4.428   6.114   9.370
22552TIP3   OH267540   5.113   6.208   9.537
22552TIP3    H167541   5.169   6.251   9.470
22552TIP3    H267542   5.129   6.263   9.614
22553TIP3   OH267543   5.653   6.334   9.522
22553TIP3    H167544   5.662   6.325   9.426
22553TIP3    H267545   5.668   6.243   9.551
22554TIP3   OH267546   5.688   6.281   9.082
22554TIP3    H167547   5.601   6.323   9.095
22554TIP3    H267548   5.675   6.197   9.131
22555TIP3   OH267549   4.573   6.204   9.071
22555TIP3    H167550   4.622   6.146   9.010
22555TIP3    H267551   4.645   6.262   9.105
22556TIP3   OH267552   5.083   6.383   9.166
22556TIP3    H167553   5.146   6.338   9.225
22556TIP3    H267554   5.104   6.477   9.189
22557TIP3   OH267555   4.943   7.824   8.664
22557TIP3    H167556   5.033   7.838   8.629
22557TIP3    H267557   4.923   7.741   8.614
22558TIP3   OH267558   5.656   7.927   8.758
22558TIP3    H167559   5.655   7.829   8.745
22558TIP3    H267560   5.612   7.957   8.676
22559TIP3   OH267561   4.256   7.649   8.737
22559TIP3    H167562   4.271   7.674   8.830
22559TIP3    H267563   4.342   7.606   8.715
22560TIP3   OH267564   6.132   6.951   8.967
22560TIP3    H167565   6.085   7.034   8.984
22560TIP3    H267566   6.061   6.899   8.925
22561TIP3   OH267567   6.183   7.238   9.134
22561TIP3    H167568   6.233   7.164   9.173
22561TIP3    H267569   6.251   7.279   9.077
22562TIP3   OH267570   6.696   6.832   9.142
22562TIP3    H167571   6.679   6.901   9.074
22562TIP3    H267572   6.650   6.756   9.099
22563TIP3   OH267573   7.399   6.878   8.741
22563TIP3    H167574   7.379   6.892   8.835
22563TIP3    H267575   7.377   6.965   8.705
22564TIP3   OH267576   6.328   7.035   9.242
22564TIP3    H167577   6.411   7.014   9.290
22564TIP3    H267578   6.340   6.979   9.163
22565TIP3   OH267579   6.764   7.225   9.029
22565TIP3    H167580   6.854   7.199   9.054
22565TIP3    H267581   6.725   7.140   9.001
22566TIP3   OH267582   6.710   6.812   9.535
22566TIP3    H167583   6.639   6.859   9.488
22566TIP3    H267584   6.693   6.834   9.628
22567TIP3   OH267585   6.563   6.950   9.352
22567TIP3    H167586   6.614   7.031   9.372
22567TIP3    H267587   6.618   6.909   9.280
22568TIP3   OH267588   6.030   7.473   8.701
22568TIP3    H167589   5.985   7.497   8.618
22568TIP3    H267590   6.057   7.560   8.736
22569TIP3   OH267591   7.054   6.538   9.270
22569TIP3    H167592   7.053   6.445   9.299
22569TIP3    H267593   6.982   6.575   9.325
22570TIP3   OH267594   6.983   7.288   8.526
22570TIP3    H167595   6.905   7.346   8.518
22570TIP3    H267596   7.028   7.301   8.442
22571TIP3   OH267597   6.944   7.079   8.258
22571TIP3    H167598   7.006   7.123   8.317
22571TIP3    H267599   7.004   7.018   8.209
22572TIP3   OH267600   6.578   7.390   8.919
22572TIP3    H167601   6.526   7.330   8.861
22572TIP3    H267602   6.645   7.327   8.956
22573TIP3   OH267603   7.196   7.244   8.343
22573TIP3    H167604   7.239   7.325   8.375
22573TIP3    H267605   7.207   7.256   8.245
22574TIP3   OH267606   7.691   6.475   8.390
22574TIP3    H167607   7.610   6.494   8.442
22574TIP3    H267608   7.695   6.554   8.333
22575TIP3   OH267609   6.432   7.225   8.741
22575TIP3    H167610   6.365   7.268   8.684
22575TIP3    H267611   6.393   7.137   8.753
22576TIP3   OH267612   6.228   8.000   8.808
22576TIP3    H167613   6.235   8.022   8.903
22576TIP3    H267614   6.181   7.914   8.809
22577TIP3   OH267615   6.987   8.021   8.040
22577TIP3    H167616   7.061   7.963   8.015
22577TIP3    H267617   7.014   8.052   8.128
22578TIP3   OH267618   6.824   6.603   9.410
22578TIP3    H167619   6.737   6.570   9.380
22578TIP3    H267620   6.792   6.685   9.455
22579TIP3   OH267621   7.255   7.291   8.087
22579TIP3    H167622   7.211   7.264   8.004
22579TIP3    H267623   7.341   7.321   8.052
22580TIP3   OH267624   6.966   6.655   8.388
22580TIP3    H167625   6.931   6.652   8.479
22580TIP3    H267626   6.923   6.575   8.352
22581TIP3   OH267627   6.629   7.006   8.946
22581TIP3    H167628   6.536   6.979   8.965
22581TIP3    H267629   6.641   6.965   8.858
22582TIP3   OH267630   7.099   7.073   8.647
22582TIP3    H167631   7.051   7.152   8.611
22582TIP3    H267632   7.153   7.046   8.570
22583TIP3   OH267633   6.621   6.633   8.353
22583TIP3    H167634   6.609   6.629   8.450
22583TIP3    H267635   6.542   6.683   8.326
22584TIP3   OH267636   6.162   6.675   9.225
22584TIP3    H167637   6.239   6.707   9.276
22584TIP3    H267638   6.199   6.644   9.142
22585TIP3   OH267639   6.133   6.657   8.743
22585TIP3    H167640   6.177   6.696   8.664
22585TIP3    H267641   6.071   6.729   8.765
22586TIP3   OH267642   6.959   6.829   9.019
22586TIP3    H167643   6.872   6.824   9.063
22586TIP3    H267644   7.011   6.859   9.096
22587TIP3   OH267645   6.393   6.888   9.017
22587TIP3    H167646   6.298   6.897   8.989
22587TIP3    H267647   6.413   6.796   8.994
22588TIP3   OH267648   6.660   6.882   8.707
22588TIP3    H167649   6.754   6.896   8.686
22588TIP3    H267650   6.613   6.906   8.623
22589TIP3   OH267651   6.507   6.919   8.485
22589TIP3    H167652   6.435   6.873   8.439
22589TIP3    H267653   6.558   6.954   8.409
22590TIP3   OH267654   6.567   6.646   8.986
22590TIP3    H167655   6.530   6.568   9.033
22590TIP3    H267656   6.611   6.606   8.911
22591TIP3   OH267657   6.759   7.452   8.493
22591TIP3    H167658   6.689   7.384   8.481
22591TIP3    H267659   6.742   7.482   8.585
22592TIP3   OH267660   7.213   6.760   8.352
22592TIP3    H167661   7.116   6.742   8.360
22592TIP3    H267662   7.221   6.854   8.377
22593TIP3   OH267663   7.282   7.007   8.453
22593TIP3    H167664   7.380   7.005   8.465
22593TIP3    H267665   7.269   7.089   8.401
22594TIP3   OH267666   6.436   7.401   9.156
22594TIP3    H167667   6.475   7.424   9.070
22594TIP3    H267668   6.507   7.354   9.199
22595TIP3   OH267669   6.897   7.598   8.302
22595TIP3    H167670   6.862   7.688   8.318
22595TIP3    H267671   6.847   7.546   8.368
22596TIP3   OH267672   7.718   7.078   8.276
22596TIP3    H167673   7.645   7.042   8.220
22596TIP3    H267674   7.718   7.168   8.235
22597TIP3   OH267675   6.553   7.761   8.807
22597TIP3    H167676   6.592   7.842   8.766
22597TIP3    H267677   6.459   7.775   8.791
22598TIP3   OH267678   6.116   7.078   8.499
22598TIP3    H167679   6.158   7.164   8.518
22598TIP3    H267680   6.037   7.083   8.557
22599TIP3   OH267681   6.718   7.548   8.747
22599TIP3    H167682   6.665   7.629   8.759
22599TIP3    H267683   6.667   7.486   8.803
22600TIP3   OH267684   6.403   8.034   8.604
22600TIP3    H167685   6.333   8.025   8.672
22600TIP3    H267686   6.481   8.055   8.659
22601TIP3   OH267687   7.152   7.634   8.066
22601TIP3    H167688   7.202   7.648   8.148
22601TIP3    H267689   7.066   7.605   8.100
22602TIP3   OH267690   6.550   7.617   8.103
22602TIP3    H167691   6.556   7.524   8.074
22602TIP3    H267692   6.525   7.608   8.197
22603TIP3   OH267693   6.495   7.631   8.373
22603TIP3    H167694   6.567   7.606   8.432
22603TIP3    H267695   6.497   7.729   8.380
22604TIP3   OH267696   6.231   7.326   8.580
22604TIP3    H167697   6.162   7.368   8.636
22604TIP3    H267698   6.240   7.394   8.510
22605TIP3   OH267699   7.248   6.686   8.623
22605TIP3    H167700   7.231   6.714   8.531
22605TIP3    H267701   7.303   6.760   8.657
22606TIP3   OH267702   6.761   7.838   8.329
22606TIP3    H167703   6.670   7.866   8.349
22606TIP3    H267704   6.769   7.870   8.237
22607TIP3   OH267705   6.940   6.879   8.745
22607TIP3    H167706   7.001   6.952   8.719
22607TIP3    H267707   6.949   6.880   8.843
22608TIP3   OH267708   7.087   6.616   8.846
22608TIP3    H167709   7.071   6.698   8.898
22608TIP3    H267710   7.143   6.650   8.773
22609TIP3   OH267711   6.503   7.904   8.389
22609TIP3    H167712   6.475   7.968   8.319
22609TIP3    H267713   6.459   7.947   8.466
22610TIP3   OH267714   6.602   6.616   8.630
22610TIP3    H167715   6.599   6.707   8.666
22610TIP3    H267716   6.698   6.599   8.637
22611TIP3   OH267717   6.220   7.530   8.386
22611TIP3    H167718   6.280   7.607   8.389
22611TIP3    H267719   6.266   7.477   8.317
22612TIP3   OH267720   6.165   6.808   8.517
22612TIP3    H167721   6.164   6.906   8.515
22612TIP3    H267722   6.081   6.787   8.474
22613TIP3   OH267723   6.556   6.528   9.388
22613TIP3    H167724   6.522   6.495   9.302
22613TIP3    H267725   6.543   6.450   9.446
22614TIP3   OH267726   6.086   7.750   8.774
22614TIP3    H167727   6.012   7.774   8.832
22614TIP3    H267728   6.055   7.789   8.688
22615TIP3   OH267729   6.714   7.815   8.019
22615TIP3    H167730   6.654   7.743   8.049
22615TIP3    H267731   6.784   7.763   7.976
22616TIP3   OH267732   7.180   7.868   7.929
22616TIP3    H167733   7.172   7.776   7.960
22616TIP3    H267734   7.199   7.861   7.833
22617TIP3   OH267735   6.357   7.348   8.235
22617TIP3    H167736   6.411   7.313   8.308
22617TIP3    H267737   6.423   7.350   8.163
22618TIP3   OH267738   6.870   7.543   8.037
22618TIP3    H167739   6.861   7.557   8.133
22618TIP3    H267740   6.867   7.445   8.033
22619TIP3   OH267741   6.573   7.250   8.464
22619TIP3    H167742   6.534   7.206   8.541
22619TIP3    H267743   6.603   7.174   8.410
22620TIP3   OH267744   6.664   7.045   8.298
22620TIP3    H167745   6.636   7.048   8.204
22620TIP3    H267746   6.761   7.049   8.289
22621TIP3   OH267747   7.483   7.359   7.956
22621TIP3    H167748   7.455   7.325   7.869
22621TIP3    H267749   7.466   7.455   7.942
22622TIP3   OH267750   6.463   8.105   8.211
22622TIP3    H167751   6.559   8.104   8.189
22622TIP3    H267752   6.431   8.153   8.132
22623TIP3   OH267753   5.952   7.486   8.423
22623TIP3    H167754   6.047   7.507   8.407
22623TIP3    H267755   5.944   7.399   8.379
22624TIP3   OH267756   5.856   8.101   8.825
22624TIP3    H167757   5.787   8.044   8.783
22624TIP3    H267758   5.897   8.037   8.887
22625TIP3   OH267759   5.952   7.938   9.021
22625TIP3    H167760   5.957   7.859   9.077
22625TIP3    H267761   5.906   8.000   9.082
22626TIP3   OH267762   7.669   7.306   8.143
22626TIP3    H167763   7.600   7.315   8.074
22626TIP3    H267764   7.703   7.397   8.144
22627TIP3   OH267765   7.539   7.006   8.088
22627TIP3    H167766   7.498   7.043   8.009
22627TIP3    H267767   7.515   6.912   8.079
22628TIP3   OH267768   6.195   7.341   9.397
22628TIP3    H167769   6.192   7.320   9.302
22628TIP3    H267770   6.270   7.404   9.402
22629TIP3   OH267771   7.491   6.740   8.076
22629TIP3    H167772   7.562   6.707   8.134
22629TIP3    H267773   7.415   6.684   8.100
22630TIP3   OH267774   7.554   6.995   8.497
22630TIP3    H167775   7.590   6.908   8.523
22630TIP3    H267776   7.627   7.030   8.442
22631TIP3   OH267777   7.675   6.750   8.569
22631TIP3    H167778   7.733   6.728   8.643
22631TIP3    H267779   7.606   6.681   8.577
22632TIP3   OH267780   6.372   6.738   9.395
22632TIP3    H167781   6.437   6.666   9.404
22632TIP3    H267782   6.431   6.816   9.387
22633TIP3   OH267783   6.175   7.008   9.478
22633TIP3    H167784   6.220   7.010   9.391
22633TIP3    H267785   6.180   7.102   9.503
22634TIP3   OH267786   7.730   6.672   8.201
22634TIP3    H167787   7.767   6.602   8.144
22634TIP3    H267788   7.794   6.745   8.188
22635TIP3   OH267789   6.155   6.517   8.974
22635TIP3    H167790   6.061   6.511   8.998
22635TIP3    H267791   6.151   6.574   8.894
22636TIP3   OH267792   6.357   6.581   9.791
22636TIP3    H167793   6.309   6.590   9.874
22636TIP3    H267794   6.301   6.635   9.732
22637TIP3   OH267795   7.223   6.733   9.142
22637TIP3    H167796   7.151   6.672   9.168
22637TIP3    H267797   7.273   6.682   9.076
22638TIP3   OH267798   6.464   6.436   9.141
22638TIP3    H167799   6.372   6.404   9.143
22638TIP3    H267800   6.512   6.351   9.137
22639TIP3   OH267801   6.257   6.306   8.792
22639TIP3    H167802   6.282   6.364   8.718
22639TIP3    H267803   6.224   6.371   8.857
22640TIP3   OH267804   6.909   6.466   9.023
22640TIP3    H167805   6.967   6.518   8.964
22640TIP3    H267806   6.930   6.505   9.109
22641TIP3   OH267807   7.409   6.610   8.988
22641TIP3    H167808   7.433   6.577   8.901
22641TIP3    H267809   7.403   6.526   9.039
22642TIP3   OH267810   7.486   6.542   8.569
22642TIP3    H167811   7.395   6.578   8.577
22642TIP3    H267812   7.474   6.456   8.616
22643TIP3   OH267813   5.969   7.879   8.571
22643TIP3    H167814   5.883   7.848   8.535
22643TIP3    H267815   5.963   7.972   8.544
22644TIP3   OH267816   6.368   6.464   8.555
22644TIP3    H167817   6.416   6.402   8.496
22644TIP3    H267818   6.441   6.518   8.590
22645TIP3   OH267819   6.879   6.634   8.650
22645TIP3    H167820   6.937   6.585   8.711
22645TIP3    H267821   6.898   6.726   8.680
22646TIP3   OH267822   6.721   8.063   8.129
22646TIP3    H167823   6.788   8.107   8.076
22646TIP3    H267824   6.708   7.981   8.076
22647TIP3   OH267825   6.043   7.900   8.207
22647TIP3    H167826   6.039   7.932   8.298
22647TIP3    H267827   6.133   7.861   8.202
22648TIP3   OH267828   8.370   6.845   7.825
22648TIP3    H167829   8.391   6.911   7.893
22648TIP3    H267830   8.310   6.895   7.768
22649TIP3   OH267831   7.903   6.890   8.204
22649TIP3    H167832   7.958   6.930   8.134
22649TIP3    H267833   7.836   6.962   8.216
22650TIP3   OH267834   7.972   7.072   8.005
22650TIP3    H167835   7.974   7.169   8.002
22650TIP3    H267836   7.896   7.048   7.949
22651TIP3   OH267837   7.919   6.727   8.418
22651TIP3    H167838   7.826   6.731   8.448
22651TIP3    H267839   7.919   6.792   8.344
22652TIP3   OH267840   8.068   6.545   8.271
22652TIP3    H167841   8.077   6.591   8.185
22652TIP3    H267842   7.999   6.598   8.316
22653TIP3   OH267843   8.137   6.694   8.043
22653TIP3    H167844   8.204   6.654   7.983
22653TIP3    H267845   8.179   6.778   8.070
22654TIP3   OH267846   2.968   8.387   8.881
22654TIP3    H167847   3.008   8.412   8.966
22654TIP3    H267848   3.033   8.321   8.850
22655TIP3   OH267849   3.732   7.785   9.051
22655TIP3    H167850   3.653   7.809   9.103
22655TIP3    H267851   3.747   7.866   8.998
22656TIP3   OH267852   3.319   8.570   8.740
22656TIP3    H167853   3.274   8.542   8.658
22656TIP3    H267854   3.399   8.612   8.704
22657TIP3   OH267855   3.007   7.964   8.991
22657TIP3    H167856   2.993   7.967   9.088
22657TIP3    H267857   2.970   7.876   8.973
22658TIP3   OH267858   2.675   7.918   9.020
22658TIP3    H167859   2.653   7.933   9.113
22658TIP3    H267860   2.594   7.952   8.977
22659TIP3   OH267861   3.267   8.028   9.029
22659TIP3    H167862   3.170   8.030   9.008
22659TIP3    H267863   3.293   8.123   9.026
22660TIP3   OH267864   3.365   8.276   9.064
22660TIP3    H167865   3.452   8.277   9.111
22660TIP3    H267866   3.373   8.358   9.014
22661TIP3   OH267867   3.770   8.394   8.955
22661TIP3    H167868   3.703   8.350   8.897
22661TIP3    H267869   3.776   8.480   8.909
22662TIP3   OH267870   3.310   8.042   9.301
22662TIP3    H167871   3.277   8.025   9.210
22662TIP3    H267872   3.369   8.116   9.287
22663TIP3   OH267873   3.535   8.680   8.611
22663TIP3    H167874   3.517   8.630   8.529
22663TIP3    H267875   3.500   8.768   8.584
22664TIP3   OH267876   3.720   8.635   8.803
22664TIP3    H167877   3.665   8.630   8.721
22664TIP3    H267878   3.659   8.685   8.859
22665TIP3   OH267879   3.590   8.318   8.763
22665TIP3    H167880   3.555   8.340   8.675
22665TIP3    H267881   3.574   8.221   8.763
22666TIP3   OH267882   3.544   8.051   8.755
22666TIP3    H167883   3.627   8.017   8.797
22666TIP3    H267884   3.479   7.981   8.772
22667TIP3   OH267885   3.602   8.302   9.188
22667TIP3    H167886   3.644   8.220   9.223
22667TIP3    H267887   3.680   8.346   9.152
22668TIP3   OH267888   3.710   8.054   9.246
22668TIP3    H167889   3.762   8.041   9.327
22668TIP3    H267890   3.653   7.975   9.246
22669TIP3   OH267891   3.793   7.990   8.868
22669TIP3    H167892   3.853   7.918   8.843
22669TIP3    H267893   3.857   8.064   8.874
22670TIP3   OH267894   3.802   7.916   9.712
22670TIP3    H167895   3.838   7.961   9.632
22670TIP3    H267896   3.705   7.920   9.691
22671TIP3   OH267897   3.872   8.011   9.467
22671TIP3    H167898   3.943   7.956   9.426
22671TIP3    H267899   3.908   8.101   9.447
22672TIP3   OH267900   3.539   7.903   9.647
22672TIP3    H167901   3.491   7.881   9.567
22672TIP3    H267902   3.505   7.833   9.709
22673TIP3   OH267903   3.528   7.837   9.234
22673TIP3    H167904   3.441   7.879   9.239
22673TIP3    H267905   3.512   7.752   9.279
22674TIP3   OH267906   2.463   7.677   9.285
22674TIP3    H167907   2.480   7.655   9.192
22674TIP3    H267908   2.436   7.770   9.274
22675TIP3   OH267909   2.976   7.948   9.256
22675TIP3    H167910   2.959   7.905   9.342
22675TIP3    H267911   2.919   8.027   9.263
22676TIP3   OH267912   4.981   9.002   8.879
22676TIP3    H167913   4.946   9.085   8.839
22676TIP3    H267914   4.916   8.940   8.843
22677TIP3   OH267915   3.986   8.500   9.119
22677TIP3    H167916   3.922   8.565   9.153
22677TIP3    H267917   3.927   8.426   9.096
22678TIP3   OH267918   4.551   8.384   9.278
22678TIP3    H167919   4.529   8.453   9.212
22678TIP3    H267920   4.502   8.308   9.239
22679TIP3   OH267921   5.238   8.482   8.915
22679TIP3    H167922   5.310   8.476   8.981
22679TIP3    H267923   5.289   8.505   8.835
22680TIP3   OH267924   4.631   8.780   9.171
22680TIP3    H167925   4.724   8.749   9.181
22680TIP3    H267926   4.585   8.698   9.144
22681TIP3   OH267927   4.876   9.197   8.725
22681TIP3    H167928   4.807   9.186   8.656
22681TIP3    H267929   4.875   9.294   8.731
22682TIP3   OH267930   5.452   8.487   9.091
22682TIP3    H167931   5.446   8.405   9.142
22682TIP3    H267932   5.544   8.513   9.103
22683TIP3   OH267933   4.442   8.468   9.524
22683TIP3    H167934   4.437   8.556   9.481
22683TIP3    H267935   4.473   8.415   9.448
22684TIP3   OH267936   4.897   8.084   9.434
22684TIP3    H167937   4.878   7.989   9.451
22684TIP3    H267938   4.818   8.123   9.479
22685TIP3   OH267939   5.056   9.400   8.634
22685TIP3    H167940   5.060   9.308   8.604
22685TIP3    H267941   5.116   9.397   8.710
22686TIP3   OH267942   4.825   8.858   8.691
22686TIP3    H167943   4.744   8.907   8.670
22686TIP3    H267944   4.868   8.853   8.603
22687TIP3   OH267945   4.785   8.639   8.409
22687TIP3    H167946   4.855   8.689   8.455
22687TIP3    H267947   4.840   8.574   8.361
22688TIP3   OH267948   5.158   8.947   8.668
22688TIP3    H167949   5.097   8.967   8.742
22688TIP3    H267950   5.237   8.923   8.720
22689TIP3   OH267951   4.420   8.928   9.051
22689TIP3    H167952   4.365   8.875   8.989
22689TIP3    H267953   4.493   8.866   9.071
22690TIP3   OH267954   5.012   8.795   8.487
22690TIP3    H167955   5.069   8.855   8.539
22690TIP3    H267956   5.039   8.818   8.395
22691TIP3   OH267957   5.532   8.034   8.538
22691TIP3    H167958   5.446   8.051   8.584
22691TIP3    H267959   5.542   8.117   8.487
22692TIP3   OH267960   4.268   8.766   8.876
22692TIP3    H167961   4.198   8.808   8.822
22692TIP3    H267962   4.231   8.679   8.891
22693TIP3   OH267963   5.332   9.388   8.097
22693TIP3    H167964   5.329   9.482   8.069
22693TIP3    H267965   5.422   9.363   8.068
22694TIP3   OH267966   4.853   9.617   8.199
22694TIP3    H167967   4.906   9.545   8.157
22694TIP3    H267968   4.884   9.611   8.292
22695TIP3   OH267969   4.892   9.639   8.482
22695TIP3    H167970   4.804   9.613   8.511
22695TIP3    H267971   4.948   9.573   8.528
22696TIP3   OH267972   4.666   8.156   9.558
22696TIP3    H167973   4.570   8.141   9.545
22696TIP3    H267974   4.669   8.248   9.592
22697TIP3   OH267975   5.090   8.848   8.233
22697TIP3    H167976   5.057   8.814   8.148
22697TIP3    H267977   5.176   8.886   8.206
22698TIP3   OH267978   4.802   8.216   8.536
22698TIP3    H167979   4.768   8.211   8.627
22698TIP3    H267980   4.767   8.132   8.501
22699TIP3   OH267981   4.479   8.569   9.090
22699TIP3    H167982   4.387   8.540   9.108
22699TIP3    H267983   4.491   8.528   9.001
22700TIP3   OH267984   4.962   8.658   8.823
22700TIP3    H167985   4.908   8.726   8.776
22700TIP3    H267986   5.016   8.623   8.749
22701TIP3   OH267987   5.090   8.672   9.076
22701TIP3    H167988   5.049   8.707   8.994
22701TIP3    H267989   5.142   8.599   9.037
22702TIP3   OH267990   4.457   8.190   8.503
22702TIP3    H167991   4.451   8.185   8.600
22702TIP3    H267992   4.377   8.241   8.482
22703TIP3   OH267993   3.997   8.226   9.369
22703TIP3    H167994   4.076   8.256   9.420
22703TIP3    H267995   4.037   8.189   9.288
22704TIP3   OH267996   3.972   8.210   8.894
22704TIP3    H167997   4.020   8.246   8.817
22704TIP3    H267998   3.913   8.285   8.913
22705TIP3   OH267999   4.808   8.384   9.156
22705TIP3    H168000   4.722   8.381   9.203
22705TIP3    H268001   4.869   8.399   9.230
22706TIP3   OH268002   4.252   8.452   9.166
22706TIP3    H168003   4.155   8.462   9.150
22706TIP3    H268004   4.265   8.356   9.153
22707TIP3   OH268005   4.506   8.442   8.853
22707TIP3    H168006   4.600   8.454   8.827
22707TIP3    H268007   4.457   8.462   8.770
22708TIP3   OH268008   5.286   8.438   9.384
22708TIP3    H168009   5.212   8.476   9.431
22708TIP3    H268010   5.237   8.380   9.322
22709TIP3   OH268011   4.347   8.473   8.634
22709TIP3    H168012   4.275   8.430   8.584
22709TIP3    H268013   4.398   8.512   8.560
22710TIP3   OH268014   4.883   8.700   9.254
22710TIP3    H168015   4.961   8.696   9.193
22710TIP3    H268016   4.919   8.663   9.335
22711TIP3   OH268017   4.412   8.196   9.136
22711TIP3    H168018   4.380   8.117   9.183
22711TIP3    H268019   4.455   8.157   9.059
22712TIP3   OH268020   4.880   8.614   9.575
22712TIP3    H168021   4.803   8.662   9.536
22712TIP3    H268022   4.927   8.686   9.620
22713TIP3   OH268023   5.053   8.317   8.513
22713TIP3    H168024   4.957   8.295   8.517
22713TIP3    H268025   5.056   8.412   8.534
22714TIP3   OH268026   5.118   8.567   8.611
22714TIP3    H168027   5.215   8.561   8.619
22714TIP3    H268028   5.105   8.644   8.553
22715TIP3   OH268029   5.561   8.635   8.440
22715TIP3    H168030   5.496   8.604   8.373
22715TIP3    H268031   5.565   8.729   8.415
22716TIP3   OH268032   5.283   9.451   8.367
22716TIP3    H168033   5.233   9.371   8.388
22716TIP3    H268034   5.296   9.441   8.271
22717TIP3   OH268035   3.954   8.635   8.644
22717TIP3    H168036   4.000   8.720   8.664
22717TIP3    H268037   3.878   8.641   8.705
22718TIP3   OH268038   4.548   9.138   8.915
22718TIP3    H168039   4.475   9.200   8.902
22718TIP3    H268040   4.503   9.062   8.957
22719TIP3   OH268041   5.013   9.203   8.257
22719TIP3    H168042   5.070   9.178   8.333
22719TIP3    H268043   4.926   9.186   8.296
22720TIP3   OH268044   5.327   9.654   8.045
22720TIP3    H168045   5.310   9.709   7.966
22720TIP3    H268046   5.283   9.709   8.113
22721TIP3   OH268047   5.184   9.150   8.473
22721TIP3    H168048   5.164   9.081   8.539
22721TIP3    H268049   5.281   9.141   8.467
22722TIP3   OH268050   4.388   9.179   8.252
22722TIP3    H168051   4.395   9.087   8.219
22722TIP3    H268052   4.393   9.163   8.348
22723TIP3   OH268053   4.340   9.200   8.537
22723TIP3    H168054   4.405   9.135   8.568
22723TIP3    H268055   4.399   9.275   8.522
22724TIP3   OH268056   4.055   8.885   8.734
22724TIP3    H168057   4.027   8.954   8.796
22724TIP3    H268058   4.078   8.941   8.657
22725TIP3   OH268059   5.096   8.269   8.789
22725TIP3    H168060   5.081   8.287   8.694
22725TIP3    H268061   5.132   8.354   8.821
22726TIP3   OH268062   4.792   8.449   8.888
22726TIP3    H168063   4.854   8.523   8.870
22726TIP3    H268064   4.795   8.444   8.985
22727TIP3   OH268065   4.936   8.179   8.998
22727TIP3    H168066   4.910   8.262   9.042
22727TIP3    H268067   4.994   8.212   8.926
22728TIP3   OH268068   4.444   8.175   8.779
22728TIP3    H168069   4.444   8.265   8.816
22728TIP3    H268070   4.539   8.154   8.788
22729TIP3   OH268071   4.066   9.087   8.540
22729TIP3    H168072   4.131   9.159   8.550
22729TIP3    H268073   4.111   9.033   8.471
22730TIP3   OH268074   4.006   8.366   8.672
22730TIP3    H168075   4.007   8.463   8.662
22730TIP3    H268076   3.930   8.340   8.618
22731TIP3   OH268077   4.398   8.080   9.543
22731TIP3    H168078   4.373   8.045   9.454
22731TIP3    H268079   4.380   8.003   9.599
22732TIP3   OH268080   4.550   9.388   8.171
22732TIP3    H168081   4.496   9.317   8.212
22732TIP3    H268082   4.629   9.339   8.146
22733TIP3   OH268083   4.991   9.422   8.073
22733TIP3    H168084   5.032   9.357   8.133
22733TIP3    H268085   5.049   9.419   7.994
22734TIP3   OH268086   4.200   8.901   8.392
22734TIP3    H168087   4.255   8.865   8.465
22734TIP3    H268088   4.267   8.905   8.321
22735TIP3   OH268089   4.366   8.799   8.588
22735TIP3    H168090   4.371   8.775   8.682
22735TIP3    H268091   4.423   8.731   8.547
22736TIP3   OH268092   4.507   8.601   8.450
22736TIP3    H168093   4.482   8.604   8.356
22736TIP3    H268094   4.605   8.605   8.443
22737TIP3   OH268095   5.325   8.933   8.112
22737TIP3    H168096   5.307   8.883   8.029
22737TIP3    H268097   5.288   9.020   8.085
22738TIP3   OH268098   4.765   8.387   9.702
22738TIP3    H168099   4.815   8.456   9.654
22738TIP3    H268100   4.741   8.434   9.783
22739TIP3   OH268101   4.336   9.685   8.348
22739TIP3    H168102   4.423   9.660   8.312
22739TIP3    H268103   4.281   9.693   8.268
22740TIP3   OH268104   3.791   9.047   8.501
22740TIP3    H168105   3.878   9.067   8.539
22740TIP3    H268106   3.793   8.949   8.493
22741TIP3   OH268107   5.468   9.121   8.466
22741TIP3    H168108   5.548   9.140   8.415
22741TIP3    H268109   5.504   9.082   8.548
22742TIP3   OH268110   5.525   8.900   8.292
22742TIP3    H168111   5.455   8.896   8.223
22742TIP3    H268112   5.482   8.959   8.356
22743TIP3   OH268113   5.387   8.570   8.240
22743TIP3    H168114   5.346   8.595   8.157
22743TIP3    H268115   5.369   8.473   8.240
22744TIP3   OH268116   5.464   8.797   8.711
22744TIP3    H168117   5.427   8.708   8.722
22744TIP3    H268118   5.425   8.847   8.785
22745TIP3   OH268119   5.342   8.303   8.235
22745TIP3    H168120   5.415   8.268   8.290
22745TIP3    H268121   5.267   8.245   8.257
22746TIP3   OH268122   5.392   8.532   8.677
22746TIP3    H168123   5.432   8.444   8.694
22746TIP3    H268124   5.453   8.563   8.606
22747TIP3   OH268125   5.511   8.293   8.727
22747TIP3    H168126   5.559   8.276   8.810
22747TIP3    H268127   5.447   8.218   8.726
22748TIP3   OH268128   4.211   8.285   9.523
22748TIP3    H168129   4.273   8.212   9.544
22748TIP3    H268130   4.260   8.361   9.558
22749TIP3   OH268131   5.589   8.244   8.361
22749TIP3    H168132   5.626   8.171   8.306
22749TIP3    H268133   5.657   8.313   8.353
22750TIP3   OH268134   3.998   8.080   9.130
22750TIP3    H168135   3.903   8.074   9.148
22750TIP3    H268136   3.999   8.125   9.043
22751TIP3   OH268137   5.067   8.283   9.296
22751TIP3    H168138   5.009   8.214   9.333
22751TIP3    H268139   5.114   8.236   9.226
22752TIP3   OH268140   5.566   8.198   9.213
22752TIP3    H168141   5.612   8.220   9.129
22752TIP3    H268142   5.474   8.184   9.182
22753TIP3   OH268143   5.667   8.252   8.959
22753TIP3    H168144   5.741   8.201   8.921
22753TIP3    H268145   5.696   8.341   8.928
22754TIP3   OH268146   4.314   7.978   9.296
22754TIP3    H168147   4.219   7.955   9.295
22754TIP3    H268148   4.348   7.901   9.243
22755TIP3   OH268149   4.047   7.867   8.916
22755TIP3    H168150   4.114   7.909   8.861
22755TIP3    H268151   4.069   7.902   9.004
22756TIP3   OH268152   4.750   8.030   9.168
22756TIP3    H168153   4.813   8.079   9.114
22756TIP3    H268154   4.769   8.061   9.257
22757TIP3   OH268155   5.297   8.171   9.147
22757TIP3    H168156   5.280   8.131   9.060
22757TIP3    H268157   5.281   8.094   9.207
22758TIP3   OH268158   5.325   8.092   8.721
22758TIP3    H168159   5.236   8.131   8.725
22758TIP3    H268160   5.310   8.006   8.766
22759TIP3   OH268161   4.213   8.030   8.694
22759TIP3    H168162   4.261   7.961   8.645
22759TIP3    H268163   4.286   8.079   8.737
22760TIP3   OH268164   4.721   8.199   8.801
22760TIP3    H168165   4.774   8.145   8.861
22760TIP3    H268166   4.748   8.289   8.829
22761TIP3   OH268167   4.595   9.632   8.286
22761TIP3    H168168   4.684   9.637   8.244
22761TIP3    H268169   4.572   9.540   8.259
22762TIP3   OH268170   5.775   8.803   8.559
22762TIP3    H168171   5.757   8.838   8.649
22762TIP3    H268172   5.714   8.728   8.556
22763TIP3   OH268173   6.569   8.484   7.974
22763TIP3    H168174   6.615   8.491   8.061
22763TIP3    H268175   6.539   8.390   7.977
22764TIP3   OH268176   6.239   8.432   7.985
22764TIP3    H168177   6.237   8.439   8.083
22764TIP3    H268178   6.170   8.497   7.961
22765TIP3   OH268179   5.771   8.456   8.816
22765TIP3    H168180   5.858   8.499   8.826
22765TIP3    H268181   5.786   8.407   8.734
22766TIP3   OH268182   5.778   8.473   8.380
22766TIP3    H168183   5.814   8.512   8.298
22766TIP3    H268184   5.711   8.540   8.403
22767TIP3   OH268185   6.129   8.693   8.118
22767TIP3    H168186   6.070   8.671   8.044
22767TIP3    H268187   6.187   8.760   8.078
22768TIP3   OH268188   5.746   8.887   8.132
22768TIP3    H168189   5.806   8.944   8.180
22768TIP3    H268190   5.666   8.888   8.190
22769TIP3   OH268191   6.245   8.436   8.262
22769TIP3    H168192   6.242   8.533   8.267
22769TIP3    H268193   6.340   8.417   8.272
22770TIP3   OH268194   5.793   8.615   8.151
22770TIP3    H168195   5.800   8.712   8.146
22770TIP3    H268196   5.709   8.598   8.108
22771TIP3   OH268197   5.988   9.167   7.851
22771TIP3    H168198   6.040   9.119   7.917
22771TIP3    H268199   6.050   9.158   7.775
22772TIP3   OH268200   6.293   8.855   7.932
22772TIP3    H168201   6.252   8.847   7.843
22772TIP3    H268202   6.384   8.830   7.913
22773TIP3   OH268203   5.587   9.314   8.011
22773TIP3    H168204   5.653   9.324   8.081
22773TIP3    H268205   5.590   9.218   7.990
22774TIP3   OH268206   5.781   8.306   8.589
22774TIP3    H168207   5.685   8.304   8.607
22774TIP3    H268208   5.788   8.372   8.517
22775TIP3   OH268209   6.087   8.229   8.714
22775TIP3    H168210   5.993   8.205   8.728
22775TIP3    H268211   6.132   8.145   8.735
22776TIP3   OH268212   5.896   8.112   8.423
22776TIP3    H168213   5.921   8.173   8.351
22776TIP3    H268214   5.862   8.175   8.490
22777TIP3   OH268215   6.006   8.278   8.191
22777TIP3    H168216   6.053   8.218   8.131
22777TIP3    H268217   6.079   8.332   8.226
22778TIP3   OH268218   4.984  10.099   7.906
22778TIP3    H168219   5.038  10.031   7.864
22778TIP3    H268220   4.893  10.064   7.896
22779TIP3   OH268221   4.962   9.878   8.329
22779TIP3    H168222   4.893   9.943   8.310
22779TIP3    H268223   4.907   9.808   8.369
   9.80000   9.23953   8.00167   0.00000   0.00000  -3.26667   0.00000  -3.26667  -4.61976
