Title
  201
    1GLY      N    1   5.752   3.602   3.282  0.6328  0.1794 -0.6211
    1GLY    HT1    2   5.783   3.575   3.377 -0.9553 -3.3851 -0.9360
    1GLY    HT2    3   5.807   3.687   3.256 -0.1053  0.8612 -0.0115
    1GLY    HT3    4   5.790   3.520   3.230  0.2896  0.3009 -1.0753
    1GLY     CA    5   5.605   3.610   3.262 -0.5209 -0.3365  0.0303
    1GLY    HA1    6   5.560   3.682   3.328 -0.4176  0.3308 -0.6139
    1GLY    HA2    7   5.576   3.507   3.279  2.7028 -1.3890 -0.2053
    1GLY      C    8   5.555   3.657   3.133  0.3273 -0.0761  0.2014
    1GLY      O    9   5.634   3.658   3.036 -0.2807  0.1706 -0.0916
    2PRO      N   10   5.426   3.678   3.108  0.0530  0.0084  0.1156
    2PRO     CD   11   5.318   3.643   3.196  0.5537  0.2871  0.1472
    2PRO    HD1   12   5.299   3.735   3.256 -0.9950  0.9061 -1.2187
    2PRO    HD2   13   5.324   3.551   3.259  0.0570 -0.2977 -0.6487
    2PRO     CA   14   5.380   3.746   2.990  0.6272  0.2582 -0.1898
    2PRO     HA   15   5.410   3.691   2.903  2.0092  1.2353 -0.3518
    2PRO     CB   16   5.227   3.747   3.015  0.1566  0.0991 -0.1844
    2PRO    HB1   17   5.171   3.740   2.920  0.2042  0.6673 -0.2559
    2PRO    HB2   18   5.191   3.837   3.069  2.2553  1.1212 -0.3846
    2PRO     CG   19   5.202   3.625   3.104  0.4449  0.3688 -0.5233
    2PRO    HG1   20   5.110   3.626   3.165  1.2986  0.9489  0.8015
    2PRO    HG2   21   5.203   3.532   3.043 -1.2509 -0.2659  0.3598
    2PRO      C   22   5.426   3.891   2.972  1.1650 -0.4384 -0.1792
    2PRO      O   23   5.423   3.968   3.068  0.2063 -0.6551  0.5816
    3GLY      N   24   5.482   3.931   2.857 -0.2627 -0.1073 -0.4667
    3GLY     HN   25   5.483   3.859   2.788 -2.7250 -2.3631  1.6376
    3GLY     CA   26   5.539   4.068   2.822 -0.2476 -0.2444  0.0782
    3GLY    HA1   27   5.466   4.147   2.819  0.5445  0.6219  1.9214
    3GLY    HA2   28   5.563   4.043   2.720  0.5721  0.2025  0.1558
    3GLY      C   29   5.662   4.114   2.897  0.6168 -0.1489 -0.3663
    3GLY      O   30   5.693   4.074   3.005 -0.3315 -0.5156 -0.5057
    4ASP      N   31   5.732   4.210   2.836 -0.1221 -0.0383 -0.4009
    4ASP     HN   32   5.700   4.241   2.747 -1.2693 -0.3126 -0.1009
    4ASP     CA   33   5.860   4.261   2.889  0.1715  0.0901 -0.2535
    4ASP     HA   34   5.921   4.178   2.921 -1.3678 -1.7785 -1.8829
    4ASP     CB   35   5.936   4.335   2.770  0.0897  0.6048  0.5034
    4ASP    HB1   36   6.027   4.384   2.812  0.9447 -0.9050  0.5097
    4ASP    HB2   37   5.871   4.412   2.725  0.3579 -0.0887 -1.1465
    4ASP     CG   38   5.983   4.230   2.673 -0.1941  0.1125  0.0125
    4ASP    OD1   39   6.032   4.277   2.570  0.2395  0.3177 -0.0871
    4ASP    OD2   40   5.999   4.110   2.697 -0.1735  0.4771  0.2959
    4ASP      C   41   5.843   4.353   3.012 -0.2738  0.6463 -0.3040
    4ASP      O   42   5.739   4.394   3.051 -0.1068 -0.2643  0.4943
    5PRO      N   43   5.951   4.373   3.092  0.3381 -0.1647  0.2767
    5PRO     CD   44   6.070   4.295   3.079  0.2954  0.0007  0.7624
    5PRO    HD1   45   6.103   4.307   2.973 -2.1419  1.6008  0.1017
    5PRO    HD2   46   6.048   4.189   3.107  2.2888 -0.3031  1.2809
    5PRO     CA   47   5.954   4.448   3.209 -0.0648  0.2312  0.7506
    5PRO     HA   48   5.933   4.378   3.289  2.8808 -0.8077  0.7190
    5PRO     CB   49   6.103   4.487   3.220  0.8279  0.0302 -0.9607
    5PRO    HB1   50   6.136   4.512   3.323  1.0089 -1.8631 -0.5297
    5PRO    HB2   51   6.116   4.577   3.155  0.9920  0.3691 -0.4651
    5PRO     CG   52   6.173   4.365   3.172  0.6070 -0.1844  1.4251
    5PRO    HG1   53   6.264   4.397   3.117 -0.9982 -0.7521 -1.7822
    5PRO    HG2   54   6.204   4.298   3.255 -1.4103 -1.8079  0.9519
    5PRO      C   55   5.868   4.568   3.233 -0.5036  0.4720 -0.2030
    5PRO      O   56   5.862   4.662   3.154 -0.1913  0.1937 -0.0634
    6GLY      N   57   5.795   4.571   3.343  0.0984  0.0851  0.0581
    6GLY     HN   58   5.809   4.504   3.416  0.4768  1.1679  1.0148
    6GLY     CA   59   5.693   4.666   3.375 -0.0245 -0.0327 -0.4828
    6GLY    HA1   60   5.712   4.765   3.337 -0.3873 -0.2381 -1.2022
    6GLY    HA2   61   5.679   4.666   3.482 -0.5382  0.0862 -0.5502
    6GLY      C   62   5.560   4.628   3.324  0.0247 -0.3753  0.1716
    6GLY      O   63   5.460   4.680   3.372  1.1541 -0.0333 -0.2766
    7SER      N   64   5.546   4.527   3.235 -0.2282 -0.2702 -1.0993
    7SER     HN   65   5.631   4.493   3.196  0.8389 -0.0976  0.9326
    7SER     CA   66   5.416   4.479   3.178  0.3605 -0.3518 -0.6639
    7SER     HA   67   5.370   4.564   3.130 -1.2709 -0.4947  0.5621
    7SER     CB   68   5.431   4.377   3.063  0.0272 -0.9925  0.0373
    7SER    HB1   69   5.331   4.338   3.038  0.2659 -1.2560 -0.5047
    7SER    HB2   70   5.479   4.281   3.092 -2.0000 -2.2931 -0.7198
    7SER     OG   71   5.497   4.447   2.951  0.1621 -0.3586 -0.6048
    7SER    HG1   72   5.588   4.440   2.979  0.1305  1.4960  0.1014
    7SER      C   73   5.311   4.423   3.274  0.1324 -0.0327  0.1240
    7SER      O   74   5.342   4.361   3.374  0.4138  0.7324  0.3010
    8GLY      N   75   5.180   4.454   3.245 -0.7431  0.1589  0.0557
    8GLY     HN   76   5.179   4.512   3.164  2.4346  0.3429  0.0154
    8GLY     CA   77   5.066   4.411   3.320 -0.3287 -0.2707 -0.6512
    8GLY    HA1   78   4.984   4.457   3.267 -0.5521  1.4597  1.0980
    8GLY    HA2   79   5.091   4.442   3.420  1.8540 -0.3438 -1.1189
    8GLY      C   80   5.033   4.265   3.318 -0.3435 -0.5745 -0.1841
    8GLY      O   81   5.103   4.185   3.252 -0.1639  0.6649  0.8035
    9PRO      N   82   4.926   4.217   3.386  0.4163 -0.0200  0.4762
    9PRO     CD   83   4.856   4.289   3.493 -0.5287 -0.2131  0.5219
    9PRO    HD1   84   4.781   4.353   3.442  0.4776 -1.0999 -2.2513
    9PRO    HD2   85   4.930   4.343   3.557 -1.5841  0.0932  1.5160
    9PRO     CA   86   4.878   4.079   3.375 -0.0607 -0.2962  0.7262
    9PRO     HA   87   4.952   4.012   3.417 -1.3459 -0.6991  2.5182
    9PRO     CB   88   4.745   4.083   3.458 -0.1923 -0.4814 -0.4214
    9PRO    HB1   89   4.723   3.984   3.503 -1.1382 -0.5352 -0.9705
    9PRO    HB2   90   4.659   4.120   3.398 -0.6204 -2.2722 -0.9793
    9PRO     CG   91   4.772   4.190   3.570  0.8648 -0.1027 -0.3327
    9PRO    HG1   92   4.675   4.228   3.612 -0.3634 -2.4295 -0.9156
    9PRO    HG2   93   4.828   4.149   3.657 -0.8736 -0.3125  0.7447
    9PRO      C   94   4.859   4.038   3.224  0.7573 -0.6392 -1.1785
    9PRO      O   95   4.814   4.124   3.146  0.0582  0.0812  0.4366
   10GLY      N   96   4.898   3.913   3.189  0.7956 -0.3191  0.2542
   10GLY     HN   97   4.932   3.845   3.253 -3.1198 -4.4377 -1.4937
   10GLY     CA   98   4.890   3.849   3.052  0.8002 -0.4597 -0.6017
   10GLY    HA1   99   4.900   3.744   3.077  0.5023  0.3047  3.3915
   10GLY    HA2  100   4.965   3.890   2.987  1.5672  0.8484  1.0080
   10GLY      C  101   4.750   3.865   2.981  0.4591  0.5104 -0.9695
   10GLY      O  102   4.653   3.831   3.049  0.1220 -0.0556  0.0596
   11ASP      N  103   4.741   3.914   2.851  0.0125 -0.2822  0.2581
   11ASP     HN  104   4.822   3.953   2.808  0.6729 -3.0147 -1.2316
   11ASP     CA  105   4.632   3.924   2.754 -0.1937 -0.3264  0.2884
   11ASP     HA  106   4.573   4.012   2.773  0.9897  0.6006 -0.1946
   11ASP     CB  107   4.676   3.934   2.607  0.0925  0.6000  0.1305
   11ASP    HB1  108   4.592   3.947   2.536  0.0191 -0.0119  0.1009
   11ASP    HB2  109   4.731   3.848   2.562  1.1667  1.3934 -0.1323
   11ASP     CG  110   4.752   4.065   2.582  0.0208 -0.4349 -0.4180
   11ASP    OD1  111   4.766   4.094   2.462  0.2845  0.3120 -0.2516
   11ASP    OD2  112   4.806   4.132   2.678  0.7436 -0.2775  0.1733
   11ASP      C  113   4.543   3.800   2.761  0.7256  0.1165 -0.6523
   11ASP      O  114   4.594   3.687   2.764 -0.0030  1.1419 -0.0774
   12PRO      N  115   4.402   3.811   2.759 -0.2906 -0.4664 -0.1261
   12PRO     CD  116   4.331   3.933   2.739  0.4500 -0.6113 -0.1062
   12PRO    HD1  117   4.333   3.959   2.631 -0.5970  2.5889  0.5270
   12PRO    HD2  118   4.366   4.015   2.806  0.4553 -0.3399 -0.4322
   12PRO     CA  119   4.310   3.696   2.747  0.5159 -1.3350 -0.4646
   12PRO     HA  120   4.286   3.663   2.847 -0.4943  1.0741  0.1797
   12PRO     CB  121   4.176   3.764   2.702  0.0440  0.2864 -0.2617
   12PRO    HB1  122   4.088   3.703   2.734 -0.1030  0.6177 -0.0318
   12PRO    HB2  123   4.177   3.786   2.593 -2.0798  2.6745  0.1010
   12PRO     CG  124   4.184   3.901   2.765 -0.4741  0.1094  0.2575
   12PRO    HG1  125   4.103   3.970   2.734 -0.5615  0.5531  1.4014
   12PRO    HG2  126   4.180   3.889   2.876  0.8289 -0.2681  0.2791
   12PRO      C  127   4.351   3.579   2.657 -0.6381  0.1351  0.5148
   12PRO      O  128   4.380   3.594   2.540 -0.2558 -0.3627  0.0523
   13GLY      N  129   4.340   3.453   2.709 -0.6949 -0.3668  0.1485
   13GLY     HN  130   4.316   3.437   2.805 -0.1190 -2.3462  0.0094
   13GLY     CA  131   4.364   3.336   2.623  0.2907 -0.1909 -0.3476
   13GLY    HA1  132   4.371   3.250   2.688  0.1960 -0.2440 -0.4075
   13GLY    HA2  133   4.458   3.361   2.576 -0.3990  3.2449 -0.1212
   13GLY      C  134   4.264   3.297   2.512 -0.4409 -0.8811  0.0117
   13GLY      O  135   4.166   3.369   2.487 -0.7949 -0.0922  0.5868
   14SER      N  136   4.296   3.196   2.438  0.7368 -0.0101 -0.0884
   14SER     HN  137   4.383   3.151   2.456 -0.2730 -2.2074 -0.3478
   14SER     CA  138   4.215   3.148   2.326 -0.6640  0.0958  0.3133
   14SER     HA  139   4.119   3.196   2.321 -0.1678  1.0528 -0.7663
   14SER     CB  140   4.290   3.163   2.190 -0.2367  1.0221 -0.2367
   14SER    HB1  141   4.225   3.122   2.110 -0.5239  0.4346  0.2965
   14SER    HB2  142   4.377   3.095   2.181 -1.7729 -1.0510 -0.1275
   14SER     OG  143   4.321   3.298   2.167 -0.0601 -0.0450  0.2350
   14SER    HG1  144   4.395   3.315   2.227  1.0534 -0.3318 -1.0003
   14SER      C  145   4.206   2.998   2.353 -0.2184 -0.5488 -0.3732
   14SER      O  146   4.229   2.918   2.271 -0.0567  0.8119  0.0141
   15GLY      N  147   4.172   2.951   2.473 -0.4720  0.1261  0.3830
   15GLY     HN  148   4.147   3.010   2.549  2.0538  1.7111  0.0996
   15GLY     CA  149   4.158   2.807   2.508  0.0253 -0.5746 -0.4343
   15GLY    HA1  150   4.157   2.808   2.616 -0.5662  0.7720 -0.4267
   15GLY    HA2  151   4.249   2.753   2.484  1.7589  2.1627 -0.5224
   15GLY      C  152   4.043   2.729   2.456  0.3004  0.2790 -0.2519
   15GLY      O  153   3.950   2.785   2.393  0.2099  0.1426  0.3477
   16PRO      N  154   4.034   2.598   2.492  0.1094 -0.2146 -0.4816
   16PRO     CD  155   4.137   2.531   2.566 -0.3959  0.1299 -0.0296
   16PRO    HD1  156   4.192   2.590   2.643 -0.7019  0.8066 -0.3177
   16PRO    HD2  157   4.219   2.509   2.495  1.5814 -0.2908  2.2412
   16PRO     CA  158   3.912   2.520   2.486 -0.4875  0.6625  0.7459
   16PRO     HA  159   3.868   2.532   2.388  1.7370  2.6409 -0.1116
   16PRO     CB  160   3.970   2.373   2.516  0.2535 -0.9660  0.1356
   16PRO    HB1  161   4.031   2.341   2.429 -0.0423  0.7575 -0.7543
   16PRO    HB2  162   3.896   2.293   2.533  0.1183 -0.8967 -0.1265
   16PRO     CG  163   4.078   2.404   2.625 -0.0776 -0.1989  0.1659
   16PRO    HG1  164   4.030   2.412   2.725 -2.6494  0.9419 -1.0616
   16PRO    HG2  165   4.148   2.317   2.625 -0.3724 -0.4412  1.0875
   16PRO      C  166   3.796   2.557   2.577 -0.4466 -0.3880 -0.3866
   16PRO      O  167   3.719   2.469   2.608 -0.6515  0.6962  0.0340
   17GLY      N  168   3.789   2.686   2.614 -0.3567  0.3009  0.5143
   17GLY     HN  169   3.853   2.752   2.576  0.8494 -0.8664  0.4506
   17GLY     CA  170   3.695   2.732   2.717 -0.4132 -0.1355  0.1613
   17GLY    HA1  171   3.670   2.646   2.778 -0.0585 -0.7545 -0.5490
   17GLY    HA2  172   3.604   2.776   2.679 -0.9776 -0.6733  0.8311
   17GLY      C  173   3.773   2.820   2.804 -0.1466 -0.4749 -0.3153
   17GLY      O  174   3.861   2.889   2.762 -0.8398 -0.5301  0.3286
   18ASP      N  175   3.738   2.834   2.928 -0.2170 -0.1092  0.2242
   18ASP     HN  176   3.674   2.765   2.961 -1.7020  1.1126  0.0008
   18ASP     CA  177   3.794   2.925   3.026 -0.2000  0.1505  0.5848
   18ASP     HA  178   3.804   3.023   2.982  0.0417  0.0716  0.4596
   18ASP     CB  179   3.684   2.934   3.131 -0.3776  0.0981 -0.0004
   18ASP    HB1  180   3.664   2.829   3.160  1.8187 -0.1240  0.9047
   18ASP    HB2  181   3.594   2.986   3.093 -0.3155 -0.8578 -1.5348
   18ASP     CG  182   3.721   3.007   3.261  0.5223  0.0484 -0.8533
   18ASP    OD1  183   3.830   3.067   3.283 -0.1226  0.4516  0.3640
   18ASP    OD2  184   3.627   3.009   3.342 -0.3755  0.1217  0.3311
   18ASP      C  185   3.935   2.877   3.077 -0.1219 -1.3722 -0.6862
   18ASP      O  186   3.932   2.765   3.125  0.1687 -0.7823  0.4641
   19PRO      N  187   4.044   2.957   3.089 -0.0590  0.4447 -0.2117
   19PRO     CD  188   4.065   3.063   2.987  0.1073 -0.0634 -0.0433
   19PRO    HD1  189   4.021   3.161   3.016 -0.5762 -0.0428 -1.0962
   19PRO    HD2  190   4.022   3.033   2.889 -1.0343  0.3043  0.3335
   19PRO     CA  191   4.175   2.896   3.123  0.2536 -0.3455 -0.2370
   19PRO     HA  192   4.197   2.810   3.061 -2.6495 -1.7522  0.5025
   19PRO     CB  193   4.279   3.009   3.093  0.2286 -0.3171 -0.0305
   19PRO    HB1  194   4.377   2.966   3.062  0.3955  0.5319 -0.6981
   19PRO    HB2  195   4.291   3.070   3.185 -2.2227 -0.6037  0.5521
   19PRO     CG  196   4.217   3.086   2.977  0.4447  0.9943 -0.0124
   19PRO    HG1  197   4.265   3.186   2.974  0.9746  0.7399 -0.0208
   19PRO    HG2  198   4.255   3.042   2.882 -0.6771  0.6157 -0.3013
   19PRO      C  199   4.176   2.848   3.271 -0.1037  0.4285 -0.0675
   19PRO    OT1  200   4.240   2.746   3.307 -0.0540  0.2879 -0.3933
   19PRO    OT2  201   4.102   2.908   3.353 -0.6577 -0.1836  0.0860
   9.56435   9.01736   7.80926   0.00000   0.00000  -3.18812   0.00000  -3.18812  -4.50867
