* SET NIONTYPES = 1
* SET NPOSTOT = 66
* SET NNEGTOT = 65
* SET NIONTOT = 131
*  DATE:     6/13/26     12:41:21      CREATED BY USER: charmm-gui
*
       131  EXT
         1         1  SOD       SOD           -22.0205718325      -21.0408003717      -38.2356594238  IONS      1               1.0000000000
         2         2  SOD       SOD             6.3874443719       33.5637361676      -13.2290547962  IONS      2               1.0000000000
         3         3  SOD       SOD            40.4479138640       36.4964586607       -0.2316393764  IONS      3               1.0000000000
         4         4  SOD       SOD           -20.6403302531      -28.2440732764      -29.1198928544  IONS      4               1.0000000000
         5         5  SOD       SOD            33.2683065304       -4.0829065552      -32.3219408392  IONS      5               1.0000000000
         6         6  SOD       SOD            12.2539362843       13.9076524446       20.6490603945  IONS      6               1.0000000000
         7         7  SOD       SOD           -17.3372558679       -3.8748616091      -34.5930877608  IONS      7               1.0000000000
         8         8  SOD       SOD            14.1679321998      -43.3228484819       19.1449417080  IONS      8               1.0000000000
         9         9  SOD       SOD           -18.3089613902       46.5340903095       16.9207740228  IONS      9               1.0000000000
        10        10  SOD       SOD           -14.7643981004       22.8172286943       19.7775623909  IONS      10              1.0000000000
        11        11  SOD       SOD           -40.6861323949       22.8621754054        6.6804582414  IONS      11              1.0000000000
        12        12  SOD       SOD           -20.3269499011        7.1377249827      -18.6019438145  IONS      12              1.0000000000
        13        13  SOD       SOD           -42.9733810049       10.8690750034       -0.2532809656  IONS      13              1.0000000000
        14        14  SOD       SOD            10.0076081035        3.7564330604        3.0019891206  IONS      14              1.0000000000
        15        15  SOD       SOD           -50.3037639268       22.3898626184      -19.5375153897  IONS      15              1.0000000000
        16        16  SOD       SOD           -21.9294078890       29.0868118393       15.8149054792  IONS      16              1.0000000000
        17        17  SOD       SOD            35.4832553886        4.2203324105       44.0981222085  IONS      17              1.0000000000
        18        18  SOD       SOD           -22.3107280050       15.6276827543      -49.4001198427  IONS      18              1.0000000000
        19        19  SOD       SOD            13.9493539812       -4.6894411833       48.3219477796  IONS      19              1.0000000000
        20        20  SOD       SOD            12.7426066139       28.6667075167      -42.0494325358  IONS      20              1.0000000000
        21        21  SOD       SOD           -20.0139864736       28.5079314052       -1.1210935221  IONS      21              1.0000000000
        22        22  SOD       SOD             2.2698841875      -30.7537697814       18.1914802344  IONS      22              1.0000000000
        23        23  SOD       SOD           -20.0476902054      -19.1905856729        2.3693519446  IONS      23              1.0000000000
        24        24  SOD       SOD           -34.6573642761       16.8497282059      -35.1099929052  IONS      24              1.0000000000
        25        25  SOD       SOD            20.7502958124       11.3836533567      -29.4589797327  IONS      25              1.0000000000
        26        26  SOD       SOD           -26.0925414162      -36.6499457632       -8.7601493448  IONS      26              1.0000000000
        27        27  SOD       SOD            -6.9421224470       42.9682245382       35.9180243490  IONS      27              1.0000000000
        28        28  SOD       SOD            -9.7251352076      -34.1213393753      -22.5107914634  IONS      28              1.0000000000
        29        29  SOD       SOD           -17.2341410895      -19.7218188032       -7.6825260171  IONS      29              1.0000000000
        30        30  SOD       SOD           -15.7150820833       23.0131634991       -1.4211629643  IONS      30              1.0000000000
        31        31  SOD       SOD            23.9161612832       17.1985503233       23.7613347893  IONS      31              1.0000000000
        32        32  SOD       SOD            -0.2174437955      -25.2733195096       42.6543000431  IONS      32              1.0000000000
        33        33  SOD       SOD             9.5699785942        3.8454328051       27.9038475052  IONS      33              1.0000000000
        34        34  SOD       SOD           -15.9590945812      -12.4205378040       42.2666271330  IONS      34              1.0000000000
        35        35  SOD       SOD             0.9278897484      -22.0056248873      -25.0495146212  IONS      35              1.0000000000
        36        36  SOD       SOD            38.3642611492        8.1044115730       16.4669144121  IONS      36              1.0000000000
        37        37  SOD       SOD           -13.6190710723      -33.9377082365        7.8096890645  IONS      37              1.0000000000
        38        38  SOD       SOD            -7.5383141153       43.1144970814       10.4951178710  IONS      38              1.0000000000
        39        39  SOD       SOD            29.4663505313       -7.6770017565       25.7679694047  IONS      39              1.0000000000
        40        40  SOD       SOD             4.9864849067        9.1282828560       -6.2429967985  IONS      40              1.0000000000
        41        41  SOD       SOD            33.2006001562      -21.2143628025      -28.3967809131  IONS      41              1.0000000000
        42        42  SOD       SOD            -7.7741918319        3.5014704240       48.8195701765  IONS      42              1.0000000000
        43        43  SOD       SOD            25.6446763182        9.9487280413       12.2719658637  IONS      43              1.0000000000
        44        44  SOD       SOD           -19.5622373800      -43.8024045091        8.6056971120  IONS      44              1.0000000000
        45        45  SOD       SOD            27.6795868981      -42.9601927510       -8.9093637559  IONS      45              1.0000000000
        46        46  SOD       SOD             6.3848703174       13.8705670919       47.6376327229  IONS      46              1.0000000000
        47        47  SOD       SOD            26.7148967641       16.3866123918       31.0902892246  IONS      47              1.0000000000
        48        48  SOD       SOD            22.0524325350       11.0837978031       -6.2348744361  IONS      48              1.0000000000
        49        49  SOD       SOD            45.9040215841       27.7737541232        2.8666950071  IONS      49              1.0000000000
        50        50  SOD       SOD           -44.7510219995      -17.2682815577      -11.3316554597  IONS      50              1.0000000000
        51        51  SOD       SOD            -8.6203164083       12.9328235773      -19.8530031495  IONS      51              1.0000000000
        52        52  SOD       SOD            15.0222369707       14.1084362718       53.6624306818  IONS      52              1.0000000000
        53        53  SOD       SOD           -28.9335143907       -1.6545756917       22.1657092967  IONS      53              1.0000000000
        54        54  SOD       SOD            29.7549898918       -4.2037370966       49.0364342503  IONS      54              1.0000000000
        55        55  SOD       SOD            15.9690810978       20.3196674137       42.0981208406  IONS      55              1.0000000000
        56        56  SOD       SOD            37.5912298066      -27.2778227471       13.2216068865  IONS      56              1.0000000000
        57        57  SOD       SOD            42.7818181607       -2.3619586469        2.8554809153  IONS      57              1.0000000000
        58        58  SOD       SOD             0.5845735752        9.4790281053       41.3171524823  IONS      58              1.0000000000
        59        59  SOD       SOD             9.6213707163      -17.4932595880       -2.9386464174  IONS      59              1.0000000000
        60        60  SOD       SOD            12.9287828723       42.3008744291       16.6534692909  IONS      60              1.0000000000
        61        61  SOD       SOD            42.7179829411       26.8619547784      -14.8381820405  IONS      61              1.0000000000
        62        62  SOD       SOD            49.1766978532       11.9991415553       -4.4642491924  IONS      62              1.0000000000
        63        63  SOD       SOD           -19.2999283706      -30.1708889266       39.7554309513  IONS      63              1.0000000000
        64        64  SOD       SOD           -21.7560395257      -45.9687791794      -11.6045762108  IONS      64              1.0000000000
        65        65  SOD       SOD            51.5081746645       10.3971729663       17.1220237635  IONS      65              1.0000000000
        66        66  SOD       SOD             0.9156448009      -34.5256977747      -29.6281461251  IONS      66              1.0000000000
        67        67  CLA       CLA           -11.4300021891      -43.1800811938      -23.7341942136  IONS      67             -1.0000000000
        68        68  CLA       CLA           -32.3650514794       -1.8699375822       17.8780665673  IONS      68             -1.0000000000
        69        69  CLA       CLA            18.2222570237      -17.7968371118      -49.9846953077  IONS      69             -1.0000000000
        70        70  CLA       CLA            33.0043550539       30.1775770154      -20.1711843963  IONS      70             -1.0000000000
        71        71  CLA       CLA            -5.0132355342      -22.1024261216      -18.8011767741  IONS      71             -1.0000000000
        72        72  CLA       CLA            16.7979077973       26.7125497861      -39.6918567573  IONS      72             -1.0000000000
        73        73  CLA       CLA           -36.6836302029       11.0133268425       26.5580169056  IONS      73             -1.0000000000
        74        74  CLA       CLA           -18.2650701277       23.1212687518        3.5239728097  IONS      74             -1.0000000000
        75        75  CLA       CLA           -48.1781957933       12.1265109616        0.3076618608  IONS      75             -1.0000000000
        76        76  CLA       CLA            32.3379894470      -13.0369357317      -29.9214750176  IONS      76             -1.0000000000
        77        77  CLA       CLA           -20.4083152649       35.2451245747      -11.5020625461  IONS      77             -1.0000000000
        78        78  CLA       CLA            13.8165423478       16.9559481135       46.2781043787  IONS      78             -1.0000000000
        79        79  CLA       CLA           -19.6809839295      -33.4758812770       -0.5544033407  IONS      79             -1.0000000000
        80        80  CLA       CLA            40.7609187804       22.6241000707       -0.2862492635  IONS      80             -1.0000000000
        81        81  CLA       CLA           -24.3383643883       -2.1806152759       24.7428129270  IONS      81             -1.0000000000
        82        82  CLA       CLA           -16.3263545683      -26.5933752218      -19.4619079538  IONS      82             -1.0000000000
        83        83  CLA       CLA             2.7753168345      -45.9784900478      -24.0354329766  IONS      83             -1.0000000000
        84        84  CLA       CLA            -3.2915363439      -47.5158620615       19.2774251865  IONS      84             -1.0000000000
        85        85  CLA       CLA            17.0431322995      -10.7410386021       16.6258337008  IONS      85             -1.0000000000
        86        86  CLA       CLA           -23.5983383352      -53.6823400261       -0.5499600134  IONS      86             -1.0000000000
        87        87  CLA       CLA            28.3801037068       -2.9379765898       27.6288198955  IONS      87             -1.0000000000
        88        88  CLA       CLA           -20.1643302806      -12.4763613153      -36.1348747920  IONS      88             -1.0000000000
        89        89  CLA       CLA           -34.2366840040       16.6673289392        3.4646318853  IONS      89             -1.0000000000
        90        90  CLA       CLA            38.1636643914        6.0167551022       36.9938681938  IONS      90             -1.0000000000
        91        91  CLA       CLA            28.3926321418       -3.3180024039       43.5685215278  IONS      91             -1.0000000000
        92        92  CLA       CLA            10.3925731611       35.8448952857       28.9180205320  IONS      92             -1.0000000000
        93        93  CLA       CLA            39.4331679903        3.6263428425       21.9397266280  IONS      93             -1.0000000000
        94        94  CLA       CLA            -6.4439155441       16.8765009069        0.0851521299  IONS      94             -1.0000000000
        95        95  CLA       CLA           -17.3993151372      -43.2631598273       20.4694771913  IONS      95             -1.0000000000
        96        96  CLA       CLA            15.7212145084       19.0141065412       17.5935198889  IONS      96             -1.0000000000
        97        97  CLA       CLA           -38.1804275997        9.6036574226      -27.8443790683  IONS      97             -1.0000000000
        98        98  CLA       CLA            -7.6100316710        5.1201168124      -28.8055453523  IONS      98             -1.0000000000
        99        99  CLA       CLA            43.0192057401       34.6391066875        3.4502187162  IONS      99             -1.0000000000
       100       100  CLA       CLA            10.3845405944      -11.1329052922       29.5132715850  IONS      100            -1.0000000000
       101       101  CLA       CLA           -24.9652004939      -33.4512542468       -2.8526754632  IONS      101            -1.0000000000
       102       102  CLA       CLA           -33.1781356412       25.8349703231       -9.9277310536  IONS      102            -1.0000000000
       103       103  CLA       CLA            27.0155373716       22.7747623734       27.2471859287  IONS      103            -1.0000000000
       104       104  CLA       CLA           -46.9218162772      -12.8146857140       14.8777148840  IONS      104            -1.0000000000
       105       105  CLA       CLA            25.6055783297      -24.9937051449       42.5557961244  IONS      105            -1.0000000000
       106       106  CLA       CLA            -1.8110970945       -6.8259101303      -31.4934023367  IONS      106            -1.0000000000
       107       107  CLA       CLA            22.7668323552       10.6721202916      -36.1499142152  IONS      107            -1.0000000000
       108       108  CLA       CLA            11.2164191072       17.8783950971       51.9294560279  IONS      108            -1.0000000000
       109       109  CLA       CLA           -26.9073226820       38.3812664861      -27.4251407250  IONS      109            -1.0000000000
       110       110  CLA       CLA            11.4122216212        9.3072014621       36.5072969437  IONS      110            -1.0000000000
       111       111  CLA       CLA             9.9964416614       25.2213760032       10.7153209164  IONS      111            -1.0000000000
       112       112  CLA       CLA           -16.5567879243        5.9005670501      -32.2598014176  IONS      112            -1.0000000000
       113       113  CLA       CLA           -26.5066781439      -48.6532310947       -9.6616176434  IONS      113            -1.0000000000
       114       114  CLA       CLA           -42.2719270935        4.8019753374       -8.7895608788  IONS      114            -1.0000000000
       115       115  CLA       CLA            -6.1067124283      -32.2591445642       13.9066343266  IONS      115            -1.0000000000
       116       116  CLA       CLA           -29.6233933140       23.7225979105      -37.7890026706  IONS      116            -1.0000000000
       117       117  CLA       CLA           -37.2955361918      -20.2425998903      -26.1291315127  IONS      117            -1.0000000000
       118       118  CLA       CLA            24.5559397656       28.6745270806       11.4306950745  IONS      118            -1.0000000000
       119       119  CLA       CLA            44.7383361785       12.5056227356       21.8964927839  IONS      119            -1.0000000000
       120       120  CLA       CLA            -1.0022950603       45.6795786306       18.2669216132  IONS      120            -1.0000000000
       121       121  CLA       CLA           -23.5658381838      -25.7762107357      -28.8895402619  IONS      121            -1.0000000000
       122       122  CLA       CLA            -9.3067969455       26.8298144837       30.0517914419  IONS      122            -1.0000000000
       123       123  CLA       CLA             1.1260654121      -22.0014169405       46.5452392490  IONS      123            -1.0000000000
       124       124  CLA       CLA            11.6061024354      -35.5169249124       16.2980022966  IONS      124            -1.0000000000
       125       125  CLA       CLA            12.9860918485      -13.0748698128        6.5445704668  IONS      125            -1.0000000000
       126       126  CLA       CLA           -43.5049899541       21.5438376107      -15.2676278992  IONS      126            -1.0000000000
       127       127  CLA       CLA           -22.0588495091      -48.2147139207       13.6504041938  IONS      127            -1.0000000000
       128       128  CLA       CLA           -44.6421727941      -16.6576928839      -21.4523225458  IONS      128            -1.0000000000
       129       129  CLA       CLA            14.6477934001       13.3394335104       -2.0340421221  IONS      129            -1.0000000000
       130       130  CLA       CLA            -1.4013818438       26.7893182364       22.6157574902  IONS      130            -1.0000000000
       131       131  CLA       CLA           -32.1972763402       -5.8493825539      -44.4053960694  IONS      131            -1.0000000000
