* GENERATED BY CHARMM-GUI (HTTP://WWW.CHARMM-GUI.ORG) V3.7 ON JUN, 13. 2026. JOB
* READ PDB, MANIPULATE STRUCTURE IF NEEDED, AND GENERATE TOPOLOGY FILE
*  DATE:     6/13/26     12:38:46      CREATED BY USER: charmm-gui
*
       205  EXT
         1         1  GLY       N              -9.0870000000       -8.5680000000      -25.1090000000  PROA      1              97.4300000000
         2         1  GLY       HT1            -9.8254676551       -9.2126510793      -25.4564053947  PROA      1               0.0000000000
         3         1  GLY       HT2            -8.2675523729       -9.1212457028      -24.7864718388  PROA      1               0.0000000000
         4         1  GLY       HT3            -8.7938810139       -7.9307226385      -25.8768271033  PROA      1               0.0000000000
         5         1  GLY       CA             -9.6090000000       -7.7840000000      -24.0010000000  PROA      1              97.9000000000
         6         1  GLY       HA1           -10.0640517359       -8.4704792006      -23.3024461055  PROA      1               0.0000000000
         7         1  GLY       HA2           -10.3498603620       -7.1078307893      -24.4012804533  PROA      1               0.0000000000
         8         1  GLY       C              -8.5410000000       -6.9810000000      -23.2830000000  PROA      1              98.0700000000
         9         1  GLY       O              -7.3460000000       -7.2030000000      -23.4910000000  PROA      1              97.6300000000
        10         2  PRO       N              -8.8360000000       -5.9230000000      -22.4440000000  PROA      2              98.2600000000
        11         2  PRO       CD            -10.0630000000       -5.3360000000      -22.5810000000  PROA      2              94.0200000000
        12         2  PRO       HD1           -10.8442926574       -6.0026218077      -22.1585047915  PROA      2               0.0000000000
        13         2  PRO       HD2           -10.2676758851       -5.1468264776      -23.6560005641  PROA      2               0.0000000000
        14         2  PRO       CA             -7.8540000000       -5.1550000000      -21.6760000000  PROA      2              98.3400000000
        15         2  PRO       HA             -7.0579708939       -4.8140781387      -22.3183521405  PROA      2               0.0000000000
        16         2  PRO       CB             -8.6920000000       -4.0380000000      -21.0480000000  PROA      2              98.1400000000
        17         2  PRO       HB1            -8.1809878761       -3.0568796238      -21.1496801487  PROA      2               0.0000000000
        18         2  PRO       HB2            -8.8725442798       -4.2387084073      -19.9704150454  PROA      2               0.0000000000
        19         2  PRO       CG             -9.9760000000       -4.0490000000      -21.8120000000  PROA      2              96.7600000000
        20         2  PRO       HG1           -10.8335820335       -3.9698840450      -21.1101547771  PROA      2               0.0000000000
        21         2  PRO       HG2           -10.0055502574       -3.1876203939      -22.5130313486  PROA      2               0.0000000000
        22         2  PRO       C              -7.1640000000       -5.9890000000      -20.6000000000  PROA      2              98.4500000000
        23         2  PRO       O              -7.6850000000       -7.0300000000      -20.1910000000  PROA      2              98.3300000000
        24         3  GLY       N              -5.8420000000       -5.5950000000      -20.3240000000  PROA      3              98.2600000000
        25         3  GLY       HN             -5.3703465002       -4.8774417050      -20.8306137636  PROA      3               0.0000000000
        26         3  GLY       CA             -5.1030000000       -6.2470000000      -19.2550000000  PROA      3              98.2600000000
        27         3  GLY       HA1            -4.1201361308       -5.8013836733      -19.2138482961  PROA      3               0.0000000000
        28         3  GLY       HA2            -5.0263659778       -7.2962077670      -19.4990881953  PROA      3               0.0000000000
        29         3  GLY       C              -5.7660000000       -6.1040000000      -17.8980000000  PROA      3              98.4400000000
        30         3  GLY       O              -6.6750000000       -5.2890000000      -17.7280000000  PROA      3              98.3400000000
        31         4  ASN       N              -5.3150000000       -6.9230000000      -17.0020000000  PROA      4              98.0400000000
        32         4  ASN       HN             -4.6666647194       -7.6521222527      -17.2070491569  PROA      4               0.0000000000
        33         4  ASN       CA             -5.7590000000       -6.7970000000      -15.6180000000  PROA      4              97.9900000000
        34         4  ASN       HA             -6.8383806233       -6.7640142096      -15.6141907087  PROA      4               0.0000000000
        35         4  ASN       CB             -5.2600000000       -7.9790000000      -14.7840000000  PROA      4              97.6100000000
        36         4  ASN       HB1            -5.4369770512       -7.7626697372      -13.7089908868  PROA      4               0.0000000000
        37         4  ASN       HB2            -4.1701461959       -8.1074959335      -14.9556733338  PROA      4               0.0000000000
        38         4  ASN       CG             -5.9590000000       -9.2780000000      -15.1350000000  PROA      4              92.9500000000
        39         4  ASN       OD1            -7.0470000000       -9.2740000000      -15.7170000000  PROA      4              87.4400000000
        40         4  ASN       ND2            -5.3390000000      -10.3980000000      -14.7850000000  PROA      4              89.9800000000
        41         4  ASN       HD21           -5.7535264343      -11.2843737563      -14.9911780770  PROA      4               0.0000000000
        42         4  ASN       HD22           -4.4573034842      -10.3555463910      -14.3150968770  PROA      4               0.0000000000
        43         4  ASN       C              -5.2970000000       -5.4800000000      -14.9990000000  PROA      4              98.1800000000
        44         4  ASN       O              -4.2230000000       -4.9760000000      -15.3320000000  PROA      4              97.9800000000
        45         5  PRO       N              -6.1020000000       -4.8160000000      -14.0180000000  PROA      5              98.2100000000
        46         5  PRO       CD             -7.4910000000       -5.1440000000      -13.7850000000  PROA      5              96.0700000000
        47         5  PRO       HD1            -7.5704535149       -6.1158078368      -13.2542557438  PROA      5               0.0000000000
        48         5  PRO       HD2            -8.0393060473       -5.1922036195      -14.7490797103  PROA      5               0.0000000000
        49         5  PRO       CA             -5.6320000000       -3.6300000000      -13.2980000000  PROA      5              98.1900000000
        50         5  PRO       HA             -5.4008076821       -2.8366414591      -13.9905865770  PROA      5               0.0000000000
        51         5  PRO       CB             -6.7830000000       -3.3240000000      -12.3350000000  PROA      5              98.0600000000
        52         5  PRO       HB1            -6.9533854635       -2.2288397223      -12.2597037890  PROA      5               0.0000000000
        53         5  PRO       HB2            -6.5660058330       -3.7240088144      -11.3215981847  PROA      5               0.0000000000
        54         5  PRO       CG             -7.9720000000       -4.0060000000      -12.9310000000  PROA      5              96.8700000000
        55         5  PRO       HG1            -8.6301104468       -4.3919213292      -12.1233805493  PROA      5               0.0000000000
        56         5  PRO       HG2            -8.5487611701       -3.2864795747      -13.5506214327  PROA      5               0.0000000000
        57         5  PRO       C              -4.3340000000       -3.8800000000      -12.5340000000  PROA      5              98.3800000000
        58         5  PRO       O              -4.0400000000       -5.0200000000      -12.1650000000  PROA      5              98.3100000000
        59         6  GLY       N              -3.5880000000       -2.8550000000      -12.4820000000  PROA      6              98.3300000000
        60         6  GLY       HN             -3.7784635335       -1.9997316609      -12.9572399578  PROA      6               0.0000000000
        61         6  GLY       CA             -2.3800000000       -2.9380000000      -11.6770000000  PROA      6              98.3000000000
        62         6  GLY       HA1            -1.8814722657       -1.9814938475      -11.7304320176  PROA      6               0.0000000000
        63         6  GLY       HA2            -1.7534066003       -3.7088067917      -12.1007056801  PROA      6               0.0000000000
        64         6  GLY       C              -2.6540000000       -3.2700000000      -10.2230000000  PROA      6              98.5000000000
        65         6  GLY       O              -3.8030000000       -3.2340000000       -9.7780000000  PROA      6              98.4200000000
        66         7  SER       N              -1.5930000000       -3.4650000000       -9.6420000000  PROA      7              98.3700000000
        67         7  SER       HN             -0.6989782026       -3.4906110508      -10.0813196889  PROA      7               0.0000000000
        68         7  SER       CA             -1.6760000000       -3.6720000000       -8.1990000000  PROA      7              98.3300000000
        69         7  SER       HA             -2.4852284994       -4.3603360885       -8.0053298000  PROA      7               0.0000000000
        70         7  SER       CB             -0.3600000000       -4.2340000000       -7.6610000000  PROA      7              98.0800000000
        71         7  SER       HB1            -0.4492315020       -4.4107259147       -6.5678234613  PROA      7               0.0000000000
        72         7  SER       HB2             0.4606807671       -3.5101846049       -7.8528426621  PROA      7               0.0000000000
        73         7  SER       OG             -0.0410000000       -5.4610000000       -8.2950000000  PROA      7              92.4100000000
        74         7  SER       HG1            -0.7677554743       -6.0568593426       -8.0990966453  PROA      7               0.0000000000
        75         7  SER       C              -2.0190000000       -2.3750000000       -7.4740000000  PROA      7              98.5300000000
        76         7  SER       O              -1.7590000000       -1.2840000000       -7.9850000000  PROA      7              98.4600000000
        77         8  GLY       N              -2.7410000000       -2.5790000000       -6.2960000000  PROA      8              98.2300000000
        78         8  GLY       HN             -3.0704183874       -3.4652193745       -5.9807946329  PROA      8               0.0000000000
        79         8  GLY       CA             -3.0220000000       -1.4040000000       -5.4860000000  PROA      8              98.1300000000
        80         8  GLY       HA1            -3.7196940476       -1.6942001952       -4.7144455790  PROA      8               0.0000000000
        81         8  GLY       HA2            -3.4663489216       -0.6585971697       -6.1288203624  PROA      8               0.0000000000
        82         8  GLY       C              -1.7830000000       -0.8180000000       -4.8350000000  PROA      8              98.3100000000
        83         8  GLY       O              -0.6930000000       -1.3840000000       -4.9400000000  PROA      8              98.1400000000
        84         9  PRO       N              -1.9280000000        0.1590000000       -4.2400000000  PROA      9              98.5900000000
        85         9  PRO       CD             -3.2790000000        0.8170000000       -3.9730000000  PROA      9              97.7300000000
        86         9  PRO       HD1            -3.9880371301        0.0817007212       -3.5388316210  PROA      9               0.0000000000
        87         9  PRO       HD2            -3.6958503838        1.2385373123       -4.9113191965  PROA      9               0.0000000000
        88         9  PRO       CA             -0.8430000000        0.8020000000       -3.4960000000  PROA      9              98.6000000000
        89         9  PRO       HA              0.0415603761        0.8739535916       -4.1082914147  PROA      9               0.0000000000
        90         9  PRO       CB             -1.4470000000        2.1470000000       -3.0840000000  PROA      9              98.5400000000
        91         9  PRO       HB1            -1.2299900790        2.9263583452       -3.8453033147  PROA      9               0.0000000000
        92         9  PRO       HB2            -1.0401296334        2.4784986759       -2.1048980617  PROA      9               0.0000000000
        93         9  PRO       CG             -2.9170000000        1.8930000000       -2.9890000000  PROA      9              98.0300000000
        94         9  PRO       HG1            -3.1782655076        1.5669337314       -1.9595743067  PROA      9               0.0000000000
        95         9  PRO       HG2            -3.4770532600        2.8233820638       -3.2235755662  PROA      9               0.0000000000
        96         9  PRO       C              -0.4110000000        0.0000000000       -2.2710000000  PROA      9              98.7300000000
        97         9  PRO       O              -1.1670000000       -0.8460000000       -1.7840000000  PROA      9              98.7000000000
        98        10  GLY       N               0.7850000000        0.2890000000       -1.8870000000  PROA      10             98.4400000000
        99        10  GLY       HN              1.3792218710        0.9407429709       -2.3515015577  PROA      10              0.0000000000
       100        10  GLY       CA              1.2960000000       -0.3800000000       -0.7010000000  PROA      10             98.4000000000
       101        10  GLY       HA1             2.3559886161       -0.1820543411       -0.6416121815  PROA      10              0.0000000000
       102        10  GLY       HA2             1.1208694432       -1.4391487837       -0.8185517133  PROA      10              0.0000000000
       103        10  GLY       C               0.6350000000        0.0890000000        0.5810000000  PROA      10             98.5900000000
       104        10  GLY       O              -0.0990000000        1.0790000000        0.5800000000  PROA      10             98.5300000000
       105        11  ASP       N               0.8300000000       -0.6400000000        1.6300000000  PROA      11             98.4300000000
       106        11  ASP       HN              1.3204746188       -1.5053919990        1.5713468144  PROA      11              0.0000000000
       107        11  ASP       CA              0.3660000000       -0.2810000000        2.9660000000  PROA      11             98.4300000000
       108        11  ASP       HA             -0.6940606213       -0.0826092564        2.9105057683  PROA      11              0.0000000000
       109        11  ASP       CB              0.6440000000       -1.4170000000        3.9540000000  PROA      11             98.2500000000
       110        11  ASP       HB1             0.4212290549       -1.0616045163        4.9824665838  PROA      11              0.0000000000
       111        11  ASP       HB2             1.7171777486       -1.6957462790        3.8886823943  PROA      11              0.0000000000
       112        11  ASP       CG             -0.1910000000       -2.6560000000        3.6830000000  PROA      11             96.4000000000
       113        11  ASP       OD1            -1.3040000000       -2.5320000000        3.1280000000  PROA      11             95.0100000000
       114        11  ASP       OD2             0.2680000000       -3.7660000000        4.0290000000  PROA      11             95.0200000000
       115        11  ASP       C               1.0270000000        1.0080000000        3.4490000000  PROA      11             98.6100000000
       116        11  ASP       O               2.1820000000        1.2810000000        3.1190000000  PROA      11             98.5500000000
       117        12  PRO       N               0.2960000000        1.8050000000        4.3890000000  PROA      12             98.6000000000
       118        12  PRO       CD             -0.9790000000        1.6120000000        4.7130000000  PROA      12             97.2800000000
       119        12  PRO       HD1            -1.0729460201        0.6850456137        5.3173927519  PROA      12              0.0000000000
       120        12  PRO       HD2            -1.5884851775        1.5245825378        3.7887452228  PROA      12              0.0000000000
       121        12  PRO       CA              0.9560000000        2.9690000000        4.9840000000  PROA      12             98.5800000000
       122        12  PRO       HA              1.3528099988        3.6106293171        4.2136938138  PROA      12              0.0000000000
       123        12  PRO       CB             -0.1460000000        3.6010000000        5.8380000000  PROA      12             98.5300000000
       124        12  PRO       HB1            -0.2788010981        4.6732791571        5.5798252611  PROA      12              0.0000000000
       125        12  PRO       HB2             0.0972018373        3.5194971879        6.9188714429  PROA      12              0.0000000000
       126        12  PRO       CG             -1.3780000000        2.8200000000        5.5110000000  PROA      12             97.8800000000
       127        12  PRO       HG1            -1.8841455312        2.5033400421        6.4479298844  PROA      12              0.0000000000
       128        12  PRO       HG2            -2.0778804524        3.4486693784        4.9200375638  PROA      12              0.0000000000
       129        12  PRO       C               2.1600000000        2.5900000000        5.8430000000  PROA      12             98.6900000000
       130        12  PRO       O               2.2360000000        1.4660000000        6.3460000000  PROA      12             98.6500000000
       131        13  GLY       N               3.1300000000        3.5240000000        5.8470000000  PROA      13             98.3900000000
       132        13  GLY       HN              3.1012264367        4.3606645478        5.3058468369  PROA      13              0.0000000000
       133        13  GLY       CA              4.2900000000        3.2970000000        6.6930000000  PROA      13             98.3700000000
       134        13  GLY       HA1             4.9531663277        4.1414260532        6.5770609778  PROA      13              0.0000000000
       135        13  GLY       HA2             4.7743810810        2.3935583556        6.3532133642  PROA      13              0.0000000000
       136        13  GLY       C               3.9380000000        3.1450000000        8.1610000000  PROA      13             98.5600000000
       137        13  GLY       O               2.8160000000        3.4530000000        8.5700000000  PROA      13             98.5100000000
       138        14  SER       N               4.9070000000        2.8030000000        8.8670000000  PROA      14             98.4300000000
       139        14  SER       HN              5.7995844703        2.5599798432        8.4952814840  PROA      14              0.0000000000
       140        14  SER       CA              4.7440000000        2.7500000000       10.3170000000  PROA      14             98.3800000000
       141        14  SER       HA              3.8038007141        2.2637457812       10.5308881580  PROA      14              0.0000000000
       142        14  SER       CB              5.8990000000        1.9800000000       10.9590000000  PROA      14             98.2000000000
       143        14  SER       HB1             5.7544132238        1.9404586307       12.0597993630  PROA      14              0.0000000000
       144        14  SER       HB2             6.8594169305        2.4893905836       10.7302017345  PROA      14              0.0000000000
       145        14  SER       OG              5.9580000000        0.6550000000       10.4610000000  PROA      14             93.4000000000
       146        14  SER       HG1             5.1167673267        0.2503873943       10.6850897783  PROA      14              0.0000000000
       147        14  SER       C               4.6610000000        4.1510000000       10.9150000000  PROA      14             98.5600000000
       148        14  SER       O               5.1820000000        5.1090000000       10.3400000000  PROA      14             98.5100000000
       149        15  GLY       N               3.7460000000        4.3790000000       11.9940000000  PROA      15             98.0300000000
       150        15  GLY       HN              3.1189949641        3.6737504201       12.3153488155  PROA      15              0.0000000000
       151        15  GLY       CA              3.6800000000        5.6570000000       12.6840000000  PROA      15             97.9800000000
       152        15  GLY       HA1             2.9347825445        5.5741671044       13.4612235755  PROA      15              0.0000000000
       153        15  GLY       HA2             3.3854418577        6.4059015218       11.9638133281  PROA      15              0.0000000000
       154        15  GLY       C               5.0000000000        6.0670000000       13.3090000000  PROA      15             98.2100000000
       155        15  GLY       O               5.9460000000        5.2780000000       13.3470000000  PROA      15             98.1000000000
       156        16  PRO       N               5.2520000000        7.1430000000       13.7030000000  PROA      16             98.4900000000
       157        16  PRO       CD              4.0870000000        8.1830000000       13.7780000000  PROA      16             97.4100000000
       158        16  PRO       HD1             3.1936219213        7.7338267874       14.2592097589  PROA      16              0.0000000000
       159        16  PRO       HD2             3.8278912605        8.5521522552       12.7640803424  PROA      16              0.0000000000
       160        16  PRO       CA              6.4380000000        7.6140000000       14.4220000000  PROA      16             98.4800000000
       161        16  PRO       HA              7.3336442964        7.3528864430       13.8814766541  PROA      16              0.0000000000
       162        16  PRO       CB              6.1910000000        9.1180000000       14.5620000000  PROA      16             98.4300000000
       163        16  PRO       HB1             6.5998610859        9.6676881274       13.6874984867  PROA      16              0.0000000000
       164        16  PRO       HB2             6.6651049623        9.5109324462       15.4866112152  PROA      16              0.0000000000
       165        16  PRO       CG              4.7050000000        9.2570000000       14.6280000000  PROA      16             97.8400000000
       166        16  PRO       HG1             4.3621151887        9.1505114481       15.6793726064  PROA      16              0.0000000000
       167        16  PRO       HG2             4.4022419576       10.2574553935       14.2515418528  PROA      16              0.0000000000
       168        16  PRO       C               6.5970000000        6.9580000000       15.7920000000  PROA      16             98.6300000000
       169        16  PRO       O               5.6230000000        6.4480000000       16.3530000000  PROA      16             98.5800000000
       170        17  GLY       N               7.8550000000        6.7590000000       16.3150000000  PROA      17             98.3300000000
       171        17  GLY       HN              8.6597958027        6.9728451545       15.7693074139  PROA      17              0.0000000000
       172        17  GLY       CA              8.1600000000        6.2460000000       17.6410000000  PROA      17             98.3200000000
       173        17  GLY       HA1             9.2346234044        6.2143419453       17.7433177254  PROA      17              0.0000000000
       174        17  GLY       HA2             7.7495827155        5.2495803138       17.7116545981  PROA      17              0.0000000000
       175        17  GLY       C               7.5840000000        7.0960000000       18.7570000000  PROA      17             98.5000000000
       176        17  GLY       O               7.2230000000        8.2550000000       18.5390000000  PROA      17             98.4700000000
       177        18  ASN       N               7.2990000000        6.6120000000       19.8050000000  PROA      18             98.3600000000
       178        18  ASN       HN              7.3442488865        5.6240716135       19.9140567333  PROA      18              0.0000000000
       179        18  ASN       CA              6.8700000000        7.3080000000       21.0140000000  PROA      18             98.2600000000
       180        18  ASN       HA              6.0053601963        7.9061125206       20.7673704004  PROA      18              0.0000000000
       181        18  ASN       CB              6.5260000000        6.3050000000       22.1170000000  PROA      18             97.9600000000
       182        18  ASN       HB1             6.4707804792        6.8411906927       23.0881916643  PROA      18              0.0000000000
       183        18  ASN       HB2             7.3268049459        5.5370528151       22.1692634007  PROA      18              0.0000000000
       184        18  ASN       CG              5.2030000000        5.6050000000       21.8780000000  PROA      18             94.0900000000
       185        18  ASN       OD1             4.4100000000        6.0220000000       21.0290000000  PROA      18             89.7700000000
       186        18  ASN       ND2             4.9550000000        4.5340000000       22.6230000000  PROA      18             91.4400000000
       187        18  ASN       HD21            4.0974163595        4.0326592983       22.5080748055  PROA      18              0.0000000000
       188        18  ASN       HD22            5.6258359113        4.2288615970       23.2989213971  PROA      18              0.0000000000
       189        18  ASN       C               7.9310000000        8.2900000000       21.5030000000  PROA      18             98.4000000000
       190        18  ASN       O               9.1290000000        8.0190000000       21.3970000000  PROA      18             98.2400000000
       191        19  PRO       N               7.4490000000        9.7640000000       21.7340000000  PROA      19             98.1600000000
       192        19  PRO       CD              6.1360000000       10.0820000000       21.7900000000  PROA      19             95.6200000000
       193        19  PRO       HD1             5.6112841199        9.3744214987       22.4663310767  PROA      19              0.0000000000
       194        19  PRO       HD2             5.6971788135       10.0275831355       20.7712298656  PROA      19              0.0000000000
       195        19  PRO       CA              8.3700000000       10.7790000000       22.2510000000  PROA      19             97.9500000000
       196        19  PRO       HA              9.1959649823       10.9177908446       21.5720048344  PROA      19              0.0000000000
       197        19  PRO       CB              7.4760000000       12.0080000000       22.4300000000  PROA      19             97.7500000000
       198        19  PRO       HB1             7.6744489585       12.7590045879       21.6358453724  PROA      19              0.0000000000
       199        19  PRO       HB2             7.6478048431       12.4796171978       23.4210256138  PROA      19              0.0000000000
       200        19  PRO       CG              6.0800000000       11.4830000000       22.3270000000  PROA      19             96.2600000000
       201        19  PRO       HG1             5.6011274857       11.4843116558       23.3294838831  PROA      19              0.0000000000
       202        19  PRO       HG2             5.4842868905       12.1256605857       21.6440594433  PROA      19              0.0000000000
       203        19  PRO       C               9.0110000000       10.3740000000       23.5760000000  PROA      19             97.9500000000
       204        19  PRO       OT1             8.6967180251        9.2575600972       24.0683299541  PROA      19              0.0000000000
       205        19  PRO       OT2             9.8220348841       11.1765788603       24.1104993824  PROA      19              0.0000000000
