        81  EXT
         1         1  GLY       N               6.3690000000       11.9290000000       15.7190000000  PROA      1              97.5800000000
         2         1  GLY       CA              6.6670000000       10.5120000000       15.5870000000  PROA      1              97.9400000000
         3         1  GLY       C               6.7200000000       10.0450000000       14.1440000000  PROA      1              98.2800000000
         4         1  GLY       O               6.3930000000       10.8030000000       13.2290000000  PROA      1              97.9700000000
         5         2  PRO       N               7.2070000000        8.7390000000       13.7470000000  PROA      2              98.5600000000
         6         2  PRO       CA              7.1330000000        8.2000000000       12.3870000000  PROA      2              98.5800000000
         7         2  PRO       C               5.7000000000        8.1020000000       11.8680000000  PROA      2              98.6500000000
         8         2  PRO       CB              7.7600000000        6.8110000000       12.5230000000  PROA      2              98.4600000000
         9         2  PRO       O               4.7550000000        8.0540000000       12.6600000000  PROA      2              98.5600000000
        10         2  PRO       CG              7.5630000000        6.4420000000       13.9580000000  PROA      2              97.6200000000
        11         2  PRO       CD              7.5150000000        7.7020000000       14.7730000000  PROA      2              96.1900000000
        12         3  GLY       N               5.5930000000        8.2560000000       10.5660000000  PROA      3              98.3700000000
        13         3  GLY       CA              4.2960000000        8.1020000000        9.9250000000  PROA      3              98.3500000000
        14         3  GLY       C               3.6960000000        6.7230000000       10.1160000000  PROA      3              98.5300000000
        15         3  GLY       O               4.3810000000        5.7960000000       10.5540000000  PROA      3              98.4400000000
        16         4  ALA       N               2.4720000000        6.6040000000        9.8660000000  PROA      4              98.4900000000
        17         4  ALA       CA              1.8150000000        5.3000000000        9.9060000000  PROA      4              98.4400000000
        18         4  ALA       C               2.3070000000        4.4020000000        8.7740000000  PROA      4              98.5700000000
        19         4  ALA       CB              0.2990000000        5.4650000000        9.8280000000  PROA      4              98.2700000000
        20         4  ALA       O               2.7770000000        4.8920000000        7.7440000000  PROA      4              98.4700000000
        21         5  PRO       N               2.2330000000        3.2030000000        8.9810000000  PROA      5              98.2800000000
        22         5  PRO       CA              2.5560000000        2.3140000000        7.8630000000  PROA      5              98.2800000000
        23         5  PRO       C               1.6670000000        2.5520000000        6.6450000000  PROA      5              98.5100000000
        24         5  PRO       CB              2.3240000000        0.9170000000        8.4440000000  PROA      5              98.1700000000
        25         5  PRO       O               0.5510000000        3.0610000000        6.7800000000  PROA      5              98.4600000000
        26         5  PRO       CG              2.2560000000        1.1250000000        9.9230000000  PROA      5              97.4100000000
        27         5  PRO       CD              1.9990000000        2.5810000000       10.1880000000  PROA      5              96.9800000000
        28         6  GLY       N               2.3160000000        2.2810000000        5.5120000000  PROA      6              98.4200000000
        29         6  GLY       CA              1.5490000000        2.4100000000        4.2830000000  PROA      6              98.3600000000
        30         6  GLY       C               0.4080000000        1.4160000000        4.1850000000  PROA      6              98.5400000000
        31         6  GLY       O               0.2760000000        0.5290000000        5.0310000000  PROA      6              98.4400000000
        32         7  PRO       N              -0.3350000000        1.5660000000        3.2970000000  PROA      7              98.5500000000
        33         7  PRO       CA             -1.3640000000        0.5630000000        3.0150000000  PROA      7              98.5300000000
        34         7  PRO       C              -0.7780000000       -0.7710000000        2.5560000000  PROA      7              98.6700000000
        35         7  PRO       CB             -2.1900000000        1.2090000000        1.9000000000  PROA      7              98.4700000000
        36         7  PRO       O               0.3750000000       -0.8250000000        2.1210000000  PROA      7              98.6300000000
        37         7  PRO       CG             -1.2540000000        2.1660000000        1.2360000000  PROA      7              98.0200000000
        38         7  PRO       CD             -0.2290000000        2.6060000000        2.2420000000  PROA      7              97.8400000000
        39         8  GLY       N              -1.6100000000       -1.8190000000        2.7110000000  PROA      8              98.4700000000
        40         8  GLY       CA             -1.1480000000       -3.1210000000        2.2560000000  PROA      8              98.4400000000
        41         8  GLY       C              -1.0530000000       -3.2260000000        0.7460000000  PROA      8              98.6500000000
        42         8  GLY       O              -1.5500000000       -2.3580000000        0.0250000000  PROA      8              98.6000000000
        43         9  ALA       N              -0.4640000000       -4.2090000000        0.2460000000  PROA      9              98.6400000000
        44         9  ALA       CA             -0.3500000000       -4.4930000000       -1.1820000000  PROA      9              98.6200000000
        45         9  ALA       C              -1.6910000000       -4.9340000000       -1.7620000000  PROA      9              98.7500000000
        46         9  ALA       CB              0.7110000000       -5.5630000000       -1.4290000000  PROA      9              98.5000000000
        47         9  ALA       O              -2.5740000000       -5.3830000000       -1.0280000000  PROA      9              98.7100000000
        48        10  PRO       N              -1.6970000000       -4.8140000000       -3.0640000000  PROA      10             98.6100000000
        49        10  PRO       CA             -2.9230000000       -5.3320000000       -3.6760000000  PROA      10             98.5900000000
        50        10  PRO       C              -3.0670000000       -6.8440000000       -3.5200000000  PROA      10             98.7200000000
        51        10  PRO       CB             -2.7700000000       -4.9470000000       -5.1500000000  PROA      10             98.5500000000
        52        10  PRO       O              -2.0760000000       -7.5420000000       -3.2910000000  PROA      10             98.6900000000
        53        10  PRO       CG             -1.6160000000       -3.9980000000       -5.1800000000  PROA      10             98.0900000000
        54        10  PRO       CD             -0.8110000000       -4.1870000000       -3.9270000000  PROA      10             97.7200000000
        55        11  GLY       N              -4.3140000000       -7.3310000000       -3.4880000000  PROA      11             98.4400000000
        56        11  GLY       CA             -4.5590000000       -8.7630000000       -3.4250000000  PROA      11             98.4100000000
        57        11  GLY       C              -4.0570000000       -9.5080000000       -4.6470000000  PROA      11             98.5800000000
        58        11  GLY       O              -3.5540000000       -8.8950000000       -5.5920000000  PROA      11             98.5300000000
        59        12  PRO       N              -4.0620000000      -10.7240000000       -4.7150000000  PROA      12             98.5600000000
        60        12  PRO       CA             -3.6900000000      -11.5290000000       -5.8810000000  PROA      12             98.5600000000
        61        12  PRO       C              -4.6870000000      -11.4000000000       -7.0300000000  PROA      12             98.7200000000
        62        12  PRO       CB             -3.6720000000      -12.9580000000       -5.3310000000  PROA      12             98.5000000000
        63        12  PRO       O              -5.8410000000      -11.0230000000       -6.8110000000  PROA      12             98.6900000000
        64        12  PRO       CG             -4.6180000000      -12.9330000000       -4.1730000000  PROA      12             97.8300000000
        65        12  PRO       CD             -4.6270000000      -11.5470000000       -3.5940000000  PROA      12             97.2700000000
        66        13  GLY       N              -4.2190000000      -11.6030000000       -8.2750000000  PROA      13             98.5000000000
        67        13  GLY       CA             -5.1120000000      -11.6230000000       -9.4230000000  PROA      13             98.5100000000
        68        13  GLY       C              -6.1150000000      -12.7600000000       -9.3800000000  PROA      13             98.6700000000
        69        13  GLY       O              -5.9690000000      -13.6940000000       -8.5890000000  PROA      13             98.6600000000
        70        14  ALA       N              -7.0240000000      -12.8320000000      -10.0130000000  PROA      14             98.6100000000
        71        14  ALA       CA             -8.0300000000      -13.8820000000      -10.1510000000  PROA      14             98.5700000000
        72        14  ALA       C              -7.4850000000      -15.0620000000      -10.9520000000  PROA      14             98.6800000000
        73        14  ALA       CB             -9.2890000000      -13.3290000000      -10.8140000000  PROA      14             98.4300000000
        74        14  ALA       O              -6.5730000000      -14.8990000000      -11.7660000000  PROA      14             98.6200000000
        75        15  PRO       N              -7.7020000000      -16.3590000000      -10.2820000000  PROA      15             98.3400000000
        76        15  PRO       CA             -7.2550000000      -17.5700000000      -10.9740000000  PROA      15             98.1700000000
        77        15  PRO       C              -7.8150000000      -17.6810000000      -12.3900000000  PROA      15             98.2300000000
        78        15  PRO       CB             -7.7860000000      -18.6990000000      -10.0870000000  PROA      15             98.0900000000
        79        15  PRO       O              -8.8290000000      -17.0540000000      -12.7080000000  PROA      15             97.9100000000
        80        15  PRO       CG             -8.4660000000      -18.0050000000       -8.9510000000  PROA      15             97.4300000000
        81        15  PRO       CD             -8.4720000000      -16.5290000000       -9.2290000000  PROA      15             97.1600000000
