* SET NIONTYPES = 1
* SET NPOSTOT = 43
* SET NNEGTOT = 43
* SET NIONTOT = 86
*  DATE:     6/17/26     19:43:24      CREATED BY USER: charmm-gui
*
        86  EXT
         1         1  SOD       SOD           -21.9996409931      -19.1048357318        6.4664154614  IONS      1               1.0000000000
         2         2  SOD       SOD           -11.5924259242       24.0697369239       35.5985528694  IONS      2               1.0000000000
         3         3  SOD       SOD           -16.6348161657      -16.3992252794       30.1430902854  IONS      3               1.0000000000
         4         4  SOD       SOD            -9.7361742416       10.0765145714      -21.7625930209  IONS      4               1.0000000000
         5         5  SOD       SOD           -25.7786438427       12.2436125004       18.4386080896  IONS      5               1.0000000000
         6         6  SOD       SOD           -22.0172988607        3.9885472031      -47.3894257706  IONS      6               1.0000000000
         7         7  SOD       SOD            -5.6391103114       14.5313779406        6.8813284415  IONS      7               1.0000000000
         8         8  SOD       SOD           -24.9623717889      -35.5614164777        0.4350156754  IONS      8               1.0000000000
         9         9  SOD       SOD           -11.4471985954      -41.7155554778        3.3122934011  IONS      9               1.0000000000
        10        10  SOD       SOD             3.5759884928      -26.1153072886      -46.1369511221  IONS      10              1.0000000000
        11        11  SOD       SOD           -27.4073691910        1.0506144141      -32.3900448256  IONS      11              1.0000000000
        12        12  SOD       SOD            11.7912180163      -30.5205651090       36.9439118900  IONS      12              1.0000000000
        13        13  SOD       SOD           -11.9271715872       21.4327808935       -9.6227172115  IONS      13              1.0000000000
        14        14  SOD       SOD            11.9300931812      -25.9596888082       26.2007161726  IONS      14              1.0000000000
        15        15  SOD       SOD           -20.8155132093       39.4334388116        2.2309973018  IONS      15              1.0000000000
        16        16  SOD       SOD             1.1162831022      -25.1957543989       -6.7204410199  IONS      16              1.0000000000
        17        17  SOD       SOD            26.6185513346        0.2872558069      -38.4852094285  IONS      17              1.0000000000
        18        18  SOD       SOD            -7.3023454418      -22.1307575941       18.7931300163  IONS      18              1.0000000000
        19        19  SOD       SOD             9.4667486811        8.7678963351        7.3735881527  IONS      19              1.0000000000
        20        20  SOD       SOD            -0.4370914037       28.0197322131       -5.8251921388  IONS      20              1.0000000000
        21        21  SOD       SOD           -27.0235502996      -20.5904244509      -10.9805192276  IONS      21              1.0000000000
        22        22  SOD       SOD           -40.1016657973       10.6359393179        2.4430465643  IONS      22              1.0000000000
        23        23  SOD       SOD            -1.1906253996      -40.3597374611       14.6981954006  IONS      23              1.0000000000
        24        24  SOD       SOD           -23.3638614672      -46.4127559995        4.4638093294  IONS      24              1.0000000000
        25        25  SOD       SOD           -36.2699005818      -32.3786703233        4.2614049472  IONS      25              1.0000000000
        26        26  SOD       SOD           -11.7306998383      -40.6906976800      -11.5656053929  IONS      26              1.0000000000
        27        27  SOD       SOD           -13.2820064411      -26.3060728698      -28.6950410420  IONS      27              1.0000000000
        28        28  SOD       SOD            -1.0334473698       36.4142963627        2.5506324572  IONS      28              1.0000000000
        29        29  SOD       SOD             2.4548631845      -28.1573241915        4.4380094956  IONS      29              1.0000000000
        30        30  SOD       SOD            16.3676070700       40.4916690705      -25.9101704364  IONS      30              1.0000000000
        31        31  SOD       SOD            30.5692245640      -24.4577228213      -25.9644132281  IONS      31              1.0000000000
        32        32  SOD       SOD            29.8545484314        8.5940108203        5.4589378078  IONS      32              1.0000000000
        33        33  SOD       SOD            31.3507174001       16.6412762092       15.2543231513  IONS      33              1.0000000000
        34        34  SOD       SOD            14.8869971928       -9.6865611097       32.2006263552  IONS      34              1.0000000000
        35        35  SOD       SOD           -44.4911756792       -5.2069688529        5.4571429612  IONS      35              1.0000000000
        36        36  SOD       SOD             2.2770491496      -40.0270839754        0.1874188529  IONS      36              1.0000000000
        37        37  SOD       SOD             5.0394550690       39.3006869942       28.1871723301  IONS      37              1.0000000000
        38        38  SOD       SOD            37.1040951829        7.5768213769      -19.6183793778  IONS      38              1.0000000000
        39        39  SOD       SOD           -23.5310100867       18.9336487343        4.2041002464  IONS      39              1.0000000000
        40        40  SOD       SOD            22.4627150178       18.2189540074      -10.8837824785  IONS      40              1.0000000000
        41        41  SOD       SOD            42.4986150917       -8.6789050235        6.0709500473  IONS      41              1.0000000000
        42        42  SOD       SOD            -3.2698747993      -21.9267593595      -33.1060680604  IONS      42              1.0000000000
        43        43  SOD       SOD           -37.1967448822        6.3281832523       -9.4141800281  IONS      43              1.0000000000
        44        44  CLA       CLA            36.6806863115       -1.7361965212       34.2196241107  IONS      44             -1.0000000000
        45        45  CLA       CLA           -19.1637213815      -40.7055545274        7.1838500511  IONS      45             -1.0000000000
        46        46  CLA       CLA           -31.7090961685      -18.3077137859        3.9114952914  IONS      46             -1.0000000000
        47        47  CLA       CLA           -25.8260056548       -5.6990240777      -35.0700455954  IONS      47             -1.0000000000
        48        48  CLA       CLA             8.1293109577       38.7835984099      -19.1220531097  IONS      48             -1.0000000000
        49        49  CLA       CLA           -18.8637301230       24.8161911279      -17.2596539197  IONS      49             -1.0000000000
        50        50  CLA       CLA           -34.3349783572      -35.5344139594        5.4437116763  IONS      50             -1.0000000000
        51        51  CLA       CLA            29.9140930992       26.0996266669       15.9982172740  IONS      51             -1.0000000000
        52        52  CLA       CLA           -30.6149929264      -34.0345630032       -0.5845295813  IONS      52             -1.0000000000
        53        53  CLA       CLA            -3.2970920936       -1.4875575264      -41.1072532079  IONS      53             -1.0000000000
        54        54  CLA       CLA            24.0327191625       10.9077011289       27.1439608531  IONS      54             -1.0000000000
        55        55  CLA       CLA             3.3557988951      -22.1364198861       -4.0575163163  IONS      55             -1.0000000000
        56        56  CLA       CLA           -16.2861818110      -16.4764223017       17.6746765910  IONS      56             -1.0000000000
        57        57  CLA       CLA            -7.1612790086       26.8312834185       22.1652760155  IONS      57             -1.0000000000
        58        58  CLA       CLA           -22.3877536074       16.7529083637       -4.1799977075  IONS      58             -1.0000000000
        59        59  CLA       CLA            11.3046908703       36.0512495005       -3.2302997071  IONS      59             -1.0000000000
        60        60  CLA       CLA           -17.9576665549      -34.8418198828       29.8589337255  IONS      60             -1.0000000000
        61        61  CLA       CLA            16.0071680955       15.1145210936       36.9390090887  IONS      61             -1.0000000000
        62        62  CLA       CLA           -37.7307132889        3.4271697785        1.0962719202  IONS      62             -1.0000000000
        63        63  CLA       CLA            -7.3628116013      -28.3781124018      -31.0900917609  IONS      63             -1.0000000000
        64        64  CLA       CLA            33.6203836459       -3.7657352373       13.4694895808  IONS      64             -1.0000000000
        65        65  CLA       CLA            13.2134502282       15.8930661176       13.5986490497  IONS      65             -1.0000000000
        66        66  CLA       CLA             4.0618034097      -45.7645734364      -12.8838196835  IONS      66             -1.0000000000
        67        67  CLA       CLA             8.1554993675      -20.9303016356       12.2372661166  IONS      67             -1.0000000000
        68        68  CLA       CLA           -21.4977969960       12.9674330594       27.2674116997  IONS      68             -1.0000000000
        69        69  CLA       CLA             2.3477617935       48.4657671004       23.2421883372  IONS      69             -1.0000000000
        70        70  CLA       CLA            -0.2568017899       15.5228331755       11.5574684745  IONS      70             -1.0000000000
        71        71  CLA       CLA            16.0732029140        7.3423889407       14.3930310460  IONS      71             -1.0000000000
        72        72  CLA       CLA             9.4422698626        8.3300627792       37.2333856228  IONS      72             -1.0000000000
        73        73  CLA       CLA            -7.3862858107       -0.4697996940       16.5988384117  IONS      73             -1.0000000000
        74        74  CLA       CLA           -24.3160536763       20.5958129815       38.9129434248  IONS      74             -1.0000000000
        75        75  CLA       CLA            -8.4013655844       -8.2983022575       -7.9475858266  IONS      75             -1.0000000000
        76        76  CLA       CLA           -11.1962605182       15.6068397516        9.5330631762  IONS      76             -1.0000000000
        77        77  CLA       CLA            27.4106045286      -20.6021238677       29.6305941666  IONS      77             -1.0000000000
        78        78  CLA       CLA            23.2590687513      -12.6460692845      -28.3225788869  IONS      78             -1.0000000000
        79        79  CLA       CLA             0.1185472114       27.0109924991       41.0251877316  IONS      79             -1.0000000000
        80        80  CLA       CLA            -2.2966921267      -31.1063037286      -33.7742453046  IONS      80             -1.0000000000
        81        81  CLA       CLA             6.5992922316       31.1759367360       22.8250093043  IONS      81             -1.0000000000
        82        82  CLA       CLA            41.7513610673       15.7539497969        6.6176130747  IONS      82             -1.0000000000
        83        83  CLA       CLA           -14.6594675485      -10.4145234789        8.1239403444  IONS      83             -1.0000000000
        84        84  CLA       CLA            -6.2600928347      -47.6869746851      -14.8320937750  IONS      84             -1.0000000000
        85        85  CLA       CLA           -25.1276357480       21.7854106063      -37.8509172947  IONS      85             -1.0000000000
        86        86  CLA       CLA             8.7339558071       30.3173767137        2.7075667213  IONS      86             -1.0000000000
