* GENERATED BY CHARMM-GUI (HTTP://WWW.CHARMM-GUI.ORG) V3.7 ON JUN, 17. 2026. JOB
* READ PDB, MANIPULATE STRUCTURE IF NEEDED, AND GENERATE TOPOLOGY FILE
*  DATE:     6/17/26     19:41:27      CREATED BY USER: charmm-gui
*
       159  EXT
         1         1  GLY       N               6.3690000000       11.9290000000       15.7190000000  PROA      1              97.5800000000
         2         1  GLY       HT1             6.3557049323       12.1886228088       16.7259852225  PROA      1               0.0000000000
         3         1  GLY       HT2             5.4395306323       12.1285357322       15.2972514704  PROA      1               0.0000000000
         4         1  GLY       HT3             7.0984725999       12.4839117902       15.2275305023  PROA      1               0.0000000000
         5         1  GLY       CA              6.6670000000       10.5120000000       15.5870000000  PROA      1              97.9400000000
         6         1  GLY       HA1             5.8928251795        9.9668382492       16.1063796043  PROA      1               0.0000000000
         7         1  GLY       HA2             7.6266117974       10.3366772667       16.0503684260  PROA      1               0.0000000000
         8         1  GLY       C               6.7200000000       10.0450000000       14.1440000000  PROA      1              98.2800000000
         9         1  GLY       O               6.3930000000       10.8030000000       13.2290000000  PROA      1              97.9700000000
        10         2  PRO       N               7.2070000000        8.7390000000       13.7470000000  PROA      2              98.5600000000
        11         2  PRO       CD              7.5150000000        7.7020000000       14.7730000000  PROA      2              96.1900000000
        12         2  PRO       HD1             6.7115536625        7.6669309371       15.5380819535  PROA      2               0.0000000000
        13         2  PRO       HD2             8.4907818507        7.9168217371       15.2565366100  PROA      2               0.0000000000
        14         2  PRO       CA              7.1330000000        8.2000000000       12.3870000000  PROA      2              98.5800000000
        15         2  PRO       HA              7.6366787693        8.8557372432       11.6950327085  PROA      2               0.0000000000
        16         2  PRO       CB              7.7600000000        6.8110000000       12.5230000000  PROA      2              98.4600000000
        17         2  PRO       HB1             8.8408469850        6.8395802346       12.2680008873  PROA      2               0.0000000000
        18         2  PRO       HB2             7.2528131812        6.0823241350       11.8552690684  PROA      2               0.0000000000
        19         2  PRO       CG              7.5630000000        6.4420000000       13.9580000000  PROA      2              97.6200000000
        20         2  PRO       HG1             6.6121172670        5.8796955068       14.0760159150  PROA      2               0.0000000000
        21         2  PRO       HG2             8.4033596678        5.8018268508       14.3018982975  PROA      2               0.0000000000
        22         2  PRO       C               5.7000000000        8.1020000000       11.8680000000  PROA      2              98.6500000000
        23         2  PRO       O               4.7550000000        8.0540000000       12.6600000000  PROA      2              98.5600000000
        24         3  GLY       N               5.5930000000        8.2560000000       10.5660000000  PROA      3              98.3700000000
        25         3  GLY       HN              6.3671782283        8.4774436719        9.9781097184  PROA      3               0.0000000000
        26         3  GLY       CA              4.2960000000        8.1020000000        9.9250000000  PROA      3              98.3500000000
        27         3  GLY       HA1             4.4263849055        8.2844055936        8.8685839366  PROA      3               0.0000000000
        28         3  GLY       HA2             3.6285207199        8.8367780793       10.3502758024  PROA      3               0.0000000000
        29         3  GLY       C               3.6960000000        6.7230000000       10.1160000000  PROA      3              98.5300000000
        30         3  GLY       O               4.3810000000        5.7960000000       10.5540000000  PROA      3              98.4400000000
        31         4  ALA       N               2.4720000000        6.6040000000        9.8660000000  PROA      4              98.4900000000
        32         4  ALA       HN              1.8964480564        7.3834018409        9.6311078637  PROA      4               0.0000000000
        33         4  ALA       CA              1.8150000000        5.3000000000        9.9060000000  PROA      4              98.4400000000
        34         4  ALA       HA              2.0931630549        4.8121747374       10.8284021043  PROA      4               0.0000000000
        35         4  ALA       CB              0.2990000000        5.4650000000        9.8280000000  PROA      4              98.2700000000
        36         4  ALA       HB1             0.0186993747        5.9757567965        8.8820189990  PROA      4               0.0000000000
        37         4  ALA       HB2            -0.0590118577        6.0787732589       10.6820281009  PROA      4               0.0000000000
        38         4  ALA       HB3            -0.1915612402        4.4684891898        9.8518741581  PROA      4               0.0000000000
        39         4  ALA       C               2.3070000000        4.4020000000        8.7740000000  PROA      4              98.5700000000
        40         4  ALA       O               2.7770000000        4.8920000000        7.7440000000  PROA      4              98.4700000000
        41         5  PRO       N               2.2330000000        3.2030000000        8.9810000000  PROA      5              98.2800000000
        42         5  PRO       CD              1.9990000000        2.5810000000       10.1880000000  PROA      5              96.9800000000
        43         5  PRO       HD1             0.9479859429        2.7538907096       10.5019384314  PROA      5               0.0000000000
        44         5  PRO       HD2             2.6943305313        2.9793711781       10.9566969111  PROA      5               0.0000000000
        45         5  PRO       CA              2.5560000000        2.3140000000        7.8630000000  PROA      5              98.2800000000
        46         5  PRO       HA              3.5604063255        2.4963840238        7.5160043311  PROA      5               0.0000000000
        47         5  PRO       CB              2.3240000000        0.9170000000        8.4440000000  PROA      5              98.1700000000
        48         5  PRO       HB1             3.1609115417        0.2360016771        8.1796299233  PROA      5               0.0000000000
        49         5  PRO       HB2             1.3747266909        0.4839754844        8.0626325455  PROA      5               0.0000000000
        50         5  PRO       CG              2.2560000000        1.1250000000        9.9230000000  PROA      5              97.4100000000
        51         5  PRO       HG1             1.4352956185        0.5121464315       10.3532911986  PROA      5               0.0000000000
        52         5  PRO       HG2             3.2156765793        0.8193686831       10.3919414197  PROA      5               0.0000000000
        53         5  PRO       C               1.6670000000        2.5520000000        6.6450000000  PROA      5              98.5100000000
        54         5  PRO       O               0.5510000000        3.0610000000        6.7800000000  PROA      5              98.4600000000
        55         6  GLY       N               2.3160000000        2.2810000000        5.5120000000  PROA      6              98.4200000000
        56         6  GLY       HN              3.2710243631        2.0021979272        5.4556303647  PROA      6               0.0000000000
        57         6  GLY       CA              1.5490000000        2.4100000000        4.2830000000  PROA      6              98.3600000000
        58         6  GLY       HA1             2.2238211702        2.2520951740        3.4547662173  PROA      6               0.0000000000
        59         6  GLY       HA2             1.1457513401        3.4112690869        4.2492438368  PROA      6               0.0000000000
        60         6  GLY       C               0.4080000000        1.4160000000        4.1850000000  PROA      6              98.5400000000
        61         6  GLY       O               0.2760000000        0.5290000000        5.0310000000  PROA      6              98.4400000000
        62         7  PRO       N              -0.3350000000        1.5660000000        3.2970000000  PROA      7              98.5500000000
        63         7  PRO       CD             -0.2290000000        2.6060000000        2.2420000000  PROA      7              97.8400000000
        64         7  PRO       HD1             0.7936666344        2.6116734213        1.8102838005  PROA      7               0.0000000000
        65         7  PRO       HD2            -0.4691116799        3.6048903170        2.6625028245  PROA      7               0.0000000000
        66         7  PRO       CA             -1.3640000000        0.5630000000        3.0150000000  PROA      7              98.5300000000
        67         7  PRO       HA             -1.9185983929        0.3315409929        3.9101897311  PROA      7               0.0000000000
        68         7  PRO       CB             -2.1900000000        1.2090000000        1.9000000000  PROA      7              98.4700000000
        69         7  PRO       HB1            -3.0685351886        1.7439372139        2.3196370165  PROA      7               0.0000000000
        70         7  PRO       HB2            -2.5469837600        0.4426524599        1.1793397688  PROA      7               0.0000000000
        71         7  PRO       CG             -1.2540000000        2.1660000000        1.2360000000  PROA      7              98.0200000000
        72         7  PRO       HG1            -0.7522527250        1.6696184815        0.3780082813  PROA      7               0.0000000000
        73         7  PRO       HG2            -1.8177049014        3.0469320628        0.8611797575  PROA      7               0.0000000000
        74         7  PRO       C              -0.7780000000       -0.7710000000        2.5560000000  PROA      7              98.6700000000
        75         7  PRO       O               0.3750000000       -0.8250000000        2.1210000000  PROA      7              98.6300000000
        76         8  GLY       N              -1.6100000000       -1.8190000000        2.7110000000  PROA      8              98.4700000000
        77         8  GLY       HN             -2.5185264481       -1.7573633484        3.1164323255  PROA      8               0.0000000000
        78         8  GLY       CA             -1.1480000000       -3.1210000000        2.2560000000  PROA      8              98.4400000000
        79         8  GLY       HA1            -1.8453738080       -3.8628787361        2.6159641617  PROA      8               0.0000000000
        80         8  GLY       HA2            -0.1701961925       -3.2914043647        2.6816178468  PROA      8               0.0000000000
        81         8  GLY       C              -1.0530000000       -3.2260000000        0.7460000000  PROA      8              98.6500000000
        82         8  GLY       O              -1.5500000000       -2.3580000000        0.0250000000  PROA      8              98.6000000000
        83         9  ALA       N              -0.4640000000       -4.2090000000        0.2460000000  PROA      9              98.6400000000
        84         9  ALA       HN             -0.0210785547       -4.8803798381        0.8331890757  PROA      9               0.0000000000
        85         9  ALA       CA             -0.3500000000       -4.4930000000       -1.1820000000  PROA      9              98.6200000000
        86         9  ALA       HA             -0.0837770667       -3.5759958383       -1.6863833809  PROA      9               0.0000000000
        87         9  ALA       CB              0.7110000000       -5.5630000000       -1.4290000000  PROA      9              98.5000000000
        88         9  ALA       HB1             0.4374723417       -6.5011185218       -0.9003817453  PROA      9               0.0000000000
        89         9  ALA       HB2             1.6948371502       -5.2150539568       -1.0478804471  PROA      9               0.0000000000
        90         9  ALA       HB3             0.7857016959       -5.7775250638       -2.5164983928  PROA      9               0.0000000000
        91         9  ALA       C              -1.6910000000       -4.9340000000       -1.7620000000  PROA      9              98.7500000000
        92         9  ALA       O              -2.5740000000       -5.3830000000       -1.0280000000  PROA      9              98.7100000000
        93        10  PRO       N              -1.6970000000       -4.8140000000       -3.0640000000  PROA      10             98.6100000000
        94        10  PRO       CD             -0.8110000000       -4.1870000000       -3.9270000000  PROA      10             97.7200000000
        95        10  PRO       HD1             0.0719951143       -4.8363284996       -4.1038561278  PROA      10              0.0000000000
        96        10  PRO       HD2            -0.4873339623       -3.2146754411       -3.4999037457  PROA      10              0.0000000000
        97        10  PRO       CA             -2.9230000000       -5.3320000000       -3.6760000000  PROA      10             98.5900000000
        98        10  PRO       HA             -3.7908332045       -4.9165256843       -3.1893876997  PROA      10              0.0000000000
        99        10  PRO       CB             -2.7700000000       -4.9470000000       -5.1500000000  PROA      10             98.5500000000
       100        10  PRO       HB1            -3.6929632441       -4.4572237103       -5.5272761324  PROA      10              0.0000000000
       101        10  PRO       HB2            -2.5594852911       -5.8432772428       -5.7716509514  PROA      10              0.0000000000
       102        10  PRO       CG             -1.6160000000       -3.9980000000       -5.1800000000  PROA      10             98.0900000000
       103        10  PRO       HG1            -0.9828233853       -4.2013782399       -6.0699548386  PROA      10              0.0000000000
       104        10  PRO       HG2            -1.9880424822       -2.9526449789       -5.2357872734  PROA      10              0.0000000000
       105        10  PRO       C              -3.0670000000       -6.8440000000       -3.5200000000  PROA      10             98.7200000000
       106        10  PRO       O              -2.0760000000       -7.5420000000       -3.2910000000  PROA      10             98.6900000000
       107        11  GLY       N              -4.3140000000       -7.3310000000       -3.4880000000  PROA      11             98.4400000000
       108        11  GLY       HN             -5.1188227363       -6.7428914853       -3.5056454547  PROA      11              0.0000000000
       109        11  GLY       CA             -4.5590000000       -8.7630000000       -3.4250000000  PROA      11             98.4100000000
       110        11  GLY       HA1            -5.6249885945       -8.9118993075       -3.3367545710  PROA      11              0.0000000000
       111        11  GLY       HA2            -4.0556961239       -9.1457544437       -2.5495148847  PROA      11              0.0000000000
       112        11  GLY       C              -4.0570000000       -9.5080000000       -4.6470000000  PROA      11             98.5800000000
       113        11  GLY       O              -3.5540000000       -8.8950000000       -5.5920000000  PROA      11             98.5300000000
       114        12  PRO       N              -4.0620000000      -10.7240000000       -4.7150000000  PROA      12             98.5600000000
       115        12  PRO       CD             -4.6270000000      -11.5470000000       -3.5940000000  PROA      12             97.2700000000
       116        12  PRO       HD1            -5.6557525231      -11.2096858958       -3.3491241360  PROA      12              0.0000000000
       117        12  PRO       HD2            -3.9787295815      -11.4715750654       -2.6961507413  PROA      12              0.0000000000
       118        12  PRO       CA             -3.6900000000      -11.5290000000       -5.8810000000  PROA      12             98.5600000000
       119        12  PRO       HA             -2.7503132560      -11.1906147583       -6.2872260276  PROA      12              0.0000000000
       120        12  PRO       CB             -3.6720000000      -12.9580000000       -5.3310000000  PROA      12             98.5000000000
       121        12  PRO       HB1            -2.6499969620      -13.2401338667       -4.9993706405  PROA      12              0.0000000000
       122        12  PRO       HB2            -4.0117054961      -13.6817678318       -6.1022509722  PROA      12              0.0000000000
       123        12  PRO       CG             -4.6180000000      -12.9330000000       -4.1730000000  PROA      12             97.8300000000
       124        12  PRO       HG1            -5.6394277509      -13.2064255298       -4.5139071509  PROA      12              0.0000000000
       125        12  PRO       HG2            -4.2900366030      -13.6622810032       -3.4017133575  PROA      12              0.0000000000
       126        12  PRO       C              -4.6870000000      -11.4000000000       -7.0300000000  PROA      12             98.7200000000
       127        12  PRO       O              -5.8410000000      -11.0230000000       -6.8110000000  PROA      12             98.6900000000
       128        13  GLY       N              -4.2190000000      -11.6030000000       -8.2750000000  PROA      13             98.5000000000
       129        13  GLY       HN             -3.2508906350      -11.7470965242       -8.4644474557  PROA      13              0.0000000000
       130        13  GLY       CA             -5.1120000000      -11.6230000000       -9.4230000000  PROA      13             98.5100000000
       131        13  GLY       HA1            -4.5055385197      -11.7239251674      -10.3108647743  PROA      13              0.0000000000
       132        13  GLY       HA2            -5.6463424658      -10.6846937323       -9.4415674788  PROA      13              0.0000000000
       133        13  GLY       C              -6.1150000000      -12.7600000000       -9.3800000000  PROA      13             98.6700000000
       134        13  GLY       O              -5.9690000000      -13.6940000000       -8.5890000000  PROA      13             98.6600000000
       135        14  ALA       N              -7.0240000000      -12.8320000000      -10.0130000000  PROA      14             98.6100000000
       136        14  ALA       HN             -7.2243034675      -12.0635169288      -10.6072168003  PROA      14              0.0000000000
       137        14  ALA       CA             -8.0300000000      -13.8820000000      -10.1510000000  PROA      14             98.5700000000
       138        14  ALA       HA             -8.2588173366      -14.2592491270       -9.1653531358  PROA      14              0.0000000000
       139        14  ALA       CB             -9.2890000000      -13.3290000000      -10.8140000000  PROA      14             98.4300000000
       140        14  ALA       HB1            -9.0466180958      -12.9335427444      -11.8235472112  PROA      14              0.0000000000
       141        14  ALA       HB2            -9.7076565986      -12.5027748525      -10.2005403365  PROA      14              0.0000000000
       142        14  ALA       HB3           -10.0453493421      -14.1356526990      -10.9212436320  PROA      14              0.0000000000
       143        14  ALA       C              -7.4850000000      -15.0620000000      -10.9520000000  PROA      14             98.6800000000
       144        14  ALA       O              -6.5730000000      -14.8990000000      -11.7660000000  PROA      14             98.6200000000
       145        15  PRO       N              -7.7020000000      -16.3590000000      -10.2820000000  PROA      15             98.3400000000
       146        15  PRO       CD             -8.4720000000      -16.5290000000       -9.2290000000  PROA      15             97.1600000000
       147        15  PRO       HD1            -9.4980214513      -16.1712040508       -9.4586145962  PROA      15              0.0000000000
       148        15  PRO       HD2            -8.0563039814      -15.9603682450       -8.3703291843  PROA      15              0.0000000000
       149        15  PRO       CA             -7.2550000000      -17.5700000000      -10.9740000000  PROA      15             98.1700000000
       150        15  PRO       HA             -6.1838464835      -17.5592131576      -11.0966372890  PROA      15              0.0000000000
       151        15  PRO       CB             -7.7860000000      -18.6990000000      -10.0870000000  PROA      15             98.0900000000
       152        15  PRO       HB1            -6.9535133430      -19.3356138864       -9.7185392399  PROA      15              0.0000000000
       153        15  PRO       HB2            -8.5040451348      -19.3355681413      -10.6467024138  PROA      15              0.0000000000
       154        15  PRO       CG             -8.4660000000      -18.0050000000       -8.9510000000  PROA      15             97.4300000000
       155        15  PRO       HG1            -9.5089243949      -18.3749549551       -8.8523242180  PROA      15              0.0000000000
       156        15  PRO       HG2            -7.9220114691      -18.2087188009       -8.0039677932  PROA      15              0.0000000000
       157        15  PRO       C              -7.8150000000      -17.6810000000      -12.3900000000  PROA      15             98.2300000000
       158        15  PRO       OT1            -8.5710206312      -16.7605956770      -12.8009606884  PROA      15              0.0000000000
       159        15  PRO       OT2            -7.4929185494      -18.6874172677      -13.0762855254  PROA      15              0.0000000000
