Title
19927
    1ASP      N    1   5.709   5.370   2.839 -0.3246 -0.5288  0.2337
    1ASP    HT1    2   5.787   5.375   2.908  0.9272  0.3472 -1.1721
    1ASP    HT2    3   5.695   5.269   2.820 -1.4456 -0.1770 -0.9709
    1ASP    HT3    4   5.622   5.409   2.880  0.8230  1.4217  0.9717
    1ASP     CA    5   5.720   5.445   2.708 -0.0064  0.4566 -0.1590
    1ASP     HA    6   5.813   5.413   2.662  0.3635  0.1535  0.7850
    1ASP     CB    7   5.591   5.405   2.619 -0.2340  0.7466  0.4285
    1ASP    HB1    8   5.490   5.440   2.647 -0.0761  1.6034 -0.0341
    1ASP    HB2    9   5.577   5.296   2.633 -1.9112  0.8948  0.1155
    1ASP     CG   10   5.613   5.431   2.471 -0.3075 -0.3382  0.0296
    1ASP    OD1   11   5.522   5.401   2.389  0.0609 -0.5837 -0.8056
    1ASP    OD2   12   5.716   5.497   2.439  0.2741  0.3622  0.2803
    1ASP      C   13   5.731   5.596   2.733 -0.3791  0.3312 -0.1196
    1ASP      O   14   5.727   5.637   2.845 -0.0687 -0.1966  0.2293
    2ALA      N   15   5.763   5.672   2.628  0.1400  0.0341  0.8304
    2ALA     HN   16   5.751   5.634   2.536  0.5780 -0.7376  1.0808
    2ALA     CA   17   5.801   5.815   2.630 -0.0169  0.2891  0.0063
    2ALA     HA   18   5.890   5.823   2.691  0.1232 -0.0215 -0.1505
    2ALA     CB   19   5.829   5.860   2.481  0.8255 -0.0127 -0.1606
    2ALA    HB1   20   5.735   5.858   2.421  0.0188  1.3326  0.9843
    2ALA    HB2   21   5.907   5.802   2.429  1.1774  0.4726 -0.1803
    2ALA    HB3   22   5.858   5.967   2.490  0.2499  0.2112 -0.8412
    2ALA      C   23   5.692   5.899   2.700 -0.5311 -0.3156  0.5912
    2ALA      O   24   5.574   5.873   2.680  0.4634  0.7686 -0.0391
    3ASP      N   25   5.739   6.000   2.778 -0.3953  0.2137  0.0415
    3ASP     HN   26   5.836   6.013   2.796 -0.7904  1.6391  1.3506
    3ASP     CA   27   5.654   6.100   2.845  0.0292  0.3742 -0.5079
    3ASP     HA   28   5.576   6.041   2.891  0.1003 -1.3212 -2.3773
    3ASP     CB   29   5.733   6.174   2.944 -0.6146 -0.2184 -0.6079
    3ASP    HB1   30   5.675   6.258   2.988 -0.1325  0.1213 -0.6112
    3ASP    HB2   31   5.826   6.212   2.897  0.8323 -1.0921  1.3768
    3ASP     CG   32   5.779   6.092   3.060  0.3202 -0.0501  0.0121
    3ASP    OD1   33   5.726   5.983   3.084  0.9611  0.3756 -0.5422
    3ASP    OD2   34   5.859   6.143   3.136 -0.4180 -0.2389  0.7200
    3ASP      C   35   5.572   6.196   2.754  0.1709 -0.3427  0.5426
    3ASP      O   36   5.621   6.238   2.648 -0.0375 -0.5464 -0.8153
    4GLY      N   37   5.450   6.241   2.796  0.7555  0.2091 -0.8964
    4GLY     HN   38   5.421   6.217   2.888  2.7020 -0.9322 -0.5229
    4GLY     CA   39   5.343   6.324   2.719 -0.6735 -0.0962 -0.0706
    4GLY    HA1   40   5.251   6.299   2.770  0.7199 -1.1208  2.1258
    4GLY    HA2   41   5.336   6.294   2.616 -0.6703 -0.1194 -0.0644
    4GLY      C   42   5.377   6.470   2.726  1.4664 -0.5818 -0.6761
    4GLY      O   43   5.479   6.501   2.785  0.0603  0.0525 -0.5824
    5PRO      N   44   5.293   6.560   2.670 -0.2588  0.5285  0.5249
    5PRO     CD   45   5.199   6.525   2.562  0.8848  0.4567 -0.3337
    5PRO    HD1   46   5.121   6.457   2.602  0.3796  0.4804 -1.2460
    5PRO    HD2   47   5.255   6.471   2.483  1.3954 -1.1849  1.0892
    5PRO     CA   48   5.314   6.693   2.685 -0.3884 -0.4904 -0.5894
    5PRO     HA   49   5.391   6.724   2.615  1.4240  0.8992  1.8466
    5PRO     CB   50   5.180   6.746   2.641  0.2405  0.6190  0.4412
    5PRO    HB1   51   5.191   6.854   2.616  1.7945  0.5146  0.5547
    5PRO    HB2   52   5.112   6.737   2.728 -0.6494  0.2095 -0.2761
    5PRO     CG   53   5.136   6.659   2.516  0.4631  0.4616 -0.4745
    5PRO    HG1   54   5.029   6.647   2.491 -0.0234  0.7673  1.3143
    5PRO    HG2   55   5.187   6.699   2.426 -0.2275 -0.8157 -1.4684
    5PRO      C   56   5.360   6.745   2.823  0.5722 -0.2691 -0.2298
    5PRO      O   57   5.313   6.692   2.923  0.4576  0.6092  0.3918
    6GLY      N   58   5.434   6.855   2.829 -0.1648  0.1169  0.5290
    6GLY     HN   59   5.453   6.899   2.741 -1.1811 -1.5874 -0.6144
    6GLY     CA   60   5.472   6.917   2.950 -0.0221  0.0440 -0.6594
    6GLY    HA1   61   5.554   6.985   2.932  2.5847 -1.8194  2.8289
    6GLY    HA2   62   5.501   6.843   3.024  0.5527  2.4847  1.7264
    6GLY      C   63   5.373   7.007   3.019  0.5326  0.4222  0.0663
    6GLY      O   64   5.254   7.012   2.984  0.2052 -0.2692 -0.2084
    7ASP      N   65   5.417   7.081   3.123  0.3277 -0.0092  0.0078
    7ASP     HN   66   5.509   7.059   3.156 -0.1631 -1.9499  0.2274
    7ASP     CA   67   5.332   7.182   3.182  0.0513 -0.0088  0.2321
    7ASP     HA   68   5.246   7.125   3.214 -0.9526  0.7619 -1.0088
    7ASP     CB   69   5.397   7.242   3.308  1.5697  0.4367 -0.4278
    7ASP    HB1   70   5.336   7.320   3.357 -0.4502 -0.3679 -1.5488
    7ASP    HB2   71   5.492   7.292   3.278  0.5578  3.2871  0.7648
    7ASP     CG   72   5.409   7.131   3.409 -0.2645  0.6701 -0.4186
    7ASP    OD1   73   5.330   7.031   3.415  0.0324  0.0154  1.0990
    7ASP    OD2   74   5.493   7.149   3.497 -0.3426  0.2114 -0.3707
    7ASP      C   75   5.275   7.297   3.095  0.5886 -0.3335  0.3566
    7ASP      O   76   5.335   7.335   2.992 -0.0100 -0.2798 -0.6300
    8PRO      N   77   5.160   7.352   3.118  0.2663  0.1516 -0.7213
    8PRO     CD   78   5.063   7.294   3.207 -0.8669  0.3771  0.8777
    8PRO    HD1   79   5.104   7.313   3.309  1.2156 -2.0531  0.6082
    8PRO    HD2   80   5.047   7.187   3.180  3.0836  0.2137 -1.7499
    8PRO     CA   81   5.131   7.489   3.086  0.1840 -0.2273  0.1545
    8PRO     HA   82   5.107   7.493   2.981 -0.8705 -0.9123  0.3450
    8PRO     CB   83   5.005   7.509   3.168  0.4652  0.4394  0.2669
    8PRO    HB1   84   4.937   7.573   3.108 -0.0562  1.4707  1.9050
    8PRO    HB2   85   5.033   7.553   3.265 -1.0749  0.5214  0.6956
    8PRO     CG   86   4.935   7.372   3.180 -0.0313 -0.1596 -0.5553
    8PRO    HG1   87   4.859   7.374   3.261  0.0627  0.7486 -0.4811
    8PRO    HG2   88   4.897   7.352   3.078 -0.7377 -1.5210 -0.0571
    8PRO      C   89   5.238   7.598   3.101  0.0816  0.0648  0.3769
    8PRO      O   90   5.311   7.594   3.202  0.2506  0.0730 -0.1148
    9ASP      N   91   5.241   7.694   3.008 -0.5767  0.5476 -0.5529
    9ASP     HN   92   5.185   7.692   2.926 -0.0058  1.3343 -0.9789
    9ASP     CA   93   5.329   7.812   3.013  0.1148 -0.2986 -0.3980
    9ASP     HA   94   5.429   7.788   3.045  1.0923  1.9426 -1.5598
    9ASP     CB   95   5.334   7.864   2.869  0.4441  0.0386  0.1211
    9ASP    HB1   96   5.232   7.875   2.826  0.8502  0.0424 -0.8707
    9ASP    HB2   97   5.388   7.789   2.808 -1.2972 -0.8778 -0.3824
    9ASP     CG   98   5.427   7.982   2.849  0.0137 -0.8060  0.1684
    9ASP    OD1   99   5.519   8.013   2.928  0.5104  0.1784  0.0237
    9ASP    OD2  100   5.401   8.048   2.745  0.1498 -0.1551  0.2005
    9ASP      C  101   5.268   7.907   3.114 -0.1976 -0.5249  0.2463
    9ASP      O  102   5.148   7.928   3.116 -0.4546  0.0916 -0.0941
   10ALA      N  103   5.351   7.967   3.202  0.4694 -0.3333 -0.2989
   10ALA     HN  104   5.448   7.941   3.199  0.5154 -0.2201  0.0735
   10ALA     CA  105   5.293   8.037   3.311  0.8242 -1.2889  0.0970
   10ALA     HA  106   5.214   8.102   3.277  2.2680 -0.3819 -1.6776
   10ALA     CB  107   5.229   7.949   3.420  1.1610 -0.7679 -0.0597
   10ALA    HB1  108   5.185   8.017   3.496  1.4584  1.8151 -2.0782
   10ALA    HB2  109   5.311   7.888   3.464  0.6938 -0.9717  0.5384
   10ALA    HB3  110   5.140   7.891   3.388 -0.0726  0.5520  0.8517
   10ALA      C  111   5.392   8.136   3.374 -0.3417 -0.1614  0.2158
   10ALA      O  112   5.515   8.122   3.368  0.7099  0.1030 -0.1776
   11GLY      N  113   5.333   8.234   3.442 -0.1004  0.1947  0.1589
   11GLY     HN  114   5.233   8.241   3.445 -0.2390 -0.7382 -1.2652
   11GLY     CA  115   5.413   8.337   3.505  0.0881  0.5839 -0.2651
   11GLY    HA1  116   5.443   8.402   3.424  0.6165 -1.4413 -1.7698
   11GLY    HA2  117   5.493   8.298   3.565 -1.2583 -1.1642  0.4687
   11GLY      C  118   5.343   8.424   3.606  0.1290  0.4470 -0.1711
   11GLY    OT1  119   5.276   8.381   3.698  0.2647 -0.0840  0.6621
   11GLY    OT2  120   5.366   8.543   3.591 -0.7761 -0.0567  0.2840
   12SOD    SOD  121   4.437   2.904   0.716  0.1296  0.4893 -0.0930
   13SOD    SOD  122   3.945   0.443   3.729  0.1456  0.3904  0.4198
   14SOD    SOD  123   5.578   3.050   4.467  0.1318  0.4702 -0.1783
   15SOD    SOD  124   0.288   4.981   2.717 -0.5116 -0.2817  0.3275
   16SOD    SOD  125   2.123   2.572   3.418  0.4618  0.0919  0.0708
   17SOD    SOD  126   3.804   3.386   4.392 -0.3566 -0.2294 -0.4743
   18SOD    SOD  127   2.269   1.808   1.343  0.0637  0.2116  0.3689
   19SOD    SOD  128   3.427   1.035   2.170 -0.1987 -0.3225 -0.2409
   20SOD    SOD  129   0.615   3.034   1.552  0.2710 -0.0174  0.2084
   21SOD    SOD  130   5.371   4.288   2.218 -0.1374  0.1633  0.2026
   22SOD    SOD  131   6.005   0.984   3.181  0.0287 -0.2313  0.4937
   23SOD    SOD  132   0.544   0.529   1.267 -0.0417 -0.0707  0.5061
   24SOD    SOD  133   4.292   3.331   2.269 -0.0565  0.1384  0.3039
   25SOD    SOD  134   1.361   4.038   3.392 -0.2730 -0.3973 -0.0105
   26SOD    SOD  135   5.601   4.388   3.909 -0.1031  0.0870  0.1245
   27SOD    SOD  136   2.863   3.771   2.213  0.3758  0.6229  0.2920
   28SOD    SOD  137   4.508   0.908   0.453  0.2300 -0.1689  0.0241
   29SOD    SOD  138   3.280   1.014   0.686  0.1695 -0.1623 -0.2859
   30SOD    SOD  139   0.159   2.440   3.875 -0.3669 -0.0832 -0.5220
   31SOD    SOD  140   2.873   2.296   3.237  0.2999 -0.4786 -0.1474
   32SOD    SOD  141   2.922   3.244   2.425  0.1190 -0.3440 -0.0081
   33SOD    SOD  142   2.823   1.937   3.666 -0.1657  0.3702  0.0651
   34CLA    CLA  143   2.914   3.691   2.451 -0.2116  0.3815 -0.3234
   35CLA    CLA  144   2.718   4.880   0.877 -0.0853 -0.1436  0.1780
   36CLA    CLA  145   0.258   4.259   4.209  0.0991  0.0003 -0.1663
   37CLA    CLA  146   3.243   2.483   4.183 -0.0264 -0.1795  0.2651
   38CLA    CLA  147   4.172   2.991   2.823  0.1384 -0.2318  0.1243
   39CLA    CLA  148   4.130   0.797   3.383 -0.0552 -0.0498 -0.3326
   40CLA    CLA  149   0.919   5.631   1.927 -0.0955  0.0903  0.3599
   41CLA    CLA  150   0.358   2.124   1.766  0.1677 -0.3419 -0.0843
   42CLA    CLA  151   3.951   1.232   1.735 -0.0044  0.1738  0.2050
   43CLA    CLA  152   4.553   4.431   4.177  0.1318 -0.4770 -0.1049
   44CLA    CLA  153   2.026   0.697   5.060  0.3222 -0.2418  0.0072
   45CLA    CLA  154   2.836   2.905   1.534  0.2173 -0.7594 -0.0574
   46CLA    CLA  155   0.273   2.594   3.105  0.2975 -0.0156 -0.2488
   47CLA    CLA  156   2.953   0.584   1.218 -0.2181 -0.1331 -0.0576
   48CLA    CLA  157   6.024   2.083   1.980 -0.0251 -0.1484 -0.0010
   49CLA    CLA  158   2.613   1.673   4.815 -0.1022 -0.2207  0.1080
   50CLA    CLA  159   1.959   3.861   1.788  0.3300  0.0941 -0.2447
   51CLA    CLA  160   2.053   3.208   4.567  0.2477  0.0118 -0.0232
   52TIP3   OH2  161   1.443   3.841   4.550 -0.1544 -0.1422  0.0512
   52TIP3    H1  162   1.435   3.935   4.536  0.2764 -0.0136  0.6232
   52TIP3    H2  163   1.536   3.822   4.539 -0.1953 -0.4498  0.2123
   53TIP3   OH2  164   3.246   2.158   3.089  0.3867  0.1948 -0.1901
   53TIP3    H1  165   3.318   2.167   3.027  0.2583  0.1091 -0.3532
   53TIP3    H2  166   3.246   2.240   3.139  1.8494 -0.5708  1.1738
   54TIP3   OH2  167   4.391   3.299   4.939  0.2872 -0.0110  0.0464
   54TIP3    H1  168   4.401   3.269   4.848 -1.8105  1.2431 -0.6742
   54TIP3    H2  169   4.465   3.359   4.952  0.5596 -0.1294 -0.8659
   55TIP3   OH2  170   1.227   5.918   4.562  0.8889  0.7513  0.2183
   55TIP3    H1  171   1.232   5.883   4.651 -0.2982  3.8560  1.6694
   55TIP3    H2  172   1.318   5.922   4.533  1.4039  0.6475  1.7174
   56TIP3   OH2  173   5.681   0.123   3.767  0.3122  0.3827 -0.3083
   56TIP3    H1  174   5.618   0.181   3.810 -0.4540  0.7531 -1.8966
   56TIP3    H2  175   5.755   0.179   3.745 -0.0052  0.5549 -0.9510
   57TIP3   OH2  176   0.365   1.179   3.245 -0.1833  0.3800  0.3052
   57TIP3    H1  177   0.428   1.156   3.314 -1.7491 -0.5805  1.4758
   57TIP3    H2  178   0.315   1.099   3.230 -0.4807  0.8340 -1.3430
   58TIP3   OH2  179   2.010   0.850   2.324  0.2026  0.2294 -0.2952
   58TIP3    H1  180   2.073   0.915   2.354  1.4135 -1.9696  2.3867
   58TIP3    H2  181   1.937   0.858   2.385 -0.0081 -0.3342 -0.4687
   59TIP3   OH2  182   3.809   0.597   2.604 -0.4051  0.3729  0.0899
   59TIP3    H1  183   3.792   0.673   2.547 -1.9760  1.5267  1.9939
   59TIP3    H2  184   3.731   0.543   2.595 -0.3065  0.1576  0.5168
   60TIP3   OH2  185   4.138   0.789   1.231  0.1714  0.6501  0.3433
   60TIP3    H1  186   4.107   0.878   1.214  1.0886  0.6864 -1.3888
   60TIP3    H2  187   4.232   0.793   1.213  0.0851 -0.8462 -0.5626
   61TIP3   OH2  188   4.063   2.134   0.965  0.2301  0.2500 -0.1535
   61TIP3    H1  189   4.103   2.178   0.890 -1.5566  0.7529 -0.8508
   61TIP3    H2  190   4.134   2.128   1.029  1.1073  2.2373 -0.8556
   62TIP3   OH2  191   6.059   1.593   3.077 -0.5889  0.0237 -0.0884
   62TIP3    H1  192   6.140   1.645   3.072 -0.7128  0.1832 -0.5336
   62TIP3    H2  193   5.993   1.650   3.038 -1.2499  0.5171  1.6656
   63TIP3   OH2  194   4.144   0.764   5.081  0.3979 -0.3977 -0.4672
   63TIP3    H1  195   4.202   0.710   5.027  1.3440  0.0236  0.1192
   63TIP3    H2  196   4.187   0.849   5.087 -0.8972  0.3422 -1.0628
   64TIP3   OH2  197   2.774   3.854   1.573  0.5127  0.3843  0.1204
   64TIP3    H1  198   2.694   3.836   1.622  0.4132 -2.9018 -1.0067
   64TIP3    H2  199   2.837   3.881   1.640 -0.0277 -2.4245  1.9301
   65TIP3   OH2  200   0.044   4.523   4.225 -0.2705 -0.1938 -0.2082
   65TIP3    H1  201   0.070   4.447   4.172  0.8738 -0.8687  1.2690
   65TIP3    H2  202   0.114   4.534   4.289 -1.3940  0.8794  0.9021
   66TIP3   OH2  203   1.730   2.775   1.230 -0.2054  0.4456  0.0800
   66TIP3    H1  204   1.796   2.714   1.263 -0.5092  0.2259  0.2825
   66TIP3    H2  205   1.720   2.752   1.138 -0.6766 -0.1318  0.2750
   67TIP3   OH2  206   6.090   4.017   4.704 -0.6329 -0.2930 -0.0993
   67TIP3    H1  207   6.146   3.992   4.630  0.0406 -0.6956  0.5384
   67TIP3    H2  208   6.131   4.096   4.740 -3.1312  2.3543 -2.5339
   68TIP3   OH2  209   0.395   3.118   3.185  0.0784  0.3943 -0.0102
   68TIP3    H1  210   0.429   3.047   3.130  2.4453  1.8307 -0.5190
   68TIP3    H2  211   0.306   3.089   3.208  0.9761 -2.7845 -0.0288
   69TIP3   OH2  212   1.024   2.800   0.053  0.5921  0.3003 -0.0793
   69TIP3    H1  213   0.976   2.730   0.007  0.4526  0.1929  0.2246
   69TIP3    H2  214   1.115   2.771   0.053  0.6753  0.5341 -0.7160
   70TIP3   OH2  215   4.808   1.770   3.951  0.9742  0.6663  0.1424
   70TIP3    H1  216   4.826   1.677   3.968 -1.0389  0.2965  0.4806
   70TIP3    H2  217   4.801   1.809   4.039  4.0129  1.6912  0.0597
   71TIP3   OH2  218   0.161   2.509   1.179 -0.2272 -0.0169  0.1447
   71TIP3    H1  219   0.135   2.429   1.224  0.1644 -1.0144 -1.3511
   71TIP3    H2  220   0.179   2.482   1.089 -0.9053  1.8944 -0.6163
   72TIP3   OH2  221   5.887   2.253   4.195 -0.7106  0.2289  0.2882
   72TIP3    H1  222   5.853   2.335   4.161  0.1487  1.9108  3.1025
   72TIP3    H2  223   5.837   2.184   4.151 -1.0102  2.1859 -2.6508
   73TIP3   OH2  224   3.722   0.408   3.731 -0.3799 -0.2150  0.0009
   73TIP3    H1  225   3.665   0.482   3.709 -2.6342 -0.6767  3.4085
   73TIP3    H2  226   3.661   0.336   3.749  1.4260 -1.4579  1.4472
   74TIP3   OH2  227   0.481   4.193   1.210 -0.0612 -0.2489 -0.2913
   74TIP3    H1  228   0.473   4.271   1.265 -0.5992 -1.2974  1.1775
   74TIP3    H2  229   0.468   4.225   1.121 -2.4407  1.0238  0.4398
   75TIP3   OH2  230   2.954   3.902   1.127  0.8966 -0.2321  0.1305
   75TIP3    H1  231   2.868   3.891   1.167  0.4770  2.7845  0.2685
   75TIP3    H2  232   2.990   3.813   1.123 -2.5532 -1.7458 -0.8040
   76TIP3   OH2  233   5.574   5.103   0.457  0.6118  0.2484 -0.2976
   76TIP3    H1  234   5.534   5.125   0.541 -1.3478 -1.2877 -0.7551
   76TIP3    H2  235   5.505   5.120   0.393  0.8269 -1.9618 -1.1935
   77TIP3   OH2  236   2.914   5.731   0.564 -0.1029  0.3682 -0.0493
   77TIP3    H1  237   2.861   5.660   0.601  0.5835 -0.0677  0.1229
   77TIP3    H2  238   2.990   5.687   0.527 -0.9844  0.7257 -2.4724
   78TIP3   OH2  239   1.659   1.950   4.476  0.5928 -0.7215  0.4565
   78TIP3    H1  240   1.652   1.857   4.494  1.6297 -0.8532  0.2434
   78TIP3    H2  241   1.570   1.984   4.486 -0.0225 -1.9347 -0.6127
   79TIP3   OH2  242   5.901   4.183   1.352 -0.6754 -0.0578 -0.1853
   79TIP3    H1  243   5.851   4.206   1.431  1.4572 -2.0174  1.9173
   79TIP3    H2  244   5.854   4.225   1.281 -2.5078  2.1925  2.1550
   80TIP3   OH2  245   1.853   2.788   5.124  0.2566 -0.2048 -0.0367
   80TIP3    H1  246   1.910   2.861   5.150  2.4393 -1.4335 -1.1719
   80TIP3    H2  247   1.802   2.823   5.050 -1.6626  1.3699  1.8935
   81TIP3   OH2  248   0.018   4.423   2.955  0.5865 -0.1703  0.1827
   81TIP3    H1  249   0.014   4.386   3.044  0.5022 -1.6307 -0.4051
   81TIP3    H2  250  -0.022   4.356   2.900  0.4725  0.8090 -0.9437
   82TIP3   OH2  251   6.185   2.637   4.880 -0.1788  0.6475  0.3608
   82TIP3    H1  252   6.133   2.573   4.832 -0.6189  0.6817  0.7814
   82TIP3    H2  253   6.271   2.635   4.838 -0.0722 -0.4795  0.5997
   83TIP3   OH2  254   5.967   3.914   0.312  0.4310 -0.0102  0.4249
   83TIP3    H1  255   5.981   3.826   0.348  0.2551  0.2673  1.2054
   83TIP3    H2  256   5.904   3.954   0.372 -0.1531  0.3571 -0.4096
   84TIP3   OH2  257   2.889   1.109   4.151 -0.2149  0.6115  0.6964
   84TIP3    H1  258   2.807   1.086   4.195 -0.2267  1.6890  1.2645
   84TIP3    H2  259   2.862   1.165   4.078 -0.0137  0.6315  0.6375
   85TIP3   OH2  260   0.928   5.101   2.121  0.5829  0.5118  0.5747
   85TIP3    H1  261   0.969   5.188   2.115 -1.6948  1.5598 -1.5080
   85TIP3    H2  262   0.871   5.107   2.198  0.0813  1.0472  0.1703
   86TIP3   OH2  263   0.746   1.235   2.190  0.2818 -0.1934 -0.1598
   86TIP3    H1  264   0.725   1.142   2.178 -0.4224  0.0351 -0.7787
   86TIP3    H2  265   0.661   1.275   2.210  0.1147  0.7167 -2.4124
   87TIP3   OH2  266   5.138   4.532   3.203  0.3720  0.4464 -0.1707
   87TIP3    H1  267   5.047   4.541   3.234  0.5145  0.8388  0.1418
   87TIP3    H2  268   5.178   4.471   3.265  0.4489  0.6437 -0.0229
   88TIP3   OH2  269   4.969   2.586   5.088  0.0210  0.3208 -1.3835
   88TIP3    H1  270   4.988   2.650   5.020 -0.2273  1.5451 -0.3466
   88TIP3    H2  271   5.014   2.620   5.166 -0.7217 -0.3802 -0.6257
   89TIP3   OH2  272   2.161   1.560   5.151  0.1293  0.2220  0.2170
   89TIP3    H1  273   2.100   1.625   5.117  0.2817 -0.3033 -1.1251
   89TIP3    H2  274   2.227   1.550   5.082  0.4971 -0.8311  0.6921
   90TIP3   OH2  275   0.058   1.125   4.340  0.2774  0.0482 -0.0258
   90TIP3    H1  276   0.131   1.142   4.280  0.4830  0.2159  0.2690
   90TIP3    H2  277  -0.017   1.111   4.283  0.3760  0.6661 -0.3157
   91TIP3   OH2  278   1.394   0.433   2.257 -0.1375  0.1993  0.1213
   91TIP3    H1  279   1.448   0.367   2.300  0.9402  2.1609  1.9495
   91TIP3    H2  280   1.379   0.500   2.324 -2.7231  0.9869 -1.0842
   92TIP3   OH2  281   3.595   2.699   4.765 -0.2569  0.2949 -0.1365
   92TIP3    H1  282   3.626   2.728   4.850 -0.9462 -1.4485  0.7626
   92TIP3    H2  283   3.670   2.710   4.707  0.2430  1.4471  0.7040
   93TIP3   OH2  284   2.027   5.390   3.582 -0.0524 -0.3196 -0.5058
   93TIP3    H1  285   2.090   5.426   3.644  0.9323 -0.8079 -1.1973
   93TIP3    H2  286   2.071   5.314   3.543 -1.0356 -0.6346 -1.0616
   94TIP3   OH2  287   0.509   0.019   4.644 -0.2770  0.3242  0.7866
   94TIP3    H1  288   0.429   0.046   4.689 -1.0557 -0.5803 -0.0363
   94TIP3    H2  289   0.480  -0.011   4.558  0.8294 -0.9269  0.8166
   95TIP3   OH2  290   4.977   3.163   2.490 -0.8046  0.3105  0.0660
   95TIP3    H1  291   5.028   3.139   2.412 -0.9838 -0.1679  0.0972
   95TIP3    H2  292   4.902   3.211   2.455 -0.3692  0.9742  0.0160
   96TIP3   OH2  293   5.330   4.656   3.737  0.4083 -0.0857  0.5972
   96TIP3    H1  294   5.274   4.626   3.666  1.8033 -3.0483  0.5774
   96TIP3    H2  295   5.419   4.642   3.704  1.1060  0.6659  2.0683
   97TIP3   OH2  296   3.442   0.078   5.202 -0.5591  0.3904  0.1708
   97TIP3    H1  297   3.480  -0.007   5.179 -1.1326 -0.0125  0.6697
   97TIP3    H2  298   3.450   0.131   5.122  0.4507  0.1106  0.0730
   98TIP3   OH2  299   2.729   5.436   3.727  0.0245 -0.1624  0.1336
   98TIP3    H1  300   2.697   5.398   3.646 -0.8667  0.7443  0.0317
   98TIP3    H2  301   2.824   5.435   3.720 -0.0446  1.1295 -1.5262
   99TIP3   OH2  302   3.686   0.526   0.271 -0.0665 -0.6451 -0.0867
   99TIP3    H1  303   3.697   0.432   0.286  2.4220 -0.0319  3.1352
   99TIP3    H2  304   3.709   0.538   0.179  2.3622 -2.9346  0.0996
  100TIP3   OH2  305   2.326   1.979   3.531  0.3334  0.3840 -0.6097
  100TIP3    H1  306   2.348   1.989   3.624 -0.3176  2.0009 -0.6066
  100TIP3    H2  307   2.335   1.885   3.515 -0.2374 -0.0364  1.2679
  101TIP3   OH2  308   6.016   5.674   0.602  0.1935 -0.2527 -0.3786
  101TIP3    H1  309   6.068   5.639   0.674 -0.8000 -2.2064 -0.5242
  101TIP3    H2  310   5.990   5.761   0.630  0.7024 -0.5693  1.1592
  102TIP3   OH2  311   3.932   5.539   2.682 -0.1316 -0.1903  0.2808
  102TIP3    H1  312   4.019   5.500   2.679 -0.4129 -0.8305  0.4030
  102TIP3    H2  313   3.914   5.563   2.591  0.9516  1.7230  0.5017
  103TIP3   OH2  314   0.124   1.862   4.819 -0.7365  0.6530 -0.1064
  103TIP3    H1  315   0.077   1.939   4.787 -1.4848  0.2403 -0.0265
  103TIP3    H2  316   0.173   1.830   4.744 -0.7891  0.9379 -0.2636
  104TIP3   OH2  317   2.928   4.561   1.077  0.1342 -0.0048  0.2111
  104TIP3    H1  318   2.861   4.629   1.088  1.6100  1.5652  0.0916
  104TIP3    H2  319   2.881   4.485   1.045 -1.6008  0.9880  0.2699
  105TIP3   OH2  320   3.542   4.089   1.209  0.1325 -0.4775 -0.0490
  105TIP3    H1  321   3.560   3.995   1.214  1.2004 -0.3016 -0.4363
  105TIP3    H2  322   3.578   4.116   1.124  0.2194  0.3604  0.2468
  106TIP3   OH2  323   4.316   0.588   4.952 -0.3224  0.1769 -0.1976
  106TIP3    H1  324   4.401   0.607   4.993  0.0707 -2.2831  0.3241
  106TIP3    H2  325   4.336   0.577   4.859  0.3775 -2.1727  0.1486
  107TIP3   OH2  326   5.549   1.966   0.918 -0.5594  0.2659 -0.4230
  107TIP3    H1  327   5.497   1.931   0.846 -1.4599  0.6461  0.0210
  107TIP3    H2  328   5.535   2.060   0.914  0.7537  0.4551 -0.7795
  108TIP3   OH2  329   4.288   1.023   5.115  0.0076 -0.1102  0.6154
  108TIP3    H1  330   4.372   1.068   5.103  0.1334 -0.5294 -0.1752
  108TIP3    H2  331   4.238   1.043   5.036 -0.2383 -0.6929  0.6124
  109TIP3   OH2  332   5.373   3.179   5.082  0.8340  0.5654  0.8356
  109TIP3    H1  333   5.376   3.112   5.151 -0.0458  0.0048  0.3521
  109TIP3    H2  334   5.419   3.139   5.008  0.0084  0.3279  0.4294
  110TIP3   OH2  335   0.581   5.225   2.151  0.6280  0.0570 -0.3798
  110TIP3    H1  336   0.613   5.273   2.074  1.3439  2.7469  1.4628
  110TIP3    H2  337   0.574   5.291   2.220 -0.6736 -2.0990  1.7211
  111TIP3   OH2  338   3.143   4.401   2.658  0.2255 -0.2076  0.3428
  111TIP3    H1  339   3.086   4.462   2.612  0.5312  0.0630  0.3242
  111TIP3    H2  340   3.230   4.417   2.623  0.3834 -0.3292  0.6724
  112TIP3   OH2  341   1.799   5.163   1.298 -0.0725  0.2345  0.7145
  112TIP3    H1  342   1.760   5.234   1.349 -0.9240  1.2388 -1.2540
  112TIP3    H2  343   1.892   5.166   1.319 -0.0736  2.0436  0.5542
  113TIP3   OH2  344   5.845   4.828   4.309 -0.0413 -0.0267 -0.2472
  113TIP3    H1  345   5.906   4.896   4.335  1.6850 -1.8852  0.8784
  113TIP3    H2  346   5.810   4.793   4.391 -0.5752 -0.7755 -0.7771
  114TIP3   OH2  347   1.133   4.020   0.414 -1.1033 -0.1928  0.0847
  114TIP3    H1  348   1.189   3.958   0.367 -0.8676 -0.8782  1.2576
  114TIP3    H2  349   1.153   4.105   0.373  1.7899 -0.1854  1.3101
  115TIP3   OH2  350   4.059   2.749   5.117 -0.3296 -0.0132  0.1565
  115TIP3    H1  351   4.047   2.656   5.136  1.9089 -0.4802 -0.3381
  115TIP3    H2  352   4.036   2.758   5.025 -2.6260  0.4113  0.7283
  116TIP3   OH2  353   4.134   3.453   4.103 -0.0425  0.1229 -0.2282
  116TIP3    H1  354   4.075   3.426   4.032 -0.1830 -0.3073  0.0531
  116TIP3    H2  355   4.208   3.494   4.058  0.0956 -0.5803 -0.6536
  117TIP3   OH2  356   1.757   3.637   1.455  0.0261  0.3025 -0.0136
  117TIP3    H1  357   1.782   3.728   1.443  0.7925  0.3134  1.4878
  117TIP3    H2  358   1.836   3.587   1.436  0.1264  0.0840  0.9258
  118TIP3   OH2  359   5.282   5.514   2.428 -0.1951  0.5767  0.3982
  118TIP3    H1  360   5.261   5.460   2.504  0.4356 -0.9979 -0.4936
  118TIP3    H2  361   5.373   5.493   2.408 -0.3471  0.9691 -0.7817
  119TIP3   OH2  362   0.444   2.079   2.686  0.2791 -0.1367  0.3834
  119TIP3    H1  363   0.349   2.066   2.691  0.3957 -0.9578  0.5890
  119TIP3    H2  364   0.455   2.174   2.687 -0.5832 -0.0125 -0.4571
  120TIP3   OH2  365   5.879   1.898   4.189 -0.0588 -0.0043 -0.3296
  120TIP3    H1  366   5.812   1.832   4.206 -0.4449  0.1330 -1.2304
  120TIP3    H2  367   5.833   1.967   4.141  0.5972  0.3673 -0.4432
  121TIP3   OH2  368   6.284   2.866   5.046  0.0071 -0.6615  0.0764
  121TIP3    H1  369   6.263   2.800   4.979 -0.3735 -0.4884  0.0215
  121TIP3    H2  370   6.257   2.949   5.006  1.5558 -0.3187 -0.3298
  122TIP3   OH2  371   4.861   1.100   0.735 -0.1388  0.1546  0.1580
  122TIP3    H1  372   4.914   1.175   0.763  0.3713 -0.3324  0.5025
  122TIP3    H2  373   4.917   1.054   0.673  0.0045 -0.5897  0.8324
  123TIP3   OH2  374   1.910   2.007   2.934  0.0941  0.5375 -0.3503
  123TIP3    H1  375   1.872   1.971   2.854 -1.6090 -0.9682  1.0570
  123TIP3    H2  376   1.847   2.072   2.963  0.5353  0.8273 -0.0209
  124TIP3   OH2  377   4.064   5.190   4.667 -0.0676 -0.6198 -0.1061
  124TIP3    H1  378   4.034   5.122   4.727  0.7022 -1.7673 -0.9715
  124TIP3    H2  379   3.987   5.244   4.650 -0.6645 -1.2229  0.6769
  125TIP3   OH2  380   4.189   0.397   0.136  0.7157 -0.5946 -0.0684
  125TIP3    H1  381   4.194   0.444   0.053  2.6682 -0.2861  0.1758
  125TIP3    H2  382   4.150   0.459   0.197  0.7140 -0.2665 -0.4056
  126TIP3   OH2  383   3.574   1.968   0.057 -0.3024 -0.1955 -0.4982
  126TIP3    H1  384   3.594   1.983   0.149  0.3968 -1.4496 -0.4182
  126TIP3    H2  385   3.567   2.055   0.019  0.3385  0.3261  0.5460
  127TIP3   OH2  386   1.074   0.921   5.093 -0.0513 -0.3046  0.2230
  127TIP3    H1  387   1.169   0.931   5.093  0.0431 -1.0518  0.8330
  127TIP3    H2  388   1.043   0.979   5.024  0.9379 -0.8804 -0.7381
  128TIP3   OH2  389   3.322   1.908   2.071 -0.1026 -0.0140 -0.2773
  128TIP3    H1  390   3.369   1.990   2.088 -0.2699  0.0489 -0.0935
  128TIP3    H2  391   3.357   1.875   1.989  2.3237 -1.4658  1.2279
  129TIP3   OH2  392   3.849   5.562   4.046 -0.1159  0.3756 -0.0394
  129TIP3    H1  393   3.888   5.511   4.118  0.8289  0.2143 -0.6465
  129TIP3    H2  394   3.759   5.578   4.074  0.2590  0.4013  1.2325
  130TIP3   OH2  395   4.216   3.028   0.787 -0.7544  0.2001  0.5376
  130TIP3    H1  396   4.145   2.966   0.769 -0.6630  0.1067  0.4922
  130TIP3    H2  397   4.184   3.112   0.755 -0.6547  0.0640  0.0715
  131TIP3   OH2  398   0.717   2.592   4.516 -0.5383  0.1193  0.1722
  131TIP3    H1  399   0.709   2.651   4.591 -0.3068  0.2677  0.0789
  131TIP3    H2  400   0.731   2.506   4.555  1.1946  0.4266  0.2928
  132TIP3   OH2  401   5.092   3.760   2.223  0.3858  0.0281  0.0527
  132TIP3    H1  402   5.025   3.697   2.199 -0.4868  0.8615  0.2683
  132TIP3    H2  403   5.157   3.709   2.271  0.3098 -0.9341 -0.8431
  133TIP3   OH2  404   1.269   0.564   3.771  0.0883  1.0564  0.0002
  133TIP3    H1  405   1.175   0.554   3.788 -0.1545  1.0435 -1.2863
  133TIP3    H2  406   1.280   0.657   3.752 -0.1417  0.6418 -2.4375
  134TIP3   OH2  407   4.902   1.711   1.585 -0.5449  0.1917  0.2590
  134TIP3    H1  408   4.971   1.650   1.613 -0.1187  1.3099  1.7880
  134TIP3    H2  409   4.851   1.662   1.521  0.5888 -1.2950  0.4378
  135TIP3   OH2  410   4.710   2.809   0.163 -0.2766 -0.5574 -0.1686
  135TIP3    H1  411   4.787   2.761   0.132  1.3243  0.7308  1.5997
  135TIP3    H2  412   4.637   2.749   0.150  1.4890 -3.1480  1.1368
  136TIP3   OH2  413   0.339   2.674   1.621  0.2339  0.2296 -0.0490
  136TIP3    H1  414   0.304   2.709   1.539  0.0092  0.1332  0.0050
  136TIP3    H2  415   0.306   2.585   1.625  0.6273  0.0782 -0.0797
  137TIP3   OH2  416   4.525   4.547   2.288  0.0044  0.1085  0.0568
  137TIP3    H1  417   4.494   4.612   2.226 -2.0272 -0.1980  0.6806
  137TIP3    H2  418   4.611   4.580   2.316 -0.1918  1.5860 -0.9589
  138TIP3   OH2  419   4.640   4.448   4.625 -0.2019  0.1268  0.1454
  138TIP3    H1  420   4.732   4.447   4.652  0.1599 -0.7277 -1.0369
  138TIP3    H2  421   4.594   4.488   4.698  0.8789 -1.0625  1.5332
  139TIP3   OH2  422   5.845   0.996   1.215  0.1858  0.3567  0.6067
  139TIP3    H1  423   5.756   0.963   1.206  0.4639 -0.6044  1.2060
  139TIP3    H2  424   5.878   0.999   1.126 -0.5113  0.9249  0.3577
  140TIP3   OH2  425   1.399   0.213   3.726  0.7327  0.4294  0.1737
  140TIP3    H1  426   1.400   0.173   3.639  0.6967  0.2037  0.2749
  140TIP3    H2  427   1.307   0.220   3.749  0.7604 -0.2066  0.5047
  141TIP3   OH2  428   3.143   5.822   2.049 -0.3344  0.1296  0.5566
  141TIP3    H1  429   3.142   5.909   2.089 -0.4885  1.0778 -1.3781
  141TIP3    H2  430   3.057   5.813   2.008  0.2623 -0.1892 -0.6968
  142TIP3   OH2  431   3.775   5.595   3.095  0.3638 -0.2730  0.2524
  142TIP3    H1  432   3.842   5.574   3.159  0.5275 -0.1130  0.1341
  142TIP3    H2  433   3.751   5.511   3.056 -0.8920 -0.6170  1.6469
  143TIP3   OH2  434   2.702   2.399   3.120 -0.1670 -0.4912 -0.1475
  143TIP3    H1  435   2.610   2.372   3.114  0.0072 -1.1128 -0.0880
  143TIP3    H2  436   2.704   2.488   3.084 -0.1140 -1.8976 -3.9726
  144TIP3   OH2  437   3.830   5.302   3.363  0.3264 -0.0685 -0.1002
  144TIP3    H1  438   3.875   5.238   3.419  0.3002  0.4659  0.5369
  144TIP3    H2  439   3.871   5.291   3.277  0.7434 -0.5131  0.1494
  145TIP3   OH2  440   5.314   3.674   1.364  0.4272 -0.3942 -0.2650
  145TIP3    H1  441   5.352   3.627   1.439 -0.9107 -0.5910  0.3235
  145TIP3    H2  442   5.366   3.645   1.289  0.7371 -1.4769  0.3385
  146TIP3   OH2  443   3.493   5.823   3.881 -0.1554 -0.2211 -0.0325
  146TIP3    H1  444   3.479   5.912   3.848 -0.9446 -0.0832  0.6408
  146TIP3    H2  445   3.588   5.817   3.896 -0.1050  0.5236 -0.0298
  147TIP3   OH2  446   0.778   4.367   5.002  0.3513 -0.1196  0.2145
  147TIP3    H1  447   0.703   4.414   4.965  1.0151 -0.2661 -1.3983
  147TIP3    H2  448   0.749   4.276   5.008  0.9635 -0.5485 -2.2315
  148TIP3   OH2  449   2.767   3.160   3.795 -0.2455 -0.3311  0.3290
  148TIP3    H1  450   2.848   3.110   3.808 -0.0663 -0.3334 -0.7276
  148TIP3    H2  451   2.790   3.250   3.818  0.1025 -0.3004 -0.1435
  149TIP3   OH2  452   3.619   3.439   3.291 -0.2245 -0.4897  0.1133
  149TIP3    H1  453   3.627   3.532   3.311  0.9536 -0.4122 -0.6481
  149TIP3    H2  454   3.686   3.397   3.345 -1.1021 -0.9762  0.8545
  150TIP3   OH2  455   3.249   4.059   2.606  0.6356 -0.1142 -0.2711
  150TIP3    H1  456   3.189   4.044   2.532 -2.2262  4.2508  0.8007
  150TIP3    H2  457   3.225   3.993   2.670  0.5484 -1.5840 -1.7371
  151TIP3   OH2  458   2.376   5.743   3.832 -0.1450 -0.3731  0.5933
  151TIP3    H1  459   2.371   5.663   3.885  0.6685 -1.7999 -1.3726
  151TIP3    H2  460   2.309   5.733   3.766 -0.2381  0.7437  0.4900
  152TIP3   OH2  461   1.070   2.527   3.042  0.2118 -0.1706 -0.3856
  152TIP3    H1  462   1.144   2.580   3.011 -0.7570  0.6337 -1.3817
  152TIP3    H2  463   1.014   2.590   3.087 -0.5392 -0.5132 -0.8339
  153TIP3   OH2  464   3.503   3.522   4.781  0.7056 -0.0193 -0.2332
  153TIP3    H1  465   3.483   3.429   4.785  3.1177 -0.5427  1.3553
  153TIP3    H2  466   3.456   3.559   4.856  0.5067 -0.1017 -0.3149
  154TIP3   OH2  467   5.910   4.470   0.791  0.3816 -0.1347 -0.8300
  154TIP3    H1  468   5.818   4.498   0.789  0.4211  0.0171 -0.5711
  154TIP3    H2  469   5.941   4.484   0.702  0.8631  2.2582 -0.3578
  155TIP3   OH2  470   4.511   0.936   3.754  0.2351  0.2390 -0.0237
  155TIP3    H1  471   4.458   1.003   3.711  1.0289  0.4882 -0.6562
  155TIP3    H2  472   4.448   0.877   3.795 -0.5068  0.7611 -0.3949
  156TIP3   OH2  473   4.123   0.904   2.271 -0.3771  0.1446  0.0010
  156TIP3    H1  474   4.064   0.832   2.251  0.4079 -0.5545  0.1404
  156TIP3    H2  475   4.065   0.976   2.296 -1.1573 -0.7052  0.7499
  157TIP3   OH2  476   4.471   3.821   4.763 -0.0864 -0.0419  0.6026
  157TIP3    H1  477   4.550   3.871   4.782  0.6434 -0.5147 -1.0487
  157TIP3    H2  478   4.501   3.732   4.746 -1.1706 -0.6324  1.5720
  158TIP3   OH2  479   4.767   0.954   3.667 -0.1034 -0.7488 -0.2711
  158TIP3    H1  480   4.677   0.946   3.698 -0.5689 -0.7040 -1.5459
  158TIP3    H2  481   4.759   0.997   3.582  1.0445 -1.6340 -0.8504
  159TIP3   OH2  482   1.016   3.425   3.936  0.1684  0.2913 -0.2194
  159TIP3    H1  483   1.063   3.342   3.932 -0.4218 -0.0273 -0.7010
  159TIP3    H2  484   0.998   3.437   4.030 -3.4215 -2.2894 -0.3812
  160TIP3   OH2  485   2.259   5.407   5.037  0.3838 -0.2269 -0.2885
  160TIP3    H1  486   2.261   5.496   4.999 -0.7426  0.2549  0.7073
  160TIP3    H2  487   2.321   5.357   4.984 -1.5040  0.2387 -3.2232
  161TIP3   OH2  488   2.793   1.694   0.995 -0.2618 -0.5880 -0.5084
  161TIP3    H1  489   2.701   1.721   0.992  0.6284  2.7998 -1.4672
  161TIP3    H2  490   2.816   1.676   0.904  0.1125 -1.3217 -0.2805
  162TIP3   OH2  491   2.018   5.879   1.275  0.5266  0.3499 -0.0727
  162TIP3    H1  492   2.019   5.832   1.192 -0.1486  1.5767 -0.8145
  162TIP3    H2  493   2.108   5.878   1.305  0.7518 -0.2468 -0.7510
  163TIP3   OH2  494   3.089   2.359   2.678  0.3893 -0.3510 -0.0161
  163TIP3    H1  495   3.060   2.314   2.598  0.5465  0.0256 -0.2899
  163TIP3    H2  496   3.017   2.347   2.740 -0.5638  0.9308 -0.8273
  164TIP3   OH2  497   6.266   0.442   2.774  0.1875  0.2396  0.2553
  164TIP3    H1  498   6.269   0.347   2.763  0.7253  0.0761  1.5541
  164TIP3    H2  499   6.356   0.470   2.759  0.0836  0.5063  0.1340
  165TIP3   OH2  500   5.697   2.252   3.300 -0.0139  0.0259  0.2064
  165TIP3    H1  501   5.703   2.323   3.364 -0.3456 -0.6711  1.0400
  165TIP3    H2  502   5.604   2.248   3.277 -0.2553 -1.0383  1.2524
  166TIP3   OH2  503   4.393   3.771   2.783  0.2243  0.4428 -0.5074
  166TIP3    H1  504   4.372   3.774   2.876  0.1739 -3.4683 -0.2332
  166TIP3    H2  505   4.479   3.730   2.779  0.4506  0.9965 -2.2024
  167TIP3   OH2  506   5.024   1.464   3.281  0.5389  0.0776 -0.1838
  167TIP3    H1  507   5.046   1.445   3.373  1.0362  0.5766 -0.1945
  167TIP3    H2  508   5.062   1.550   3.265  0.3783  0.0288 -0.8362
  168TIP3   OH2  509   5.758   0.470   0.052 -0.0776 -0.5525 -0.0300
  168TIP3    H1  510   5.775   0.419   0.131 -0.5170  1.3879  1.3932
  168TIP3    H2  511   5.843   0.504   0.026  0.0131 -0.8921 -0.1809
  169TIP3   OH2  512   1.844   0.524   4.570  0.1510  0.0891  0.3683
  169TIP3    H1  513   1.904   0.472   4.623  2.0062  0.6377 -1.1136
  169TIP3    H2  514   1.805   0.461   4.509  0.7593  0.0556  0.0070
  170TIP3   OH2  515   2.901   1.016   0.044 -0.5074  0.0294  0.1750
  170TIP3    H1  516   2.994   1.006   0.025 -0.9158 -1.6495 -1.3079
  170TIP3    H2  517   2.887   1.110   0.051  1.5997  0.2716  2.3469
  171TIP3   OH2  518   2.771   1.881   3.440  0.2606  0.1413 -0.0769
  171TIP3    H1  519   2.755   1.975   3.437 -0.3484  0.0775  0.8790
  171TIP3    H2  520   2.794   1.858   3.350  0.9831  1.2899 -0.2042
  172TIP3   OH2  521   1.045   0.037   2.616  0.0417  0.0722  0.6675
  172TIP3    H1  522   1.046  -0.056   2.594 -0.0533  0.0699  0.6704
  172TIP3    H2  523   0.993   0.042   2.696  1.6839 -0.1053  1.7931
  173TIP3   OH2  524   1.744   0.697   3.365 -0.7009 -0.5001 -0.0156
  173TIP3    H1  525   1.756   0.648   3.446 -0.9265  0.1617  0.4230
  173TIP3    H2  526   1.812   0.663   3.306 -0.3439 -0.7780  0.5501
  174TIP3   OH2  527   4.800   2.445   1.965 -0.2898  0.1411  0.2162
  174TIP3    H1  528   4.809   2.413   2.055 -0.3773 -0.8728 -0.1179
  174TIP3    H2  529   4.727   2.394   1.929 -0.9652  1.3007 -0.1089
  175TIP3   OH2  530   2.105   4.438   5.170 -0.2245 -0.1192  0.8151
  175TIP3    H1  531   2.095   4.479   5.084 -0.0037  0.7216  1.1742
  175TIP3    H2  532   2.172   4.371   5.157 -0.1509  0.0442  0.3406
  176TIP3   OH2  533   3.924   3.705   5.014  0.4018  0.1554  0.4174
  176TIP3    H1  534   3.848   3.703   4.956  0.7023  0.9277 -0.0095
  176TIP3    H2  535   3.999   3.689   4.957  0.6770  0.6636  0.6276
  177TIP3   OH2  536   3.639   5.458   0.759  0.3205 -0.2156 -0.1317
  177TIP3    H1  537   3.584   5.410   0.822  3.2506 -0.8979  2.1233
  177TIP3    H2  538   3.657   5.394   0.690  0.2541 -0.7877  0.3665
  178TIP3   OH2  539   2.108   2.178   0.420 -0.2523 -0.3431 -0.5915
  178TIP3    H1  540   2.178   2.136   0.370 -0.2629 -0.6800 -0.3220
  178TIP3    H2  541   2.118   2.271   0.401  0.0336 -0.4260 -0.8540
  179TIP3   OH2  542   3.016   1.104   3.699 -0.2879  0.1672  0.2927
  179TIP3    H1  543   2.983   1.172   3.640 -0.1322  0.9140  1.0502
  179TIP3    H2  544   2.941   1.080   3.753 -0.4776 -0.6478 -0.3159
  180TIP3   OH2  545   2.548   3.233   3.206 -0.2869 -0.0139  0.4929
  180TIP3    H1  546   2.522   3.318   3.241  1.0306  0.7831 -0.3544
  180TIP3    H2  547   2.528   3.170   3.276 -3.7696  0.5468  0.1585
  181TIP3   OH2  548   3.554   2.372   4.741  0.0403  0.3852  0.4047
  181TIP3    H1  549   3.535   2.464   4.762  0.5211 -0.0227  2.9007
  181TIP3    H2  550   3.503   2.355   4.662 -0.3078  2.7009  0.0549
  182TIP3   OH2  551   4.126   0.956   3.121 -0.4965  0.1253 -0.4885
  182TIP3    H1  552   4.193   0.890   3.104 -0.8292 -0.3762  0.1345
  182TIP3    H2  553   4.096   0.939   3.210 -1.1497  0.6143 -0.6030
  183TIP3   OH2  554   4.627   4.435   2.010 -0.4364  0.2277  0.3494
  183TIP3    H1  555   4.540   4.465   2.037 -1.5510 -1.4330 -1.1395
  183TIP3    H2  556   4.687   4.504   2.039 -2.2687  1.5392  1.1915
  184TIP3   OH2  557   2.350   2.480   1.654  0.8488  0.3875  0.7483
  184TIP3    H1  558   2.341   2.450   1.564  1.1896  1.8129  0.2207
  184TIP3    H2  559   2.320   2.406   1.707  0.5257 -0.4202 -0.5265
  185TIP3   OH2  560   4.256   4.547   2.442 -0.2517 -0.7863 -0.2221
  185TIP3    H1  561   4.256   4.471   2.501 -0.0854  0.3948  1.3711
  185TIP3    H2  562   4.348   4.563   2.423 -0.2542 -0.7105 -0.1715
  186TIP3   OH2  563   1.848   2.183   0.161  0.3489 -0.1364 -0.4356
  186TIP3    H1  564   1.776   2.242   0.185  1.3590  0.5957  0.9460
  186TIP3    H2  565   1.873   2.142   0.243  0.3551 -1.7407 -1.2107
  187TIP3   OH2  566   0.070   4.536   2.583  0.2894  0.2198  0.1176
  187TIP3    H1  567   0.080   4.442   2.592  1.3345  0.1793 -1.1782
  187TIP3    H2  568   0.156   4.566   2.554  0.0345  1.6072  0.7073
  188TIP3   OH2  569   4.442   4.800   3.164  0.3466  0.4398  0.1479
  188TIP3    H1  570   4.352   4.793   3.132 -0.0006  0.3206  1.1322
  188TIP3    H2  571   4.485   4.719   3.133 -0.4822 -0.5567  1.5084
  189TIP3   OH2  572   4.665   2.410   4.888 -0.7732 -0.2874  0.0456
  189TIP3    H1  573   4.711   2.470   4.829 -0.9436 -0.0463  0.1596
  189TIP3    H2  574   4.681   2.445   4.975 -1.8349  0.2484  0.0333
  190TIP3   OH2  575   5.543   4.435   1.724 -0.1076  0.3021  0.6114
  190TIP3    H1  576   5.516   4.355   1.768 -1.8126  0.9237  0.7672
  190TIP3    H2  577   5.469   4.459   1.669 -0.2821  2.5672  1.7091
  191TIP3   OH2  578   2.998   1.764   2.272 -0.4217 -0.3813 -0.8112
  191TIP3    H1  579   3.059   1.694   2.249  1.5693  0.6844  0.8654
  191TIP3    H2  580   3.012   1.832   2.205 -1.3036 -0.9429 -1.5963
  192TIP3   OH2  581   4.081   4.397   0.099 -0.0547  0.5037  0.5654
  192TIP3    H1  582   4.144   4.457   0.059  0.0824 -0.2319 -0.3509
  192TIP3    H2  583   4.029   4.452   0.157  1.7926  1.0463  1.8056
  193TIP3   OH2  584  -0.029   5.364   3.305  0.1940 -0.2143 -0.5412
  193TIP3    H1  585   0.062   5.394   3.311  0.4213 -1.2653  2.9786
  193TIP3    H2  586  -0.022   5.271   3.284  0.0912 -0.8137  1.8945
  194TIP3   OH2  587   4.717   0.551   4.494 -0.6079  0.0446  0.0486
  194TIP3    H1  588   4.743   0.606   4.420 -2.4760  2.5839  1.1442
  194TIP3    H2  589   4.632   0.516   4.469  0.2988 -2.0122 -0.3844
  195TIP3   OH2  590   0.718   0.509   2.136  0.4403 -0.5323 -0.1823
  195TIP3    H1  591   0.767   0.439   2.178  1.7894  1.1186  1.1353
  195TIP3    H2  592   0.785   0.566   2.098 -0.6470 -0.3763 -2.0028
  196TIP3   OH2  593   2.837   1.621   3.053  0.3301  0.3728  0.1728
  196TIP3    H1  594   2.819   1.562   3.126  3.0053 -0.3662  0.3710
  196TIP3    H2  595   2.775   1.596   2.985 -1.2505  0.0882  1.6441
  197TIP3   OH2  596   5.912   4.969   2.143 -0.3858 -0.4516  0.3084
  197TIP3    H1  597   5.847   4.927   2.199  0.2080 -0.6650  0.8574
  197TIP3    H2  598   5.980   4.999   2.204  0.0882 -0.3490 -0.2599
  198TIP3   OH2  599   5.508   0.829   1.443  0.0516 -0.2373 -0.0086
  198TIP3    H1  600   5.529   0.890   1.373 -1.0436 -0.8182 -0.8859
  198TIP3    H2  601   5.546   0.868   1.522  1.2500  0.4608 -0.9049
  199TIP3   OH2  602   1.102   5.173   0.745 -0.8390 -1.0095 -0.2741
  199TIP3    H1  603   1.134   5.093   0.787  0.3789 -0.6239 -0.4461
  199TIP3    H2  604   1.039   5.209   0.807 -1.5550 -2.1925 -0.2795
  200TIP3   OH2  605   3.628   5.342   1.552 -0.3443  0.0758 -0.4778
  200TIP3    H1  606   3.550   5.384   1.587 -0.1784 -0.5963  0.7923
  200TIP3    H2  607   3.646   5.387   1.470 -2.8120 -0.6131 -1.4786
  201TIP3   OH2  608   3.459   2.572   3.877  0.6055 -0.9280 -0.2256
  201TIP3    H1  609   3.450   2.630   3.952 -0.3719 -0.2718 -0.8159
  201TIP3    H2  610   3.411   2.493   3.902  0.3149 -0.7269 -0.1418
  202TIP3   OH2  611   6.070   1.283   5.125  0.6615 -0.6554 -0.5081
  202TIP3    H1  612   6.126   1.335   5.068  0.6258  0.0575  0.0882
  202TIP3    H2  613   6.096   1.308   5.214  0.2904 -1.2807 -0.2083
  203TIP3   OH2  614   5.532   1.157   1.926  0.4516 -0.5457  0.4960
  203TIP3    H1  615   5.436   1.158   1.923  0.4259  2.2090 -0.5605
  203TIP3    H2  616   5.553   1.134   2.017 -1.3187  1.0837  1.3922
  204TIP3   OH2  617   1.472   4.693   4.470  0.4259 -0.2853  0.0028
  204TIP3    H1  618   1.429   4.688   4.385  1.3956 -1.7069 -0.4308
  204TIP3    H2  619   1.494   4.603   4.492  0.6391  0.1065  1.5448
  205TIP3   OH2  620   3.286   0.024   0.137  0.5292 -0.0157 -0.7221
  205TIP3    H1  621   3.375  -0.010   0.135  0.5598 -0.0317  0.2636
  205TIP3    H2  622   3.278   0.064   0.223 -0.3834  0.0703 -0.8370
  206TIP3   OH2  623   0.535   1.327   1.969 -0.1014  0.2850 -0.4623
  206TIP3    H1  624   0.627   1.346   1.951  0.0397  0.4490  0.3886
  206TIP3    H2  625   0.494   1.319   1.883  0.8045 -0.2796 -0.8458
  207TIP3   OH2  626   1.186   3.899   3.473 -0.4473  0.2374  0.0949
  207TIP3    H1  627   1.141   3.930   3.551 -0.1842 -1.3935  0.9341
  207TIP3    H2  628   1.116   3.880   3.411 -0.8217 -0.7022  0.7934
  208TIP3   OH2  629   1.492   0.602   2.056  0.5026  0.4251  0.6512
  208TIP3    H1  630   1.475   0.570   2.145  0.9036 -0.3851  0.4448
  208TIP3    H2  631   1.580   0.569   2.036  0.9482  1.6800  0.4350
  209TIP3   OH2  632   0.865   0.836   3.134  0.4170  0.2289 -0.0483
  209TIP3    H1  633   0.834   0.898   3.199  1.3187 -0.4417  1.0637
  209TIP3    H2  634   0.958   0.855   3.124  0.6791 -0.8423  0.2152
  210TIP3   OH2  635   6.158   0.559   0.534 -0.5901 -0.4658  0.1791
  210TIP3    H1  636   6.217   0.489   0.562  0.4281  0.4818  0.5042
  210TIP3    H2  637   6.080   0.549   0.588  0.8864  0.6612  2.6996
  211TIP3   OH2  638   1.579   4.082   1.652  0.8770 -0.2895  0.7329
  211TIP3    H1  639   1.566   3.991   1.681  0.0159  0.1216  1.7178
  211TIP3    H2  640   1.505   4.098   1.594  0.7463 -0.0722  0.9567
  212TIP3   OH2  641   2.498   2.199   1.432 -0.2533  0.8571  0.0393
  212TIP3    H1  642   2.552   2.253   1.491 -2.6653  0.2309  3.0570
  212TIP3    H2  643   2.422   2.254   1.413 -0.0856  0.5745 -1.6131
  213TIP3   OH2  644   4.392   4.752   2.171  0.1315  0.4114  0.6339
  213TIP3    H1  645   4.454   4.817   2.204  0.4751  0.6253 -0.3879
  213TIP3    H2  646   4.306   4.789   2.192  0.2475  2.2339 -1.6370
  214TIP3   OH2  647   4.837   0.337   4.665 -0.1491  0.0190 -0.2753
  214TIP3    H1  648   4.907   0.393   4.698  1.0363  0.4658 -3.2321
  214TIP3    H2  649   4.778   0.397   4.619 -0.1514 -0.8595 -1.4484
  215TIP3   OH2  650   3.446   1.728   2.265 -0.2627 -0.5597  0.1322
  215TIP3    H1  651   3.541   1.725   2.274 -0.3005  1.0799  1.8968
  215TIP3    H2  652   3.428   1.811   2.221 -0.8979 -0.0116  1.3516
  216TIP3   OH2  653   6.238   2.660   2.096  0.6052 -0.1161  0.1397
  216TIP3    H1  654   6.301   2.588   2.097  0.1478 -0.6067 -1.7581
  216TIP3    H2  655   6.289   2.737   2.122  1.5116 -0.8379  0.5359
  217TIP3   OH2  656   1.750   5.233   0.946  0.1781 -0.0554 -0.3120
  217TIP3    H1  657   1.842   5.250   0.926  0.6279  0.4999  1.9645
  217TIP3    H2  658   1.750   5.149   0.993 -0.5224 -0.2036 -0.5603
  218TIP3   OH2  659   5.369   3.739   3.074 -0.1960  0.4169  0.8772
  218TIP3    H1  660   5.452   3.715   3.033 -0.2918  1.5574 -0.0415
  218TIP3    H2  661   5.391   3.752   3.166  0.2420 -1.1546  1.0251
  219TIP3   OH2  662   4.700   4.591   1.081  0.5862  0.2057  0.2652
  219TIP3    H1  663   4.660   4.507   1.062  1.0830  0.4731 -2.3280
  219TIP3    H2  664   4.640   4.656   1.044  1.0145  0.8931  0.7376
  220TIP3   OH2  665   1.545   3.968   3.861 -0.0768  0.0140 -0.7358
  220TIP3    H1  666   1.565   4.054   3.825 -0.1244  0.8092  1.0113
  220TIP3    H2  667   1.584   3.970   3.949 -1.5204 -1.1131 -0.0297
  221TIP3   OH2  668   2.652   3.353   4.025  0.0429 -0.1292  0.2349
  221TIP3    H1  669   2.643   3.281   4.088 -0.3577 -0.5224 -0.2632
  221TIP3    H2  670   2.639   3.432   4.078 -0.3217 -0.4531  0.6459
  222TIP3   OH2  671   1.556   0.307   4.761 -0.4260  0.0764  0.2618
  222TIP3    H1  672   1.566   0.240   4.829 -1.1599 -1.9758 -1.5587
  222TIP3    H2  673   1.558   0.258   4.679  2.9537  2.6708 -1.4649
  223TIP3   OH2  674   1.546   3.012   3.581 -0.2684 -0.1077 -0.2225
  223TIP3    H1  675   1.488   2.994   3.656 -0.1751 -0.2782 -0.1909
  223TIP3    H2  676   1.532   2.938   3.522 -1.7498  0.9278 -1.2519
  224TIP3   OH2  677   0.783   0.816   3.818  0.1950  0.2644  0.2212
  224TIP3    H1  678   0.747   0.727   3.822 -1.0325  0.7563  0.6362
  224TIP3    H2  679   0.829   0.826   3.901  0.9264 -0.2129 -0.1172
  225TIP3   OH2  680   0.335   1.834   3.903 -0.3776 -0.4664 -0.3774
  225TIP3    H1  681   0.314   1.922   3.934  0.3354 -0.4296  0.0200
  225TIP3    H2  682   0.255   1.784   3.917 -1.8501  0.7969 -3.3710
  226TIP3   OH2  683   3.399   4.507   2.802  0.2062 -0.1339  0.5354
  226TIP3    H1  684   3.338   4.434   2.819 -1.2909  0.8142 -0.5091
  226TIP3    H2  685   3.426   4.494   2.711  0.8736 -0.0345  0.7165
  227TIP3   OH2  686   4.802   3.991   2.932 -0.3601  0.1177  0.3159
  227TIP3    H1  687   4.819   3.903   2.965 -1.0742  0.1371  0.7474
  227TIP3    H2  688   4.816   3.985   2.838 -2.8489 -1.0875 -0.0422
  228TIP3   OH2  689   2.553   2.290   3.692 -0.1764 -0.0507  0.7629
  228TIP3    H1  690   2.477   2.317   3.744 -0.3964 -0.6000  0.7357
  228TIP3    H2  691   2.549   2.344   3.614 -1.2397 -0.8948  0.2016
  229TIP3   OH2  692   5.496   1.713   3.154 -0.0783  0.7987 -0.0183
  229TIP3    H1  693   5.580   1.748   3.185  1.0808 -0.5320 -1.5348
  229TIP3    H2  694   5.469   1.774   3.085  0.3371  0.4876 -0.4618
  230TIP3   OH2  695   0.209   2.575   2.325 -0.1469 -0.2080 -0.0777
  230TIP3    H1  696   0.216   2.660   2.282 -0.5604  0.8305  1.8009
  230TIP3    H2  697   0.252   2.514   2.265  2.5669  1.7459 -0.2941
  231TIP3   OH2  698   3.424   5.434   4.268  0.1806 -0.5999 -0.0929
  231TIP3    H1  699   3.409   5.415   4.360 -0.8316 -2.1632 -0.5460
  231TIP3    H2  700   3.345   5.403   4.223  1.5569 -1.9494 -1.7339
  232TIP3   OH2  701   1.076   0.291   2.001 -0.0400 -0.6838 -0.3957
  232TIP3    H1  702   1.167   0.267   2.016 -0.2401 -1.4498 -0.3591
  232TIP3    H2  703   1.047   0.235   1.929 -1.1196 -2.1312  1.0743
  233TIP3   OH2  704   3.717   0.417   0.983  0.0393  0.2183 -0.5227
  233TIP3    H1  705   3.781   0.347   0.968 -0.4252 -0.0363 -1.4010
  233TIP3    H2  706   3.650   0.377   1.039  0.4002  0.3336 -0.0109
  234TIP3   OH2  707   5.878   0.501   2.327  0.9549  0.2330 -0.1609
  234TIP3    H1  708   5.968   0.525   2.302  1.2591 -0.9332 -0.2324
  234TIP3    H2  709   5.834   0.486   2.243  1.5508 -2.1572 -0.1196
  235TIP3   OH2  710   0.646   1.915   2.603  0.6254  0.5952  0.6640
  235TIP3    H1  711   0.617   1.826   2.583 -0.0811  0.8841  0.3958
  235TIP3    H2  712   0.575   1.952   2.655  1.0713  0.8952  1.0664
  236TIP3   OH2  713   5.961   3.094   3.014  0.4206 -0.1055  0.3378
  236TIP3    H1  714   5.910   3.101   2.933  3.2170  0.3426 -1.5550
  236TIP3    H2  715   5.987   3.002   3.018  0.1917 -0.1514  0.8043
  237TIP3   OH2  716   2.440   4.843   1.780 -0.2325  0.5830 -0.1251
  237TIP3    H1  717   2.500   4.775   1.812 -1.2780 -0.3385 -0.0553
  237TIP3    H2  718   2.469   4.860   1.691  0.0158  0.0079 -0.1591
  238TIP3   OH2  719   4.755   1.694   0.353  0.3090 -0.6460 -0.2380
  238TIP3    H1  720   4.723   1.656   0.271 -1.2126  1.4528 -0.6870
  238TIP3    H2  721   4.798   1.775   0.327 -1.2159  0.6424  1.1044
  239TIP3   OH2  722   3.005   2.970   1.966 -0.0383  0.2020 -0.0389
  239TIP3    H1  723   3.057   3.034   1.918  0.6914 -0.2700  0.1005
  239TIP3    H2  724   2.971   2.910   1.899  1.8799 -1.1038  0.0809
  240TIP3   OH2  725   2.042   3.742   3.193 -0.1796  0.0403  0.2039
  240TIP3    H1  726   2.105   3.767   3.126 -1.9924 -0.9720 -2.0281
  240TIP3    H2  727   2.079   3.664   3.233  1.2045  0.9847  0.8316
  241TIP3   OH2  728   5.748   5.638   3.575  0.1132 -0.2591 -0.3193
  241TIP3    H1  729   5.717   5.712   3.628  1.0113 -0.0461 -0.0797
  241TIP3    H2  730   5.704   5.649   3.491 -2.6782 -1.5369  0.8270
  242TIP3   OH2  731   0.610   5.248   4.825  0.1330  0.6520  0.4705
  242TIP3    H1  732   0.695   5.208   4.806  0.2025  1.5759 -1.3712
  242TIP3    H2  733   0.546   5.189   4.787 -0.0747  0.0373  1.7194
  243TIP3   OH2  734   4.045   4.920   0.044  0.0347 -0.5007 -0.1303
  243TIP3    H1  735   4.124   4.943   0.093 -0.6137 -0.3318  0.8832
  243TIP3    H2  736   4.039   4.825   0.052 -1.3760 -0.2972  2.3167
  244TIP3   OH2  737   3.204   5.877   1.694 -0.0371 -0.1885  0.7615
  244TIP3    H1  738   3.245   5.936   1.631 -0.9376  0.9629  1.2356
  244TIP3    H2  739   3.230   5.789   1.664  1.2940  0.4219  0.0342
  245TIP3   OH2  740   3.265   5.042   0.140  0.0604 -0.3353 -0.1463
  245TIP3    H1  741   3.174   5.021   0.120  0.1001 -0.5456 -0.1146
  245TIP3    H2  742   3.271   5.137   0.130 -0.5393 -0.1141  1.3598
  246TIP3   OH2  743   0.041   1.530   1.530  0.0438 -0.5565 -0.1926
  246TIP3    H1  744  -0.009   1.600   1.572  1.2921 -0.2772  0.8732
  246TIP3    H2  745   0.110   1.575   1.482 -0.3195 -0.9783 -1.1463
  247TIP3   OH2  746   4.286   1.113   2.287 -0.3960 -0.5055 -0.4444
  247TIP3    H1  747   4.297   1.131   2.380  0.2094  3.3847 -1.1013
  247TIP3    H2  748   4.249   1.025   2.284 -1.3547 -0.4275  3.4787
  248TIP3   OH2  749   0.598   2.703   3.069  0.1556 -0.0394 -0.0232
  248TIP3    H1  750   0.647   2.695   3.150  0.7575 -1.4779 -0.5167
  248TIP3    H2  751   0.545   2.624   3.064 -2.6306  1.6091  0.7019
  249TIP3   OH2  752   3.988   4.286   2.600 -0.3933 -0.1426  0.6911
  249TIP3    H1  753   3.907   4.273   2.550 -0.9018 -3.3058  2.0827
  249TIP3    H2  754   4.054   4.234   2.554 -0.4242 -1.5842  2.1895
  250TIP3   OH2  755   2.543   4.876   2.534  0.2786  0.7935 -0.3962
  250TIP3    H1  756   2.608   4.882   2.604 -0.5692 -2.2590  0.8198
  250TIP3    H2  757   2.514   4.785   2.536 -3.0926  1.6837 -1.7304
  251TIP3   OH2  758   0.675   3.498   0.879 -0.0491  0.0228  0.1478
  251TIP3    H1  759   0.594   3.457   0.851 -0.3425 -0.6514  1.8569
  251TIP3    H2  760   0.660   3.592   0.870 -0.1816 -0.1464 -1.6643
  252TIP3   OH2  761   0.224   2.991   4.559  0.6855  0.7911 -0.7403
  252TIP3    H1  762   0.269   3.068   4.593 -0.4122  1.0857  0.1172
  252TIP3    H2  763   0.294   2.933   4.528  1.6820  1.0186  0.9710
  253TIP3   OH2  764   2.007   3.334   4.840 -0.4077  0.5141  0.0028
  253TIP3    H1  765   2.007   3.279   4.762  1.1563 -0.2576  0.5072
  253TIP3    H2  766   2.034   3.276   4.911 -2.8524  0.9106  1.3968
  254TIP3   OH2  767   0.550   0.219   2.422 -0.1228  0.1171  0.1811
  254TIP3    H1  768   0.548   0.128   2.392 -2.3010 -0.3743  1.5574
  254TIP3    H2  769   0.493   0.265   2.361 -0.2552  0.2260  0.3865
  255TIP3   OH2  770   4.249   1.352   1.036  0.2855  0.3112 -0.2722
  255TIP3    H1  771   4.343   1.356   1.022  0.4256 -0.1250  0.5260
  255TIP3    H2  772   4.238   1.341   1.131 -0.5697  0.5750 -0.3257
  256TIP3   OH2  773   4.716   3.057   2.875  0.0756  0.8821 -0.2574
  256TIP3    H1  774   4.668   3.114   2.936  1.2945  1.2965  0.3573
  256TIP3    H2  775   4.650   2.995   2.844 -0.5314  0.3868  1.8184
  257TIP3   OH2  776   4.449   2.279   3.564 -0.4332 -0.1626 -0.8084
  257TIP3    H1  777   4.500   2.201   3.543 -0.8574 -1.0543  1.2491
  257TIP3    H2  778   4.476   2.344   3.499  0.4313 -1.7995 -2.1473
  258TIP3   OH2  779   3.771   5.692   1.890 -0.5693 -0.2678 -0.1329
  258TIP3    H1  780   3.855   5.730   1.864 -0.7289  0.7517  0.7706
  258TIP3    H2  781   3.775   5.602   1.860  0.7441 -0.1578 -0.3364
  259TIP3   OH2  782   2.080   1.326   1.821 -0.4527  0.5125  0.2628
  259TIP3    H1  783   2.113   1.390   1.884 -0.4973  2.0665 -1.2292
  259TIP3    H2  784   2.046   1.379   1.749 -0.5043 -1.2074 -1.0247
  260TIP3   OH2  785   0.063   4.930   0.929  0.4000  0.0859  0.2662
  260TIP3    H1  786   0.064   4.868   1.002  0.1777  2.3719  2.3592
  260TIP3    H2  787  -0.030   4.946   0.914  0.4692  0.6376  0.4175
  261TIP3   OH2  788   4.942   3.535   2.598 -0.2931  0.3257  0.3732
  261TIP3    H1  789   4.904   3.448   2.587 -0.8076  0.2109  2.5131
  261TIP3    H2  790   5.017   3.521   2.657  0.1227  1.2355  0.0860
  262TIP3   OH2  791   5.600   2.002   3.709  0.0388  0.3128 -0.2325
  262TIP3    H1  792   5.523   2.026   3.657 -0.2119  0.5567  0.2399
  262TIP3    H2  793   5.582   1.913   3.739  0.2786  0.0928 -0.7308
  263TIP3   OH2  794   2.272   0.200   0.991  0.0233 -1.1242 -0.1679
  263TIP3    H1  795   2.333   0.247   0.934 -0.2355  0.7600  1.0403
  263TIP3    H2  796   2.197   0.180   0.934 -0.5981  1.4547 -0.3536
  264TIP3   OH2  797   0.107   3.729   2.791  0.5331  0.1329  0.0616
  264TIP3    H1  798   0.020   3.728   2.831 -0.1005  0.5374 -1.2816
  264TIP3    H2  799   0.165   3.694   2.860 -0.7181 -0.4234  0.8606
  265TIP3   OH2  800   2.762   2.312   2.311  0.5458  0.1992  0.2592
  265TIP3    H1  801   2.745   2.220   2.290  0.3997  0.3142 -0.1454
  265TIP3    H2  802   2.832   2.310   2.376  2.7259 -0.1363 -1.9157
  266TIP3   OH2  803   5.462   1.091   3.859  0.1301 -0.1895  0.3416
  266TIP3    H1  804   5.518   1.101   3.782 -0.1427  0.2990  0.2033
  266TIP3    H2  805   5.508   1.028   3.914  1.2629  0.8871  0.6453
  267TIP3   OH2  806   2.465   3.173   4.715 -0.2624 -0.4786 -0.6655
  267TIP3    H1  807   2.548   3.183   4.669  0.2838 -1.0674  0.1755
  267TIP3    H2  808   2.432   3.088   4.686 -0.5763 -0.2502 -0.9905
  268TIP3   OH2  809   4.007   3.086   4.713 -0.0540  0.0976 -0.2196
  268TIP3    H1  810   3.915   3.100   4.732  0.1973 -0.4546  1.5686
  268TIP3    H2  811   4.034   3.166   4.668 -1.1824  0.6722  0.0774
  269TIP3   OH2  812   3.320   2.362   3.764  0.0859  0.3386 -0.2185
  269TIP3    H1  813   3.230   2.385   3.788  0.2761  0.0072  0.8360
  269TIP3    H2  814   3.331   2.400   3.677 -1.2310 -0.0120 -0.5674
  270TIP3   OH2  815   5.327   0.578   0.304  0.5371  0.2389 -0.2306
  270TIP3    H1  816   5.357   0.487   0.315  0.3930  0.3050  0.8096
  270TIP3    H2  817   5.401   0.631   0.331 -0.3781  0.4052  2.1705
  271TIP3   OH2  818   2.001   0.953   4.401 -0.1528  0.4249 -0.2328
  271TIP3    H1  819   2.072   0.918   4.348  0.3159  1.9465 -0.6551
  271TIP3    H2  820   1.951   0.876   4.429 -1.8024 -0.4312 -4.7506
  272TIP3   OH2  821   1.183   4.964   0.931 -0.8687  0.0070  0.0369
  272TIP3    H1  822   1.217   4.899   0.993  1.4519  0.3604 -0.7746
  272TIP3    H2  823   1.216   5.048   0.965 -1.8607  0.5164 -0.2215
  273TIP3   OH2  824   5.688   2.744   3.103  0.3037 -0.1673 -0.2992
  273TIP3    H1  825   5.649   2.750   3.191 -0.0224  0.1464 -0.4646
  273TIP3    H2  826   5.614   2.749   3.043  0.3365 -2.1368 -0.5706
  274TIP3   OH2  827   2.027   5.346   4.900 -0.3082 -0.8838 -0.5570
  274TIP3    H1  828   2.084   5.339   4.823 -1.1350 -3.0181 -1.0529
  274TIP3    H2  829   2.086   5.347   4.975  0.5170  1.3622 -1.1693
  275TIP3   OH2  830   2.852   1.264   4.535  0.0276 -0.0703 -0.2636
  275TIP3    H1  831   2.873   1.240   4.626  0.6213 -1.5175 -0.7543
  275TIP3    H2  832   2.767   1.223   4.518 -1.1397  2.0080  0.2857
  276TIP3   OH2  833   1.132   0.238   3.801 -0.0650  0.1428 -0.3579
  276TIP3    H1  834   1.123   0.322   3.847 -3.4565 -0.2782 -0.0244
  276TIP3    H2  835   1.057   0.186   3.830  0.2274 -1.8746 -2.8811
  277TIP3   OH2  836   6.003   4.934   3.645  0.1431 -0.1768 -0.1918
  277TIP3    H1  837   6.010   5.007   3.584  0.1948 -1.4077 -1.7160
  277TIP3    H2  838   6.078   4.879   3.626 -0.5549 -1.2523  0.0774
  278TIP3   OH2  839   4.909   1.867   2.366 -0.4679 -0.2354  0.0057
  278TIP3    H1  840   4.994   1.828   2.386 -0.3770 -0.2029 -0.3231
  278TIP3    H2  841   4.845   1.805   2.402 -0.3252 -0.7101 -0.5508
  279TIP3   OH2  842   5.582   1.897   3.364 -0.3042  0.0828 -1.0340
  279TIP3    H1  843   5.640   1.853   3.426 -1.2865  0.6755  0.3520
  279TIP3    H2  844   5.593   1.990   3.381 -0.6311  0.2584 -1.7195
  280TIP3   OH2  845   2.407   1.921   4.886  0.1600 -0.1661  0.2406
  280TIP3    H1  846   2.470   1.972   4.938 -0.4931  0.3839  0.5010
  280TIP3    H2  847   2.459   1.847   4.852  1.5246  1.4680 -1.4378
  281TIP3   OH2  848   4.318   4.283   2.566 -0.6398 -0.7500 -0.8774
  281TIP3    H1  849   4.384   4.287   2.498 -1.2038 -1.9161 -1.5315
  281TIP3    H2  850   4.324   4.194   2.601  0.6236  0.2166  1.6569
  282TIP3   OH2  851   1.076   5.851   4.339 -0.5031  0.1916  0.6779
  282TIP3    H1  852   1.144   5.852   4.406 -1.5799 -0.4538  1.8118
  282TIP3    H2  853   1.010   5.913   4.369 -0.9483 -0.0131  0.1574
  283TIP3   OH2  854   0.089   0.563   0.210  0.3715  0.2627  0.0466
  283TIP3    H1  855   0.132   0.542   0.127 -0.0288  0.7731 -0.3055
  283TIP3    H2  856   0.127   0.503   0.274  0.7253 -0.1014 -0.4991
  284TIP3   OH2  857   3.340   0.643   0.730 -0.1892 -0.3666 -0.5553
  284TIP3    H1  858   3.359   0.718   0.674 -1.2385  0.6247  0.3526
  284TIP3    H2  859   3.249   0.621   0.711  0.2242 -1.6848 -1.0966
  285TIP3   OH2  860   4.150   1.085   4.900 -0.3834 -0.4500  0.2439
  285TIP3    H1  861   4.187   1.155   4.847  0.9781  0.2917  2.0644
  285TIP3    H2  862   4.080   1.048   4.845 -0.3750  1.5342 -1.2386
  286TIP3   OH2  863   0.424  -0.017   2.716 -0.6330 -0.0943 -0.4245
  286TIP3    H1  864   0.414  -0.027   2.811 -0.2289 -0.4030 -0.4152
  286TIP3    H2  865   0.435   0.077   2.703 -1.3617  0.0308 -0.2322
  287TIP3   OH2  866   0.372   0.098   1.793  0.0226  0.2392  0.2943
  287TIP3    H1  867   0.410   0.170   1.742  0.5789 -0.3990 -0.2008
  287TIP3    H2  868   0.448   0.044   1.817 -0.4354 -0.3814  0.3496
  288TIP3   OH2  869   4.729   5.237   5.176 -0.7121  0.2697 -0.1823
  288TIP3    H1  870   4.641   5.207   5.149 -0.3841  1.7310 -3.2656
  288TIP3    H2  871   4.780   5.237   5.095  1.7253  0.9973  1.2604
  289TIP3   OH2  872   2.071   0.654   0.518  0.1575 -0.5650 -0.3666
  289TIP3    H1  873   2.001   0.670   0.455 -1.1295 -0.4271  1.0467
  289TIP3    H2  874   2.142   0.713   0.491 -0.3281 -0.5749 -1.7120
  290TIP3   OH2  875   4.172   2.703   2.940 -0.1890 -0.1000  0.2427
  290TIP3    H1  876   4.166   2.797   2.924  0.9053  0.0799  0.8065
  290TIP3    H2  877   4.178   2.664   2.853 -0.4676  0.3633  0.0119
  291TIP3   OH2  878   3.676   4.125   0.292 -0.2490  0.2113  0.0737
  291TIP3    H1  879   3.650   4.212   0.262  1.6570  1.3931  1.6282
  291TIP3    H2  880   3.607   4.099   0.353 -0.8499  0.5923 -0.4296
  292TIP3   OH2  881   4.024   5.446   2.089  0.1147 -0.4294  0.3972
  292TIP3    H1  882   3.964   5.383   2.050  1.6108 -2.4723  1.2653
  292TIP3    H2  883   4.018   5.430   2.183  0.5746  0.6938  0.6352
  293TIP3   OH2  884   6.258   0.360   3.643 -0.2149  0.4190 -0.1258
  293TIP3    H1  885   6.203   0.413   3.700  0.9390  0.9429  0.5350
  293TIP3    H2  886   6.198   0.296   3.605 -1.3125  1.1100  0.3932
  294TIP3   OH2  887   4.427   0.463   4.449 -0.3913 -0.5646  0.0717
  294TIP3    H1  888   4.397   0.539   4.399  1.3078 -0.1439 -0.3547
  294TIP3    H2  889   4.448   0.397   4.382  2.6475  0.2698  0.0496
  295TIP3   OH2  890   3.472   0.147   3.093 -0.5193 -0.6210  0.1513
  295TIP3    H1  891   3.502   0.223   3.143 -0.1739 -1.1637  0.7832
  295TIP3    H2  892   3.552   0.103   3.066 -0.7204 -1.2274  0.5250
  296TIP3   OH2  893   2.793   4.529   4.266 -0.1245  0.4388  0.1899
  296TIP3    H1  894   2.721   4.592   4.268 -3.0656 -2.6012 -0.4621
  296TIP3    H2  895   2.840   4.543   4.349 -1.2731  2.6965  0.5290
  297TIP3   OH2  896   4.989   0.914   5.024  0.5372  0.4663  0.0736
  297TIP3    H1  897   4.997   0.821   5.048 -0.9286 -0.1250 -1.4777
  297TIP3    H2  898   5.044   0.923   4.947  1.2417  1.0757  0.6461
  298TIP3   OH2  899   0.273   3.980   5.094 -0.6858  0.1647  0.0960
  298TIP3    H1  900   0.297   3.887   5.089 -0.3324  0.2548  0.0542
  298TIP3    H2  901   0.187   3.980   5.135 -2.0244 -0.3543 -2.5133
  299TIP3   OH2  902   3.506   2.093   2.782  1.0101  0.1096 -0.3152
  299TIP3    H1  903   3.480   2.180   2.813 -0.5843  0.0102 -1.2833
  299TIP3    H2  904   3.543   2.050   2.859  0.3988  1.1009  0.5545
  300TIP3   OH2  905   5.283   5.839   4.124 -0.3205 -0.0425  0.3678
  300TIP3    H1  906   5.222   5.883   4.183 -0.4591 -0.6043  0.6541
  300TIP3    H2  907   5.359   5.818   4.179 -0.3950 -0.4516  0.3189
  301TIP3   OH2  908   3.503   2.266   0.891 -0.0370  0.1905  0.2374
  301TIP3    H1  909   3.425   2.280   0.944  0.0523  0.2446  0.3539
  301TIP3    H2  910   3.563   2.219   0.948 -0.0693 -0.0506  0.0739
  302TIP3   OH2  911   4.649   1.462   0.024 -0.3582  0.1444 -0.3624
  302TIP3    H1  912   4.614   1.550   0.008 -1.3537 -0.5244 -2.0912
  302TIP3    H2  913   4.744   1.473   0.021 -0.2812  1.6985  2.7740
  303TIP3   OH2  914   2.288   4.014   0.057  0.1628  0.7267 -0.6994
  303TIP3    H1  915   2.249   4.025   0.144  1.6115 -2.5068  0.5571
  303TIP3    H2  916   2.361   4.076   0.056  0.6015  0.2868  0.7543
  304TIP3   OH2  917   4.846   2.274   2.203  0.4236 -0.3970 -0.6540
  304TIP3    H1  918   4.907   2.235   2.141 -1.1910 -0.7103 -2.1103
  304TIP3    H2  919   4.819   2.202   2.260  0.5130 -0.5133 -0.7608
  305TIP3   OH2  920   3.715   5.029   3.305 -0.2139 -0.3894 -0.1285
  305TIP3    H1  921   3.775   4.981   3.248  0.0856 -0.9810  0.6629
  305TIP3    H2  922   3.755   5.115   3.314 -0.7856  0.0634 -1.6036
  306TIP3   OH2  923   1.942   1.165   1.576  0.0680 -0.6026  0.4748
  306TIP3    H1  924   1.917   1.090   1.630 -0.0133  0.5536  2.1270
  306TIP3    H2  925   2.038   1.169   1.584  0.2696 -1.4843 -0.9999
  307TIP3   OH2  926   3.982   3.826   4.014 -0.3680 -0.1634  0.8565
  307TIP3    H1  927   3.908   3.886   4.005 -0.1740 -0.1095 -0.6617
  307TIP3    H2  928   3.995   3.818   4.109 -0.4776  2.0872  1.1158
  308TIP3   OH2  929   5.457   4.139   3.615  0.5151  0.0867  0.2366
  308TIP3    H1  930   5.523   4.075   3.641  1.3912  0.3385 -1.2347
  308TIP3    H2  931   5.495   4.224   3.639  0.2034  0.1625  0.4581
  309TIP3   OH2  932   0.804   3.220   2.119  0.1411  0.5240 -0.3753
  309TIP3    H1  933   0.847   3.162   2.057 -0.1677  1.1442 -1.1862
  309TIP3    H2  934   0.831   3.308   2.092  1.6415  0.7357  1.6078
  310TIP3   OH2  935   4.191   3.115   4.417  0.0261  0.2747  0.2685
  310TIP3    H1  936   4.237   3.083   4.339  0.6136  1.1460  0.2336
  310TIP3    H2  937   4.247   3.088   4.490  0.9028  1.7575  0.1965
  311TIP3   OH2  938   4.642   4.133   4.012  0.7151  0.1861  0.2178
  311TIP3    H1  939   4.565   4.084   4.040  1.8018 -2.1199 -0.6078
  311TIP3    H2  940   4.627   4.222   4.045 -1.8608 -0.3944  0.8239
  312TIP3   OH2  941   3.821   1.539   2.131 -0.3662  0.4001  0.8774
  312TIP3    H1  942   3.823   1.608   2.065  3.7051  0.4424  0.7592
  312TIP3    H2  943   3.872   1.468   2.093 -1.7985 -1.4501  2.2464
  313TIP3   OH2  944   4.747   4.599   2.424 -0.0376 -0.7550 -0.3507
  313TIP3    H1  945   4.758   4.625   2.515  0.7395  0.7151 -0.8355
  313TIP3    H2  946   4.804   4.522   2.414  0.8223 -0.1906  0.1036
  314TIP3   OH2  947   2.227   4.688   4.991  0.7546  0.4571  0.2701
  314TIP3    H1  948   2.313   4.723   5.015  2.2229 -2.0361 -0.8742
  314TIP3    H2  949   2.240   4.653   4.903 -1.2284 -0.6400  0.3602
  315TIP3   OH2  950   5.108   4.984   4.585 -0.8386 -0.2955  0.1425
  315TIP3    H1  951   5.049   4.918   4.623 -1.0483 -0.1441  0.0862
  315TIP3    H2  952   5.049   5.051   4.551 -0.6014  0.3750  1.0266
  316TIP3   OH2  953   3.161   4.904   4.272  0.0621  0.0424 -0.4255
  316TIP3    H1  954   3.074   4.900   4.233  0.5617 -0.9303 -1.5194
  316TIP3    H2  955   3.217   4.935   4.201  0.5509  1.0981  0.3991
  317TIP3   OH2  956   4.291   3.114   2.372  0.0242  0.0196 -0.9948
  317TIP3    H1  957   4.196   3.117   2.382  0.2338 -0.9527  2.2471
  317TIP3    H2  958   4.308   3.025   2.340 -0.1041 -0.1706 -0.5397
  318TIP3   OH2  959   4.698   2.960   2.109  0.2995  0.1799  0.0576
  318TIP3    H1  960   4.782   2.981   2.151  0.6413  0.6164 -0.8176
  318TIP3    H2  961   4.635   3.016   2.154  0.2975 -0.7890  1.3317
  319TIP3   OH2  962   3.320   4.152   1.973  0.4265  0.6095 -0.3345
  319TIP3    H1  963   3.306   4.153   2.067 -0.2182 -2.6224 -0.2778
  319TIP3    H2  964   3.248   4.205   1.937 -1.1377 -0.5702  0.8982
  320TIP3   OH2  965   0.224   0.477   2.702  0.2795  0.1896  0.0320
  320TIP3    H1  966   0.199   0.533   2.629  0.5451  1.0198  0.5723
  320TIP3    H2  967   0.222   0.534   2.779  0.8492 -0.4623  0.5441
  321TIP3   OH2  968   4.830   4.970   2.479  0.5293 -0.5398 -0.1742
  321TIP3    H1  969   4.769   5.035   2.514  1.3136  0.0671  0.1218
  321TIP3    H2  970   4.829   4.899   2.543  0.9222 -0.0539  0.3815
  322TIP3   OH2  971   3.601   1.493   1.902 -0.4178 -0.1189 -0.2742
  322TIP3    H1  972   3.672   1.556   1.885  0.6547 -1.1033  0.3626
  322TIP3    H2  973   3.533   1.516   1.839  1.6621 -0.9703 -3.0482
  323TIP3   OH2  974   0.419   5.615   0.183 -0.2987 -0.1468 -0.4515
  323TIP3    H1  975   0.390   5.554   0.251 -0.5907  1.2523  0.7214
  323TIP3    H2  976   0.515   5.616   0.191 -0.3389  0.1014  0.0285
  324TIP3   OH2  977   0.163   0.642   4.091  0.0359  0.2653 -0.2550
  324TIP3    H1  978   0.188   0.690   4.170 -1.4228  0.6104  0.0238
  324TIP3    H2  979   0.220   0.564   4.091 -0.8545 -0.4458  1.8849
  325TIP3   OH2  980   2.588   0.048   1.188  0.0016 -0.5094 -0.2814
  325TIP3    H1  981   2.520  -0.018   1.182  1.2249 -1.7112 -1.6055
  325TIP3    H2  982   2.668   0.003   1.162  0.7952  1.5987 -1.8386
  326TIP3   OH2  983   0.733   2.738   2.817 -0.6414  0.1091 -0.0182
  326TIP3    H1  984   0.810   2.795   2.823 -0.8067  0.4005 -0.5937
  326TIP3    H2  985   0.703   2.730   2.907  1.8756 -2.5811  0.7552
  327TIP3   OH2  986   4.928   5.384   2.688 -0.1804 -0.1624 -0.5494
  327TIP3    H1  987   4.873   5.314   2.723  1.1843 -0.8724  0.2675
  327TIP3    H2  988   4.872   5.462   2.692 -0.7289 -0.5887  1.4881
  328TIP3   OH2  989   0.327   4.522   1.653  0.8060 -0.2871 -0.4517
  328TIP3    H1  990   0.334   4.430   1.630  0.5757  0.0342 -1.9159
  328TIP3    H2  991   0.417   4.549   1.671  0.8924 -0.7540 -0.1746
  329TIP3   OH2  992   2.453   5.605   4.226 -0.1162  0.5539 -0.0461
  329TIP3    H1  993   2.486   5.631   4.140  1.1010  0.1096  0.2663
  329TIP3    H2  994   2.413   5.684   4.261  1.7886  1.5168  0.0907
  330TIP3   OH2  995   4.590   4.933   3.970  0.1860  0.0411  0.4228
  330TIP3    H1  996   4.575   5.014   3.921 -1.4485 -0.8164 -0.6028
  330TIP3    H2  997   4.530   4.870   3.930  1.3479 -1.6621  1.2438
  331TIP3   OH2  998   3.836   4.311   3.973  0.2064 -0.1922  0.1198
  331TIP3    H1  999   3.916   4.343   4.015  0.2248 -0.1606  0.0610
  331TIP3    H2 1000   3.788   4.267   4.042  0.3084 -0.2711  0.1393
  332TIP3   OH2 1001   5.500   2.032   0.029  0.2155 -0.5074 -0.2409
  332TIP3    H1 1002   5.455   2.027   0.113 -0.6144  1.0338 -0.5524
  332TIP3    H2 1003   5.577   2.086   0.046  0.2234 -0.4722 -0.3898
  333TIP3   OH2 1004   1.861   2.095   1.723  0.2894  0.6328  0.7398
  333TIP3    H1 1005   1.842   2.124   1.634 -0.1454  3.1247  1.5702
  333TIP3    H2 1006   1.796   2.027   1.741  0.0935  0.4281 -0.6770
  334TIP3   OH2 1007   3.294   3.951   1.393 -0.3374 -0.5524  0.3447
  334TIP3    H1 1008   3.366   3.953   1.456 -0.1168 -2.0432  0.1738
  334TIP3    H2 1009   3.250   3.867   1.409 -0.5391 -0.7689 -1.1810
  335TIP3   OH2 1010   3.588   5.807   2.642  0.0259  0.8126 -0.3510
  335TIP3    H1 1011   3.527   5.839   2.709 -1.9950 -0.3830 -1.5276
  335TIP3    H2 1012   3.537   5.745   2.590  2.0270  0.3824 -1.9442
  336TIP3   OH2 1013   4.345   1.922   2.918 -0.0804 -0.8578 -0.0597
  336TIP3    H1 1014   4.270   1.981   2.929 -0.2717 -1.1625  0.3122
  336TIP3    H2 1015   4.393   1.929   3.001  1.0887  0.3991 -0.7997
  337TIP3   OH2 1016   4.396   2.523   4.449  0.4493 -0.1607 -0.2540
  337TIP3    H1 1017   4.470   2.549   4.395  0.6132  1.0144  0.5117
  337TIP3    H2 1018   4.431   2.455   4.506  0.5234 -0.7104 -0.9320
  338TIP3   OH2 1019   2.652   0.447   3.127  0.1589  0.3893 -0.2160
  338TIP3    H1 1020   2.746   0.454   3.143 -0.2352  0.5127  2.6234
  338TIP3    H2 1021   2.618   0.534   3.148 -0.8126 -0.2845  1.1573
  339TIP3   OH2 1022   5.590   1.229   1.595  0.0302 -0.4534  0.7119
  339TIP3    H1 1023   5.683   1.231   1.572  0.1324 -0.6447  1.0974
  339TIP3    H2 1024   5.584   1.281   1.675 -0.3188  0.1935  0.2781
  340TIP3   OH2 1025   5.165   5.908   0.717  0.4116 -0.0452 -0.1344
  340TIP3    H1 1026   5.138   5.835   0.773  0.9117 -2.4142 -2.7593
  340TIP3    H2 1027   5.122   5.891   0.633  1.0896  2.3677 -1.0523
  341TIP3   OH2 1028   5.503   0.855   0.668  0.0996 -0.1706  0.0178
  341TIP3    H1 1029   5.449   0.928   0.637  0.9043  0.4530  0.0284
  341TIP3    H2 1030   5.590   0.873   0.632  0.5835 -0.4969  0.9895
  342TIP3   OH2 1031   2.586   3.496   4.590 -0.1380  0.1626 -0.4313
  342TIP3    H1 1032   2.636   3.414   4.596  0.3943  0.5216  0.3095
  342TIP3    H2 1033   2.502   3.476   4.632 -0.0133 -0.0113 -0.2607
  343TIP3   OH2 1034   2.731   1.709   0.468 -0.3838 -0.5413 -0.3879
  343TIP3    H1 1035   2.752   1.801   0.480 -0.7039 -0.5880  0.6483
  343TIP3    H2 1036   2.640   1.701   0.494 -0.3421 -1.1589 -0.4176
  344TIP3   OH2 1037   2.408   0.030   0.039 -0.6729 -0.0376 -0.5199
  344TIP3    H1 1038   2.438   0.053  -0.049 -1.5196  2.5258 -0.2047
  344TIP3    H2 1039   2.318   0.001   0.027  0.0899 -2.6322 -0.7823
  345TIP3   OH2 1040   0.637   1.446   4.035  0.1031 -0.4708  0.0089
  345TIP3    H1 1041   0.571   1.511   4.014 -0.2223 -0.6842  0.3500
  345TIP3    H2 1042   0.591   1.382   4.089  0.8385 -0.0597  1.1659
  346TIP3   OH2 1043   1.338   4.004   5.049 -0.4528  0.1958 -0.2154
  346TIP3    H1 1044   1.355   3.934   4.986 -0.5562  0.0350 -0.0681
  346TIP3    H2 1045   1.419   4.055   5.051 -0.9419  1.0643 -1.5403
  347TIP3   OH2 1046   6.329   4.057   4.958  0.1395 -0.5297  0.9559
  347TIP3    H1 1047   6.326   3.961   4.957  2.2602 -0.6509  1.0299
  347TIP3    H2 1048   6.337   4.082   4.866 -2.7481 -0.2219  0.6956
  348TIP3   OH2 1049   1.272   0.167   1.088 -0.6889  1.0233  0.2736
  348TIP3    H1 1050   1.276   0.175   1.183 -0.4789  1.0361  0.2650
  348TIP3    H2 1051   1.223   0.087   1.072 -1.0617  1.2247  0.3868
  349TIP3   OH2 1052   5.212   0.720   2.903  0.5503 -0.1824 -0.4981
  349TIP3    H1 1053   5.192   0.812   2.920  0.9846 -0.0749 -0.5592
  349TIP3    H2 1054   5.127   0.680   2.886  0.5689  0.8533 -3.6584
  350TIP3   OH2 1055   5.867   2.643   4.138  0.2861 -0.0717 -0.5827
  350TIP3    H1 1056   5.813   2.599   4.204  0.8335 -0.8595 -0.6461
  350TIP3    H2 1057   5.808   2.658   4.065 -0.5048  1.3863  0.2959
  351TIP3   OH2 1058   5.813   4.213   1.089 -0.1264  0.4006 -0.3228
  351TIP3    H1 1059   5.751   4.146   1.060 -0.5167 -0.7164  2.7285
  351TIP3    H2 1060   5.767   4.295   1.075 -1.2200 -0.2419 -0.6383
  352TIP3   OH2 1061   3.946   1.620   2.988  0.2392 -0.0979 -0.2686
  352TIP3    H1 1062   3.980   1.540   2.947 -1.4481 -0.3410 -1.2804
  352TIP3    H2 1063   3.886   1.588   3.055  1.1654  0.3288  0.7861
  353TIP3   OH2 1064   5.382   3.358   0.221  0.0417 -0.3409 -0.1555
  353TIP3    H1 1065   5.366   3.300   0.294  0.3479 -1.8387 -1.2334
  353TIP3    H2 1066   5.311   3.422   0.224 -0.5492 -1.0266  0.7937
  354TIP3   OH2 1067   3.396   0.183   1.876 -0.0150 -0.7205 -0.1038
  354TIP3    H1 1068   3.361   0.268   1.850  2.2197  0.1853 -0.3469
  354TIP3    H2 1069   3.343   0.157   1.951 -1.2199  0.5272 -0.4911
  355TIP3   OH2 1070   4.897   0.747   0.095  0.2707  0.2389  0.3038
  355TIP3    H1 1071   4.820   0.695   0.116  0.4248  0.3452  1.1861
  355TIP3    H2 1072   4.969   0.705   0.142  0.7307  0.2221 -0.3943
  356TIP3   OH2 1073   4.790   3.449   0.019  0.6661 -0.0313 -0.1872
  356TIP3    H1 1074   4.819   3.527   0.066 -0.4829  0.4849 -0.3101
  356TIP3    H2 1075   4.832   3.376   0.065  0.1813  0.5225  1.1613
  357TIP3   OH2 1076   3.061   0.211   4.787 -0.3381  0.0868 -0.7983
  357TIP3    H1 1077   3.050   0.144   4.855 -2.3675  0.1169 -1.0515
  357TIP3    H2 1078   3.097   0.287   4.834 -0.5637 -0.2863 -0.0051
  358TIP3   OH2 1079   0.341   2.589   0.639  0.0312 -0.1877 -0.1267
  358TIP3    H1 1080   0.264   2.609   0.693  1.0991 -2.8057  2.7232
  358TIP3    H2 1081   0.326   2.500   0.608  1.8333 -0.7360  0.4435
  359TIP3   OH2 1082   5.106   2.335   4.698  0.1606 -0.4408 -0.2660
  359TIP3    H1 1083   5.172   2.398   4.666  0.2016 -0.4778 -0.2554
  359TIP3    H2 1084   5.097   2.356   4.791 -0.1775 -0.1380 -0.3673
  360TIP3   OH2 1085   2.786   3.080   2.541 -0.1823  0.4033  0.8519
  360TIP3    H1 1086   2.727   3.027   2.488  2.0296 -0.3920 -1.0054
  360TIP3    H2 1087   2.789   3.035   2.625  0.7829 -1.9127 -0.3299
  361TIP3   OH2 1088   2.567   1.189   1.888 -0.1748  0.5992  0.2151
  361TIP3    H1 1089   2.620   1.193   1.808  1.2965  0.4289  1.1478
  361TIP3    H2 1090   2.526   1.102   1.886  2.1523 -0.5877  1.0168
  362TIP3   OH2 1091   5.034   3.999   3.680  0.3683  0.2749 -0.0872
  362TIP3    H1 1092   4.990   3.922   3.644  0.1453 -0.5693  1.8758
  362TIP3    H2 1093   5.060   3.973   3.768  0.3861  2.4249  0.5942
  363TIP3   OH2 1094   2.082   3.573   1.798 -0.2287 -1.0222 -0.5164
  363TIP3    H1 1095   2.044   3.661   1.790  2.1121  0.1520  0.1502
  363TIP3    H2 1096   2.151   3.571   1.731 -0.4796 -2.5168 -0.7686
  364TIP3   OH2 1097   2.306   4.513   0.178 -0.0706  0.2031 -0.2643
  364TIP3    H1 1098   2.395   4.518   0.210  0.7157  0.5975 -2.3290
  364TIP3    H2 1099   2.265   4.595   0.205  0.2102  0.0510  0.6301
  365TIP3   OH2 1100   1.880   4.814   1.127 -0.0134  0.3208  0.5387
  365TIP3    H1 1101   1.816   4.876   1.092 -0.3809  0.4541  1.4118
  365TIP3    H2 1102   1.860   4.810   1.221  1.2287  0.3186  0.8146
  366TIP3   OH2 1103   2.813   5.253   1.772  0.1584 -0.0428  0.6907
  366TIP3    H1 1104   2.752   5.193   1.816  0.4046 -0.6019  0.2826
  366TIP3    H2 1105   2.800   5.236   1.679  0.3440  0.4296  0.5793
  367TIP3   OH2 1106   0.007   3.677   1.850  0.0282  0.2552  0.0814
  367TIP3    H1 1107   0.045   3.591   1.871 -1.3804 -0.7622 -1.3042
  367TIP3    H2 1108   0.060   3.739   1.900  2.7370 -1.1599 -0.8032
  368TIP3   OH2 1109   2.704   3.972   0.711  0.2478  0.3678 -0.0401
  368TIP3    H1 1110   2.698   3.908   0.640  2.0348  0.3237 -0.2177
  368TIP3    H2 1111   2.713   3.919   0.790 -2.7681  0.3958  0.4381
  369TIP3   OH2 1112   5.048   0.913   4.533  0.9405  0.3378 -0.4498
  369TIP3    H1 1113   5.117   0.853   4.505  2.0184  2.0709 -1.7044
  369TIP3    H2 1114   5.071   0.996   4.493 -0.9632  1.4064  0.5377
  370TIP3   OH2 1115   3.859   0.423   1.350  0.1782  0.1701 -0.8079
  370TIP3    H1 1116   3.870   0.369   1.429  0.0806  1.6990  0.2996
  370TIP3    H2 1117   3.773   0.399   1.317 -1.1026  1.5953  1.2826
  371TIP3   OH2 1118   4.566   2.249   0.105 -0.6703  0.0320 -0.3529
  371TIP3    H1 1119   4.483   2.264   0.059 -0.9209  0.0725  0.0963
  371TIP3    H2 1120   4.630   2.235   0.036 -0.7366  1.5363 -0.7675
  372TIP3   OH2 1121   2.964   0.376   3.791  0.4123  0.3255  0.0404
  372TIP3    H1 1122   2.954   0.309   3.858 -1.3699  0.5642  0.0553
  372TIP3    H2 1123   2.997   0.329   3.715 -1.0122 -0.6342 -0.0158
  373TIP3   OH2 1124   2.619   3.744   2.254 -0.1737  0.0338  0.0068
  373TIP3    H1 1125   2.604   3.661   2.299  0.3808 -0.2889 -0.3956
  373TIP3    H2 1126   2.613   3.810   2.323 -0.7623 -0.3232  0.3061
  374TIP3   OH2 1127   2.385   3.377   2.478 -0.5363  0.1370 -0.2081
  374TIP3    H1 1128   2.307   3.380   2.535 -0.4429 -1.6968  0.0803
  374TIP3    H2 1129   2.398   3.284   2.461  1.5577  0.4052 -0.3257
  375TIP3   OH2 1130   4.707   5.621   1.738  0.3911 -0.4612 -0.0603
  375TIP3    H1 1131   4.760   5.543   1.756 -0.1414 -0.7337  0.3575
  375TIP3    H2 1132   4.619   5.597   1.767  0.3839  0.5655  0.8459
  376TIP3   OH2 1133   5.244   5.818   3.795 -0.1967  0.3098 -0.1152
  376TIP3    H1 1134   5.215   5.889   3.738  1.3452  0.7354 -0.4360
  376TIP3    H2 1135   5.322   5.854   3.838  0.4432 -1.0950 -0.0660
  377TIP3   OH2 1136   4.099   0.892   3.680 -0.6169 -0.0573  0.1583
  377TIP3    H1 1137   4.125   0.846   3.601  1.2412  1.1809 -0.0204
  377TIP3    H2 1138   4.005   0.874   3.689 -0.8285 -0.4103 -2.1915
  378TIP3   OH2 1139   4.978   1.601   0.793  0.1274  0.3303  0.4150
  378TIP3    H1 1140   4.922   1.648   0.855  1.2580  2.8434 -0.3558
  378TIP3    H2 1141   4.951   1.632   0.707 -0.3437 -1.9116 -0.3102
  379TIP3   OH2 1142   3.433   5.068   1.627 -0.2141 -0.3186  0.1971
  379TIP3    H1 1143   3.449   5.157   1.595 -2.2960 -0.5452 -1.7674
  379TIP3    H2 1144   3.344   5.070   1.661  0.9491 -0.8445  3.6608
  380TIP3   OH2 1145   4.982   0.834   1.784 -0.2649 -0.0657 -0.2077
  380TIP3    H1 1146   4.921   0.766   1.755 -0.9753  0.9401 -1.1589
  380TIP3    H2 1147   4.953   0.856   1.873  0.4479 -1.4913  0.4298
  381TIP3   OH2 1148   4.440   2.121   0.424 -0.4024  0.3113  0.8006
  381TIP3    H1 1149   4.377   2.158   0.362  2.3477  1.3509 -1.6047
  381TIP3    H2 1150   4.415   2.029   0.430 -0.6290  0.0525 -2.1997
  382TIP3   OH2 1151   3.492   4.622   3.297 -0.2085 -0.3641  0.5082
  382TIP3    H1 1152   3.476   4.695   3.356  2.8525  0.2122  0.8278
  382TIP3    H2 1153   3.431   4.554   3.324 -2.0063  1.4675  1.2758
  383TIP3   OH2 1154   2.686   0.309   1.129 -0.2078 -0.3163  0.1567
  383TIP3    H1 1155   2.652   0.226   1.162  0.9169 -0.8144  0.1114
  383TIP3    H2 1156   2.734   0.346   1.203 -0.2544  0.0358  0.0131
  384TIP3   OH2 1157   2.704   0.162   4.966  0.0634  0.4442 -0.5772
  384TIP3    H1 1158   2.657   0.244   4.956 -1.0869 -0.1893 -0.5730
  384TIP3    H2 1159   2.671   0.125   5.048 -1.7502 -1.4285 -2.0448
  385TIP3   OH2 1160   1.733   0.200   2.005  0.2647  0.6218  0.0565
  385TIP3    H1 1161   1.827   0.217   2.008  0.4254 -0.2010 -0.0369
  385TIP3    H2 1162   1.724   0.108   2.032 -0.6785  1.2079  1.9373
  386TIP3   OH2 1163   2.660   5.315   3.492 -0.1921  0.1381  0.4594
  386TIP3    H1 1164   2.697   5.234   3.456 -0.7750  0.6986 -1.5494
  386TIP3    H2 1165   2.568   5.313   3.466 -0.7020  0.5203  2.1462
  387TIP3   OH2 1166   1.024   1.635   0.036 -0.7672 -0.2684 -0.0474
  387TIP3    H1 1167   0.949   1.592   0.077 -1.5186  0.4068 -0.6821
  387TIP3    H2 1168   1.020   1.725   0.066 -0.0747 -0.2750  0.0817
  388TIP3   OH2 1169   0.332   3.444   4.827  0.1158 -0.2834  0.6281
  388TIP3    H1 1170   0.306   3.455   4.918 -0.2575 -0.3910  0.5369
  388TIP3    H2 1171   0.294   3.519   4.781 -0.5252 -0.7306  0.3982
  389TIP3   OH2 1172   1.895   2.025   1.192 -0.8537  0.1733  0.7567
  389TIP3    H1 1173   1.824   2.024   1.256 -0.5530 -0.0378  1.0886
  389TIP3    H2 1174   1.858   1.982   1.114 -0.9307 -0.4002  1.1023
  390TIP3   OH2 1175   6.046   1.629   4.824  0.3407 -0.5273  0.1598
  390TIP3    H1 1176   6.074   1.665   4.908  1.6676 -0.7714 -0.1424
  390TIP3    H2 1177   6.128   1.614   4.776 -0.3705 -0.6504 -1.0704
  391TIP3   OH2 1178   3.469   2.416   1.528  0.1136 -0.0197  0.1272
  391TIP3    H1 1179   3.553   2.400   1.486  0.5374 -0.6871  1.1660
  391TIP3    H2 1180   3.408   2.360   1.481  0.4450 -0.2422 -0.0456
  392TIP3   OH2 1181   6.173   5.397   4.522  0.1128 -0.4843 -0.1277
  392TIP3    H1 1182   6.254   5.380   4.571  0.6855 -2.5561 -1.6564
  392TIP3    H2 1183   6.202   5.412   4.432 -1.1601 -0.7360 -0.6009
  393TIP3   OH2 1184   1.548   0.171   0.768 -0.5361  0.2499  0.1498
  393TIP3    H1 1185   1.628   0.199   0.724 -0.8544 -1.1224 -1.4182
  393TIP3    H2 1186   1.519   0.248   0.817  1.5099  0.8899  0.4492
  394TIP3   OH2 1187   5.713   3.732   1.665  0.1953 -0.8556  0.0325
  394TIP3    H1 1188   5.649   3.665   1.689 -1.1386  0.2936 -0.1850
  394TIP3    H2 1189   5.755   3.756   1.747  0.3189 -1.5729  0.1897
  395TIP3   OH2 1190   4.562   3.309   0.867 -0.3407 -0.3496 -0.3082
  395TIP3    H1 1191   4.497   3.379   0.861  2.0242  1.8854 -1.6449
  395TIP3    H2 1192   4.646   3.352   0.852  1.7627 -2.7696  3.0045
  396TIP3   OH2 1193   5.824   2.503   5.015  0.0613  0.0076  0.1222
  396TIP3    H1 1194   5.796   2.558   5.088  1.5862  1.3337 -0.2271
  396TIP3    H2 1195   5.851   2.566   4.948  0.6138 -1.1930 -0.8089
  397TIP3   OH2 1196   1.390   1.094   4.044  0.4140  0.0534 -0.4175
  397TIP3    H1 1197   1.416   1.015   3.996  0.5836  0.7109 -1.4389
  397TIP3    H2 1198   1.444   1.093   4.123  2.1824  0.3739 -1.5762
  398TIP3   OH2 1199   5.209   2.444   1.856  0.0054  0.0158  0.3175
  398TIP3    H1 1200   5.124   2.458   1.815 -0.7723  0.2043  1.9117
  398TIP3    H2 1201   5.190   2.385   1.930  0.9623  1.3234  1.6588
  399TIP3   OH2 1202   0.720   5.365   1.935  0.6810 -0.6404 -0.2324
  399TIP3    H1 1203   0.681   5.452   1.942 -0.5992 -1.0512 -1.6533
  399TIP3    H2 1204   0.798   5.378   1.881  0.3545 -0.3998 -0.6542
  400TIP3   OH2 1205   2.631   1.023   4.722  0.3011 -0.1285  0.1582
  400TIP3    H1 1206   2.603   0.935   4.701  2.4247 -1.0864  1.0354
  400TIP3    H2 1207   2.725   1.015   4.740  1.2022  2.7311 -2.3455
  401TIP3   OH2 1208   1.336   2.776   1.424  0.2433  0.1894  0.2188
  401TIP3    H1 1209   1.273   2.735   1.484  1.6594  1.0330  2.3665
  401TIP3    H2 1210   1.367   2.703   1.370 -0.7252 -0.6862  0.7945
  402TIP3   OH2 1211   5.176   1.289   2.807 -0.0175  0.1817 -0.4170
  402TIP3    H1 1212   5.100   1.337   2.773  0.9492  1.5405 -0.7644
  402TIP3    H2 1213   5.214   1.247   2.730  0.6817  1.1325 -0.6211
  403TIP3   OH2 1214   3.852   5.212   3.789  0.6060  0.1685 -0.0515
  403TIP3    H1 1215   3.833   5.119   3.784  0.9323  0.1299 -0.6202
  403TIP3    H2 1216   3.886   5.225   3.877  1.3503 -0.4031 -0.2461
  404TIP3   OH2 1217   3.383   4.283   0.584 -0.1298  0.0333  0.1427
  404TIP3    H1 1218   3.382   4.355   0.647 -0.3817  0.5809 -0.4755
  404TIP3    H2 1219   3.337   4.212   0.628 -0.3327  0.4193  0.5640
  405TIP3   OH2 1220   5.468   3.926   1.704  0.1736  0.2567 -0.5816
  405TIP3    H1 1221   5.441   3.916   1.613 -0.0434  0.2843 -0.5206
  405TIP3    H2 1222   5.563   3.918   1.702  0.0877 -0.8218 -0.6656
  406TIP3   OH2 1223   1.020   4.035   2.293 -0.1599 -0.4932 -0.3159
  406TIP3    H1 1224   1.066   4.074   2.218  0.4401  0.0077  0.2993
  406TIP3    H2 1225   1.056   3.947   2.299 -1.1821 -1.0182 -1.4240
  407TIP3   OH2 1226   6.083   3.410   1.871  0.2591  0.0609  0.3082
  407TIP3    H1 1227   6.150   3.446   1.813  0.9935  2.8302  2.6493
  407TIP3    H2 1228   6.128   3.341   1.919  0.5010 -0.2307 -0.3246
  408TIP3   OH2 1229   4.673   5.476   2.820  0.2765 -0.3480  0.2066
  408TIP3    H1 1230   4.598   5.483   2.761  0.8186  0.8112 -0.3913
  408TIP3    H2 1231   4.735   5.542   2.787  1.1358 -0.5915  1.2862
  409TIP3   OH2 1232   2.548   2.780   1.317  0.7190 -0.0558  0.2791
  409TIP3    H1 1233   2.635   2.752   1.289 -0.9066 -4.4003 -1.1772
  409TIP3    H2 1234   2.547   2.763   1.411  1.4802  0.1797  0.3349
  410TIP3   OH2 1235   3.824   2.918   4.102 -0.1639  0.6963  0.3506
  410TIP3    H1 1236   3.893   2.984   4.101  0.7911 -0.2602  0.8113
  410TIP3    H2 1237   3.858   2.847   4.048 -1.5089  0.8839 -0.7818
  411TIP3   OH2 1238   1.192   4.271   0.312 -0.3750  0.7858  0.1340
  411TIP3    H1 1239   1.203   4.314   0.397  0.2942  0.9839 -0.0492
  411TIP3    H2 1240   1.160   4.340   0.254 -0.8224  0.6532  0.2197
  412TIP3   OH2 1241   2.996   0.159   3.293  0.0216  0.8107 -0.4943
  412TIP3    H1 1242   3.088   0.149   3.270  0.2698 -3.1348  1.4449
  412TIP3    H2 1243   2.955   0.194   3.213  2.9264  1.5259 -1.8065
  413TIP3   OH2 1244   3.594   5.746   5.080 -0.8501  0.5715  0.3783
  413TIP3    H1 1245   3.674   5.710   5.118 -2.0492 -1.4950  1.0941
  413TIP3    H2 1246   3.593   5.837   5.109  0.5997  0.2983  1.4148
  414TIP3   OH2 1247   1.883   2.718   1.542  0.5797 -0.0897 -0.6510
  414TIP3    H1 1248   1.934   2.787   1.585 -0.4237  1.1939 -1.4139
  414TIP3    H2 1249   1.931   2.698   1.462  1.0502 -0.5298 -0.2616
  415TIP3   OH2 1250   3.908   1.487   2.398  0.1783 -0.3330  0.0229
  415TIP3    H1 1251   3.813   1.474   2.400  0.0622  0.4243 -0.4988
  415TIP3    H2 1252   3.935   1.455   2.312 -0.1459  2.8931 -1.4167
  416TIP3   OH2 1253   1.121   3.373   0.113 -0.0198  0.0380  0.2837
  416TIP3    H1 1254   1.155   3.290   0.147 -0.0016 -0.0666  0.0058
  416TIP3    H2 1255   1.079   3.414   0.189  0.9214  0.2708  0.6890
  417TIP3   OH2 1256   0.991   0.674   0.221 -0.1502 -0.3698  0.1232
  417TIP3    H1 1257   0.921   0.631   0.172 -0.6773 -0.3304  0.8368
  417TIP3    H2 1258   1.051   0.603   0.246  0.8735 -0.2337 -1.7440
  418TIP3   OH2 1259   4.718   1.470   4.617 -0.8140  0.4355 -0.0785
  418TIP3    H1 1260   4.750   1.552   4.579  0.5373  0.3059  0.6987
  418TIP3    H2 1261   4.687   1.495   4.704  0.7364 -0.0283  0.6498
  419TIP3   OH2 1262   0.615   2.446   2.248  0.0020  0.4239 -0.0129
  419TIP3    H1 1263   0.586   2.364   2.288  1.0329  1.2383  2.6026
  419TIP3    H2 1264   0.700   2.425   2.209 -1.0884 -0.4232 -2.0299
  420TIP3   OH2 1265   3.006   3.337   2.631  0.2440  0.6280  0.9266
  420TIP3    H1 1266   3.051   3.406   2.583  0.1057 -0.2036 -0.4453
  420TIP3    H2 1267   3.070   3.306   2.695  1.5108 -0.2548 -0.7093
  421TIP3   OH2 1268   3.218   4.902   2.653 -0.5806  0.3544  0.5048
  421TIP3    H1 1269   3.148   4.838   2.666 -0.2411 -0.5351 -1.5474
  421TIP3    H2 1270   3.291   4.868   2.706 -0.3349 -1.1432 -0.7076
  422TIP3   OH2 1271   1.566   4.476   0.742  0.0704 -0.2286 -0.2839
  422TIP3    H1 1272   1.538   4.487   0.833  1.8944 -0.1719  0.3103
  422TIP3    H2 1273   1.615   4.394   0.742 -0.0181 -0.2879 -1.2372
  423TIP3   OH2 1274   0.649   4.550   4.147  0.8196  0.0501  0.0630
  423TIP3    H1 1275   0.665   4.589   4.234  0.2568  0.8945 -0.2029
  423TIP3    H2 1276   0.696   4.607   4.087 -0.4978  0.6840 -0.3947
  424TIP3   OH2 1277   0.424   2.367   4.548  0.0133 -0.5584  0.2544
  424TIP3    H1 1278   0.482   2.377   4.624  0.3466 -0.5655  0.0059
  424TIP3    H2 1279   0.477   2.318   4.484  0.1834  0.4789 -0.4415
  425TIP3   OH2 1280   1.847   4.342   0.736 -0.2940  0.0251  0.0906
  425TIP3    H1 1281   1.870   4.255   0.703 -1.1692  0.5829 -2.2614
  425TIP3    H2 1282   1.874   4.402   0.666 -0.7243  1.5387  1.1534
  426TIP3   OH2 1283   1.535   4.478   1.528  0.2379  0.4398  0.3406
  426TIP3    H1 1284   1.485   4.463   1.608 -0.0823  0.6340  0.1776
  426TIP3    H2 1285   1.625   4.494   1.558  0.4332 -0.9940  0.5641
  427TIP3   OH2 1286   4.838   5.703   4.720 -0.3598  0.1966 -0.1337
  427TIP3    H1 1287   4.773   5.772   4.707  1.3701  1.9550  0.1503
  427TIP3    H2 1288   4.898   5.738   4.785  0.5916 -1.6013  0.0266
  428TIP3   OH2 1289   0.075   3.212   4.988  0.0573  0.2370  0.2004
  428TIP3    H1 1290  -0.018   3.209   4.964  0.4081  0.4733 -1.2598
  428TIP3    H2 1291   0.111   3.132   4.952  0.5188  0.3657  0.3752
  429TIP3   OH2 1292   1.426   2.118   2.488  0.2383  0.2688 -0.0767
  429TIP3    H1 1293   1.422   2.033   2.533  2.0939  0.9906  1.6223
  429TIP3    H2 1294   1.486   2.104   2.415 -1.7252 -0.5617 -1.6129
  430TIP3   OH2 1295   3.698   5.782   0.283  0.5747  0.6634  0.3178
  430TIP3    H1 1296   3.665   5.847   0.221  1.0292  1.4370  0.8608
  430TIP3    H2 1297   3.759   5.728   0.232 -1.0464 -0.4181 -0.5423
  431TIP3   OH2 1298   6.107   5.514   3.181 -0.1481  0.3620 -0.2796
  431TIP3    H1 1299   6.171   5.460   3.226 -1.2437  0.3629  1.3456
  431TIP3    H2 1300   6.111   5.599   3.224 -0.6442  0.6257 -0.7289
  432TIP3   OH2 1301   1.115   1.362   0.473 -0.4501 -0.0024 -0.2491
  432TIP3    H1 1302   1.123   1.411   0.391 -0.6215 -0.1829 -0.3751
  432TIP3    H2 1303   1.145   1.273   0.451  1.1014  0.3546  0.2955
  433TIP3   OH2 1304   2.429   2.296   3.285  0.0190 -0.4910 -0.1585
  433TIP3    H1 1305   2.369   2.225   3.263 -1.6698  1.0167 -0.6702
  433TIP3    H2 1306   2.372   2.369   3.310  1.6927  0.6025  0.6848
  434TIP3   OH2 1307   0.518   4.610   0.607  0.7901  0.1941  0.0156
  434TIP3    H1 1308   0.536   4.599   0.700  1.9047  2.1049  0.0889
  434TIP3    H2 1309   0.479   4.527   0.580 -1.5170  0.2975  2.5903
  435TIP3   OH2 1310   6.304   3.240   4.725 -0.2479 -0.0539  0.4464
  435TIP3    H1 1311   6.309   3.157   4.773 -1.9209 -1.3625 -1.4750
  435TIP3    H2 1312   6.302   3.214   4.633  0.9096  2.2546 -0.3060
  436TIP3   OH2 1313   0.470   2.075   3.455 -0.4009 -0.0513 -0.5352
  436TIP3    H1 1314   0.522   2.127   3.516 -0.5890  0.8581 -1.1309
  436TIP3    H2 1315   0.521   1.995   3.442 -0.5736 -0.4892  1.1558
  437TIP3   OH2 1316   3.959   5.880   4.496  0.4232  0.3140 -0.4469
  437TIP3    H1 1317   4.003   5.913   4.574  1.4144  2.6330 -1.8820
  437TIP3    H2 1318   3.887   5.941   4.481  0.3368 -0.0033 -1.4236
  438TIP3   OH2 1319   6.103   5.863   3.550 -0.4197 -0.1834  0.4618
  438TIP3    H1 1320   6.010   5.867   3.573 -0.2472  4.5528  1.3450
  438TIP3    H2 1321   6.105   5.865   3.455 -1.1849 -0.9460  0.4207
  439TIP3   OH2 1322   3.015   5.130   1.946  0.2736 -0.0587  0.6003
  439TIP3    H1 1323   2.964   5.166   1.873  3.1207  2.0431 -0.5552
  439TIP3    H2 1324   3.023   5.203   2.008  0.3878 -0.8987  1.5875
  440TIP3   OH2 1325   2.081   0.428   0.835  0.5091 -0.1774  0.1113
  440TIP3    H1 1326   2.072   0.428   0.930 -2.3038  2.8597  0.0392
  440TIP3    H2 1327   2.161   0.479   0.819 -0.5358  1.8057  0.9063
  441TIP3   OH2 1328   4.457   4.066   0.701 -0.3329  0.1121  1.0876
  441TIP3    H1 1329   4.441   3.987   0.650 -0.7218  0.1806  1.1013
  441TIP3    H2 1330   4.371   4.108   0.707  0.1684  1.4986 -0.5154
  442TIP3   OH2 1331   2.155   5.921   4.565 -0.1604  0.0338 -0.0693
  442TIP3    H1 1332   2.143   5.826   4.567  1.0171 -0.1190  0.4947
  442TIP3    H2 1333   2.248   5.934   4.583 -0.2510  1.2904 -0.4026
  443TIP3   OH2 1334   5.753   4.154   2.724 -0.8327  0.3384 -0.4750
  443TIP3    H1 1335   5.699   4.106   2.661 -1.8571  0.6340  0.1442
  443TIP3    H2 1336   5.728   4.117   2.809 -1.2649  1.5924 -0.0317
  444TIP3   OH2 1337   2.187   5.340   4.687 -0.5713 -0.4537  0.6783
  444TIP3    H1 1338   2.278   5.331   4.658 -0.0512 -1.0834  2.3205
  444TIP3    H2 1339   2.135   5.323   4.609  0.6899  1.5520 -0.7146
  445TIP3   OH2 1340   6.357   2.628   3.908 -0.1218 -0.0696 -0.3185
  445TIP3    H1 1341   6.271   2.594   3.885  0.4468 -0.4116 -2.1544
  445TIP3    H2 1342   6.357   2.718   3.875 -0.1340  0.3018  0.6563
  446TIP3   OH2 1343   2.418   0.886   1.497 -0.1700  0.3951 -0.7715
  446TIP3    H1 1344   2.457   0.876   1.410  1.8545  0.1284  0.1189
  446TIP3    H2 1345   2.477   0.945   1.543  0.2599 -1.4997  1.2516
  447TIP3   OH2 1346   4.054   3.856   0.162 -0.2519  0.2066  0.4921
  447TIP3    H1 1347   4.067   3.818   0.075 -3.0579  0.8779 -0.3360
  447TIP3    H2 1348   4.088   3.945   0.153  1.3865 -0.3561  0.7818
  448TIP3   OH2 1349   1.129   0.474   0.328 -0.0496 -0.5132  0.4246
  448TIP3    H1 1350   1.097   0.407   0.388 -1.9341  0.3889  0.4762
  448TIP3    H2 1351   1.212   0.439   0.295  0.7122 -1.3456  2.9959
  449TIP3   OH2 1352   1.450   3.860   3.000 -0.0859 -0.1646  0.2228
  449TIP3    H1 1353   1.496   3.780   3.024 -1.3849 -0.7634  0.8305
  449TIP3    H2 1354   1.358   3.833   2.990 -0.2669  0.8968 -1.3577
  450TIP3   OH2 1355   5.458   4.401   0.396  0.1800  0.3504  0.0575
  450TIP3    H1 1356   5.489   4.315   0.424  0.8354  0.9092  1.1219
  450TIP3    H2 1357   5.363   4.392   0.394  0.2844 -0.7873 -1.2041
  451TIP3   OH2 1358   2.840   4.039   2.951 -0.1763 -0.3621  0.5732
  451TIP3    H1 1359   2.752   4.024   2.919  0.2458  0.1731 -0.9386
  451TIP3    H2 1360   2.884   4.086   2.880  0.8629  0.8030  1.9083
  452TIP3   OH2 1361   0.951   4.280   4.697  0.8490  0.4540 -0.2877
  452TIP3    H1 1362   0.880   4.277   4.633 -1.1317 -1.8306  1.7526
  452TIP3    H2 1363   0.947   4.368   4.733 -0.3491  0.6798 -0.9097
  453TIP3   OH2 1364   3.626   4.417   2.262 -0.5572  0.5111 -0.5632
  453TIP3    H1 1365   3.570   4.481   2.305 -0.4101  0.3047 -0.0634
  453TIP3    H2 1366   3.697   4.468   2.224  1.7029  0.3476  3.0716
  454TIP3   OH2 1367   0.982   3.759   0.128  0.8300  0.4449  0.8589
  454TIP3    H1 1368   0.981   3.849   0.095  0.3094  0.2322  0.2952
  454TIP3    H2 1369   0.998   3.705   0.051  0.8252  0.0313  1.1467
  455TIP3   OH2 1370   0.228   3.468   3.762  0.4206  0.1626  0.2097
  455TIP3    H1 1371   0.305   3.432   3.806 -1.3919  0.2016  3.7556
  455TIP3    H2 1372   0.163   3.398   3.768 -1.1849  1.6901  1.4215
  456TIP3   OH2 1373   3.690   2.936   4.336  0.6182 -0.1089  0.2652
  456TIP3    H1 1374   3.728   2.942   4.248 -1.0421 -0.8554 -0.5568
  456TIP3    H2 1375   3.658   2.846   4.342 -0.8525  0.4163  0.9405
  457TIP3   OH2 1376   5.795   3.333   3.894  0.2378 -0.0939  0.4164
  457TIP3    H1 1377   5.853   3.384   3.838  1.2545 -0.3742  1.1705
  457TIP3    H2 1378   5.711   3.379   3.891 -0.2230 -0.9612 -2.5507
  458TIP3   OH2 1379   1.327   0.226   1.996 -0.0959 -0.5591  0.2700
  458TIP3    H1 1380   1.354   0.196   2.083  0.2392 -0.7803  0.0896
  458TIP3    H2 1381   1.402   0.207   1.940  0.0064  0.3582  0.0926
  459TIP3   OH2 1382   3.179   4.065   3.524  0.6715 -0.3005  0.2322
  459TIP3    H1 1383   3.262   4.102   3.554 -0.4187 -0.4654  3.9330
  459TIP3    H2 1384   3.195   3.971   3.516  1.1807 -0.1557 -0.5106
  460TIP3   OH2 1385   0.396   0.020   1.358 -0.5280  0.1798  0.7584
  460TIP3    H1 1386   0.411  -0.054   1.416  0.9992  1.1794  1.7148
  460TIP3    H2 1387   0.375   0.093   1.416  0.6416  1.1122  0.0822
  461TIP3   OH2 1388   4.071   2.623   1.378  0.3359 -0.4586  0.3941
  461TIP3    H1 1389   3.984   2.613   1.416  1.1817 -0.6816  2.3704
  461TIP3    H2 1390   4.054   2.644   1.286 -1.7547 -2.4127  0.2541
  462TIP3   OH2 1391   5.561   2.716   3.607  0.4579  0.4157 -0.4368
  462TIP3    H1 1392   5.582   2.784   3.542 -0.3836  0.2805 -0.8603
  462TIP3    H2 1393   5.567   2.761   3.691 -0.6695  1.1870 -0.7445
  463TIP3   OH2 1394   1.285   4.989   3.059  0.2277  0.2116  0.7247
  463TIP3    H1 1395   1.230   4.918   3.093  1.9404 -0.4106  2.3914
  463TIP3    H2 1396   1.280   5.057   3.126 -0.1696  1.0521 -0.1333
  464TIP3   OH2 1397   5.626   1.025   2.162  0.1608  0.5480 -0.2811
  464TIP3    H1 1398   5.574   0.950   2.134 -2.1608  1.0349  2.2331
  464TIP3    H2 1399   5.697   0.988   2.213 -1.5080 -0.0264  1.7604
  465TIP3   OH2 1400   2.640   1.746   1.682 -0.4799 -0.6088  0.3747
  465TIP3    H1 1401   2.672   1.828   1.646 -0.2054  0.3207  2.5755
  465TIP3    H2 1402   2.683   1.738   1.767  0.5536 -3.7344 -0.2883
  466TIP3   OH2 1403   3.496   4.312   3.122 -0.6556 -0.3129 -0.0546
  466TIP3    H1 1404   3.449   4.320   3.206  1.2485  0.0282  1.0474
  466TIP3    H2 1405   3.586   4.293   3.147 -0.2791 -1.5205 -2.1055
  467TIP3   OH2 1406   1.159   4.142   1.742  0.3922  0.0866  0.3620
  467TIP3    H1 1407   1.136   4.204   1.673 -2.6175 -0.7463  0.4919
  467TIP3    H2 1408   1.096   4.071   1.734 -0.8336  0.4014  4.5437
  468TIP3   OH2 1409   1.344   5.380   4.778 -0.2707  0.0000 -0.0363
  468TIP3    H1 1410   1.281   5.394   4.849  0.1007 -0.4582  0.3937
  468TIP3    H2 1411   1.360   5.467   4.743 -2.8996 -0.0889 -1.7087
  469TIP3   OH2 1412   1.962   3.676   4.490 -0.2962 -0.2232  0.0749
  469TIP3    H1 1413   1.885   3.678   4.432 -0.0353  1.6642 -0.2882
  469TIP3    H2 1414   2.035   3.655   4.432 -0.2823 -0.0783  0.0378
  470TIP3   OH2 1415   4.217   1.846   3.684 -0.2187  0.3209 -0.5513
  470TIP3    H1 1416   4.166   1.774   3.720  2.3243 -0.8556  1.0520
  470TIP3    H2 1417   4.306   1.830   3.716  0.4578  4.2849  0.0308
  471TIP3   OH2 1418   4.217   2.805   3.201  0.3495  0.0399  0.4558
  471TIP3    H1 1419   4.202   2.897   3.179 -2.3191 -0.4578 -0.0637
  471TIP3    H2 1420   4.207   2.759   3.118 -0.1364 -0.9034  1.0286
  472TIP3   OH2 1421   3.434   3.029   3.038 -0.0220 -0.4573  0.1906
  472TIP3    H1 1422   3.415   3.110   2.991 -2.1280 -2.3132 -2.4164
  472TIP3    H2 1423   3.508   2.990   2.990  0.8254 -0.2522  1.2860
  473TIP3   OH2 1424   2.810   0.019   1.923  0.0892 -0.0177  0.3195
  473TIP3    H1 1425   2.817  -0.002   1.830  0.8936  0.5292  0.2472
  473TIP3    H2 1426   2.803   0.115   1.926 -1.0014 -0.0959  0.7737
  474TIP3   OH2 1427   1.678   3.373   2.659 -0.1734  0.0125  0.4551
  474TIP3    H1 1428   1.726   3.294   2.631  0.4656  1.0209 -1.4491
  474TIP3    H2 1429   1.692   3.376   2.754 -0.2497 -2.1713  0.5890
  475TIP3   OH2 1430   3.327   4.794   2.172  0.0924 -0.5299  0.3219
  475TIP3    H1 1431   3.268   4.725   2.143  0.1223 -0.8741  1.0576
  475TIP3    H2 1432   3.289   4.874   2.137 -1.2831 -0.6456  1.4920
  476TIP3   OH2 1433   4.661   3.335   4.072  0.5733  0.1930  0.5144
  476TIP3    H1 1434   4.600   3.340   4.146 -1.1350  1.7000 -0.8947
  476TIP3    H2 1435   4.665   3.242   4.051  1.5327 -0.3527  2.7644
  477TIP3   OH2 1436   1.287   5.694   0.764  0.6113  0.1555 -0.1398
  477TIP3    H1 1437   1.346   5.768   0.780  0.0683  0.3915  0.8295
  477TIP3    H2 1438   1.335   5.617   0.796  0.0687  0.4539  1.4393
  478TIP3   OH2 1439   0.175   5.620   0.089  0.0112  0.3234  0.0357
  478TIP3    H1 1440   0.254   5.635   0.141 -0.0557  0.1607  0.1881
  478TIP3    H2 1441   0.143   5.708   0.067  0.3228  0.3850 -0.1614
  479TIP3   OH2 1442   4.630   1.298   2.805  0.2140 -0.1392  0.2070
  479TIP3    H1 1443   4.559   1.361   2.793  0.1265 -0.6786 -2.7961
  479TIP3    H2 1444   4.586   1.216   2.828  0.2921  0.5569  3.4040
  480TIP3   OH2 1445   4.228   3.691   0.746 -0.7078  0.4256 -0.1355
  480TIP3    H1 1446   4.168   3.618   0.755 -0.6961  0.3450 -0.6916
  480TIP3    H2 1447   4.185   3.751   0.685 -1.1632  1.3524  1.0476
  481TIP3   OH2 1448   5.264   4.855   1.116 -0.1668  0.7518  0.0622
  481TIP3    H1 1449   5.221   4.928   1.161 -0.0617  0.9330 -0.1264
  481TIP3    H2 1450   5.336   4.896   1.069  0.3561  0.4195  0.5568
  482TIP3   OH2 1451   0.719   5.221   2.515 -0.5633 -0.2848  0.0867
  482TIP3    H1 1452   0.742   5.191   2.602  0.1075  0.3038  0.1214
  482TIP3    H2 1453   0.703   5.141   2.465  0.9983 -0.6996  0.2189
  483TIP3   OH2 1454   0.627   0.106   3.254 -0.1736  0.5906 -0.4038
  483TIP3    H1 1455   0.543   0.063   3.238  0.2136 -0.3383  0.0153
  483TIP3    H2 1456   0.648   0.086   3.345  0.7778  0.3260 -0.6760
  484TIP3   OH2 1457   0.741   4.810   4.082  0.1810 -0.3138 -0.5325
  484TIP3    H1 1458   0.710   4.901   4.089 -4.7314 -1.7394 -0.2297
  484TIP3    H2 1459   0.741   4.779   4.173 -1.6625 -1.4582 -0.8675
  485TIP3   OH2 1460   1.559   0.780   1.143 -0.3245  0.3434  0.6433
  485TIP3    H1 1461   1.476   0.735   1.128  0.0449 -0.2248  0.2688
  485TIP3    H2 1462   1.544   0.870   1.115 -0.8870  0.3080  0.8221
  486TIP3   OH2 1463   3.727   4.827   5.095  0.1957  0.3535 -0.0597
  486TIP3    H1 1464   3.670   4.758   5.131 -0.1641  0.2866 -0.7247
  486TIP3    H2 1465   3.811   4.815   5.140 -0.1177  0.0238  0.4506
  487TIP3   OH2 1466   1.494   3.822   0.311 -0.6031  0.2544  0.2118
  487TIP3    H1 1467   1.494   3.844   0.218 -2.0160  1.1397  0.3969
  487TIP3    H2 1468   1.417   3.766   0.323 -0.9747  0.9094  1.0057
  488TIP3   OH2 1469   1.545   3.896   3.357 -0.1173  0.0567 -0.6318
  488TIP3    H1 1470   1.596   3.900   3.276 -1.1578 -0.3689 -1.3240
  488TIP3    H2 1471   1.553   3.805   3.386 -0.7442 -0.0981 -0.9271
  489TIP3   OH2 1472   6.230   2.910   2.990 -0.8178  0.0576 -0.3879
  489TIP3    H1 1473   6.178   2.841   2.950  0.5171 -1.1567 -0.0954
  489TIP3    H2 1474   6.270   2.869   3.066 -0.1051  1.2005 -0.1179
  490TIP3   OH2 1475   1.844   3.271   5.143  0.1354 -0.0836  0.1021
  490TIP3    H1 1476   1.933   3.281   5.108  0.3012 -0.7570  0.3141
  490TIP3    H2 1477   1.857   3.232   5.230 -0.4306 -2.1026 -0.6495
  491TIP3   OH2 1478   0.882   1.145   1.533 -0.0394  0.1738 -0.9194
  491TIP3    H1 1479   0.813   1.112   1.475 -0.9867 -0.4232  0.4828
  491TIP3    H2 1480   0.865   1.239   1.541 -0.9385 -0.0217 -0.3214
  492TIP3   OH2 1481   1.526   2.122   0.031 -0.4201  0.0498  0.7755
  492TIP3    H1 1482   1.546   2.034  -0.002  1.0272  0.7418 -0.3240
  492TIP3    H2 1483   1.488   2.107   0.117  0.2956 -1.6398  0.8467
  493TIP3   OH2 1484   3.152   3.656   1.078 -0.1319  1.1979 -0.2139
  493TIP3    H1 1485   3.224   3.718   1.094  1.1671  0.4566 -2.7403
  493TIP3    H2 1486   3.121   3.677   0.991  1.1351 -2.2989 -1.7185
  494TIP3   OH2 1487   2.094   3.064   0.624 -0.3426  0.3099  0.2610
  494TIP3    H1 1488   2.030   2.993   0.620  0.9338 -1.0910  2.5115
  494TIP3    H2 1489   2.082   3.103   0.710  0.1349  1.7313 -0.2810
  495TIP3   OH2 1490   3.627   0.322   4.781 -0.1825 -0.1853 -0.4945
  495TIP3    H1 1491   3.710   0.311   4.828  0.8015  1.9080 -1.5990
  495TIP3    H2 1492   3.637   0.272   4.701 -0.2247 -0.3871 -0.3758
  496TIP3   OH2 1493   0.531   2.202   3.040 -0.4857 -0.4722 -0.2335
  496TIP3    H1 1494   0.591   2.186   2.967 -0.6185 -0.9058 -0.2515
  496TIP3    H2 1495   0.559   2.140   3.107 -2.7920 -2.8634 -1.3420
  497TIP3   OH2 1496   0.666   1.356   1.493 -0.0118  0.3088  0.5981
  497TIP3    H1 1497   0.619   1.411   1.430  1.0082 -0.2886 -0.7266
  497TIP3    H2 1498   0.726   1.416   1.537  1.1098  0.3158 -0.8498
  498TIP3   OH2 1499   2.174   4.428   3.110  0.4662 -0.1097  0.0760
  498TIP3    H1 1500   2.083   4.427   3.140  0.4523  0.0349  0.0377
  498TIP3    H2 1501   2.224   4.395   3.184  0.2624 -1.2978 -0.3026
  499TIP3   OH2 1502   3.651   5.944   4.720  0.4105 -0.5606  0.2750
  499TIP3    H1 1503   3.669   5.971   4.630 -1.5322  1.8691  0.4942
  499TIP3    H2 1504   3.578   5.882   4.712  0.2125 -0.3149  0.1740
  500TIP3   OH2 1505   4.920   5.215   1.520  0.4644  0.1996 -0.8415
  500TIP3    H1 1506   4.882   5.170   1.596  2.5009 -1.8506 -0.9302
  500TIP3    H2 1507   4.846   5.226   1.460 -0.5216 -1.3205  0.0102
  501TIP3   OH2 1508   5.247   3.884   0.403 -0.2285 -0.3332 -0.2447
  501TIP3    H1 1509   5.184   3.811   0.407 -0.2563 -0.2386  1.7369
  501TIP3    H2 1510   5.238   3.928   0.487 -0.1231  1.9282 -1.3550
  502TIP3   OH2 1511   2.587   4.895   2.242  0.0577  0.5090 -0.9991
  502TIP3    H1 1512   2.519   4.920   2.180  0.1433  0.4257 -1.1284
  502TIP3    H2 1513   2.541   4.882   2.325  0.1282  1.8519 -0.7367
  503TIP3   OH2 1514   0.335   5.969   4.535 -0.1503 -0.0472  0.7132
  503TIP3    H1 1515   0.365   5.884   4.504  0.6750  0.8298 -1.0835
  503TIP3    H2 1516   0.415   6.015   4.560 -0.5402  0.3668  1.2297
  504TIP3   OH2 1517   4.501   5.874   0.250 -0.1767 -0.0398 -0.3097
  504TIP3    H1 1518   4.428   5.874   0.312  1.1387  1.4029  1.3541
  504TIP3    H2 1519   4.489   5.794   0.199 -1.3542 -1.3332  1.8161
  505TIP3   OH2 1520   3.389   1.243   3.599  0.0572 -1.2609 -0.2054
  505TIP3    H1 1521   3.333   1.247   3.677 -0.6466 -2.3739 -0.6309
  505TIP3    H2 1522   3.417   1.333   3.586 -2.2418 -0.4881 -0.3840
  506TIP3   OH2 1523   3.794   4.126   4.332 -0.7593  0.3373  0.0159
  506TIP3    H1 1524   3.728   4.174   4.282  0.4030  0.1663 -1.8078
  506TIP3    H2 1525   3.856   4.193   4.361 -0.5484  0.2628 -0.2492
  507TIP3   OH2 1526   5.815   2.313   1.585 -0.3418 -0.1514  0.2904
  507TIP3    H1 1527   5.847   2.382   1.644 -0.8408  0.2770  0.0692
  507TIP3    H2 1528   5.894   2.282   1.540  0.0139 -0.3560  1.0476
  508TIP3   OH2 1529   2.602   5.936   2.576 -0.3870  0.0959  0.1187
  508TIP3    H1 1530   2.611   5.920   2.482 -1.0647  0.3789 -0.0009
  508TIP3    H2 1531   2.527   5.994   2.583  0.2188  0.8084  0.7789
  509TIP3   OH2 1532   0.756   4.246   3.341  0.3426 -0.1574  0.2202
  509TIP3    H1 1533   0.764   4.318   3.404 -0.8793 -0.4594  0.7615
  509TIP3    H2 1534   0.668   4.211   3.357  1.0258 -1.9724  0.1989
  510TIP3   OH2 1535   2.485   3.277   1.201  0.4076  0.1506 -0.0932
  510TIP3    H1 1536   2.397   3.242   1.194  0.2871  0.4817 -0.2723
  510TIP3    H2 1537   2.540   3.201   1.220  0.0421 -0.0097  0.3448
  511TIP3   OH2 1538   1.311   5.481   2.402  0.2979  0.2808 -0.1867
  511TIP3    H1 1539   1.376   5.448   2.464  0.4955 -1.1911 -1.1226
  511TIP3    H2 1540   1.319   5.577   2.407 -0.6573  0.3162  3.0318
  512TIP3   OH2 1541   0.229   3.187   0.724  0.5966  0.5084 -0.2516
  512TIP3    H1 1542   0.194   3.271   0.753  0.0554  0.3432 -0.4228
  512TIP3    H2 1543   0.313   3.208   0.684  0.8775  0.8622  0.4988
  513TIP3   OH2 1544   0.345   1.460   4.395 -0.1284 -0.3874 -0.4506
  513TIP3    H1 1545   0.259   1.465   4.436  0.0583  0.9322 -0.1783
  513TIP3    H2 1546   0.392   1.392   4.445 -0.7098 -0.4847 -0.0337
  514TIP3   OH2 1547   2.772   5.785   4.162 -0.6857  0.4839 -0.0817
  514TIP3    H1 1548   2.853   5.832   4.139 -0.1651 -0.3663 -0.0359
  514TIP3    H2 1549   2.788   5.750   4.249 -1.7403  1.6621  0.6138
  515TIP3   OH2 1550   1.604   4.314   4.168 -0.6299 -0.3905  0.2962
  515TIP3    H1 1551   1.511   4.333   4.158 -0.5494 -0.8317 -1.4735
  515TIP3    H2 1552   1.617   4.229   4.126  0.7005 -0.0020 -0.1337
  516TIP3   OH2 1553   0.072   5.226   0.821  0.0214  0.5583  0.0806
  516TIP3    H1 1554   0.055   5.136   0.848 -1.6361  0.7912 -0.0894
  516TIP3    H2 1555   0.018   5.279   0.879 -0.4544  1.3145 -1.0287
  517TIP3   OH2 1556   0.507   1.801   3.216 -0.3552 -0.5715 -0.2365
  517TIP3    H1 1557   0.572   1.843   3.159 -1.6719  4.2612  1.2878
  517TIP3    H2 1558   0.430   1.790   3.160  0.0824 -1.2586 -0.7231
  518TIP3   OH2 1559   5.874   0.624   3.598 -0.1033 -0.5876  0.6238
  518TIP3    H1 1560   5.831   0.691   3.545 -0.4392 -2.4461 -1.6137
  518TIP3    H2 1561   5.941   0.671   3.647 -0.6653  1.4558 -0.4822
  519TIP3   OH2 1562   1.773   3.533   5.141 -0.4146  0.1135  0.1760
  519TIP3    H1 1563   1.795   3.440   5.146  0.3553  0.2868  0.1982
  519TIP3    H2 1564   1.852   3.578   5.172  0.3352  0.8725 -2.5550
  520TIP3   OH2 1565   3.499   0.154   1.605  0.3173  0.2828  0.5171
  520TIP3    H1 1566   3.459   0.230   1.564 -0.0284  0.9027  1.9266
  520TIP3    H2 1567   3.483   0.167   1.699 -1.6419 -2.5830  0.6981
  521TIP3   OH2 1568   5.219   0.239   2.916 -0.0111 -0.8965  0.0585
  521TIP3    H1 1569   5.260   0.174   2.974  0.7238 -0.2995  0.2131
  521TIP3    H2 1570   5.240   0.323   2.955 -0.0341 -0.5118 -0.7410
  522TIP3   OH2 1571   3.771   5.305   2.418  0.7077 -0.5733 -0.0235
  522TIP3    H1 1572   3.733   5.257   2.491 -1.5901 -0.5132 -1.0878
  522TIP3    H2 1573   3.697   5.354   2.380  2.4430  1.9181 -0.4681
  523TIP3   OH2 1574   2.033   2.790   0.401 -0.6377 -0.5283  0.0359
  523TIP3    H1 1575   2.080   2.858   0.351 -2.2563  0.5619 -0.0697
  523TIP3    H2 1576   2.096   2.761   0.467  1.0544 -0.9399 -1.6631
  524TIP3   OH2 1577   0.781   3.608   0.491  0.2903  0.3176  0.0532
  524TIP3    H1 1578   0.809   3.540   0.431  0.3450 -1.1098  1.6460
  524TIP3    H2 1579   0.802   3.575   0.578 -0.1527  2.1454  0.9132
  525TIP3   OH2 1580   0.884   5.454   4.445 -0.9035  0.2330 -0.2281
  525TIP3    H1 1581   0.934   5.518   4.494  0.3759 -1.7251  1.1883
  525TIP3    H2 1582   0.947   5.414   4.385 -1.4291 -0.3332 -0.4224
  526TIP3   OH2 1583   4.467   0.903   4.817  0.5762 -0.0357  0.0937
  526TIP3    H1 1584   4.495   0.944   4.898  3.0702  0.7237 -1.0490
  526TIP3    H2 1585   4.531   0.833   4.802  0.9236  0.6192 -1.7691
  527TIP3   OH2 1586   1.794   3.709   0.688  0.1123 -0.3652  0.4940
  527TIP3    H1 1587   1.758   3.698   0.600  2.6176 -1.2173 -0.5065
  527TIP3    H2 1588   1.738   3.776   0.728 -1.4460 -0.3569 -1.5132
  528TIP3   OH2 1589   3.297   5.264   1.885 -0.0947 -0.7375 -0.2619
  528TIP3    H1 1590   3.280   5.184   1.836 -0.2120  0.5027 -2.4097
  528TIP3    H2 1591   3.228   5.268   1.951  0.5042 -2.8615  0.5378
  529TIP3   OH2 1592   3.979   0.581   2.829  0.0546 -0.3929 -0.2887
  529TIP3    H1 1593   4.033   0.648   2.786 -1.3257  1.0348  0.1082
  529TIP3    H2 1594   3.912   0.559   2.764  2.3900 -4.0096 -1.7680
  530TIP3   OH2 1595   1.208   2.650   2.149 -0.3883 -0.3548  0.0968
  530TIP3    H1 1596   1.192   2.616   2.236 -1.1626 -0.5777 -0.1281
  530TIP3    H2 1597   1.298   2.685   2.153 -1.0653  1.4044  1.5360
  531TIP3   OH2 1598   5.316   4.357   4.225  0.1895 -0.1881 -0.6055
  531TIP3    H1 1599   5.328   4.376   4.132 -0.9523 -0.1152 -0.7500
  531TIP3    H2 1600   5.330   4.440   4.270  0.0933 -0.0809 -0.7755
  532TIP3   OH2 1601   4.701   5.866   4.969  1.0352  0.4387  0.2136
  532TIP3    H1 1602   4.657   5.785   4.945  1.9977  0.3648 -1.4818
  532TIP3    H2 1603   4.649   5.902   5.041 -2.2261  0.7194 -2.0557
  533TIP3   OH2 1604   0.691   4.076   5.034 -0.2237 -0.1701  0.1138
  533TIP3    H1 1605   0.722   4.083   5.125 -2.6729 -2.4289  1.2578
  533TIP3    H2 1606   0.708   3.985   5.010 -1.9413 -0.3245 -0.6937
  534TIP3   OH2 1607   5.982   4.359   3.667 -0.3489 -0.5279  0.2508
  534TIP3    H1 1608   5.940   4.274   3.653 -1.5085 -0.0685  0.8396
  534TIP3    H2 1609   5.927   4.422   3.621  0.3444 -0.0476  0.0571
  535TIP3   OH2 1610   0.960   4.730   0.788 -0.2459 -0.3030  0.7819
  535TIP3    H1 1611   0.911   4.680   0.724  0.7059 -2.1076  1.3758
  535TIP3    H2 1612   0.963   4.819   0.753 -0.9332 -0.9274 -0.9581
  536TIP3   OH2 1613   1.135   4.625   0.963 -0.1027 -0.2594  0.0008
  536TIP3    H1 1614   1.109   4.626   1.055  0.1699 -0.5974  0.0849
  536TIP3    H2 1615   1.069   4.678   0.919 -0.3702 -0.2916  0.3556
  537TIP3   OH2 1616   0.846   0.373   1.494 -0.7041 -0.3080  0.4489
  537TIP3    H1 1617   0.829   0.339   1.582  0.9663  1.0491  1.3442
  537TIP3    H2 1618   0.876   0.463   1.508 -2.4671  0.7030 -1.6636
  538TIP3   OH2 1619   0.841   2.253   4.344 -0.2531 -0.1095  0.1223
  538TIP3    H1 1620   0.842   2.157   4.335 -0.8919 -0.3430  2.1325
  538TIP3    H2 1621   0.933   2.278   4.340  0.1253 -1.0886  1.7818
  539TIP3   OH2 1622   1.191   2.390   0.924 -0.2061  0.3427 -0.5307
  539TIP3    H1 1623   1.133   2.462   0.898 -0.0460  0.3246 -0.9493
  539TIP3    H2 1624   1.132   2.319   0.948 -0.3607  0.5008 -0.4412
  540TIP3   OH2 1625   0.525   1.610   1.696  0.1516 -0.2952  0.5854
  540TIP3    H1 1626   0.515   1.705   1.693 -0.3013 -0.2749  2.0045
  540TIP3    H2 1627   0.442   1.575   1.665  0.1052 -0.2270  0.6347
  541TIP3   OH2 1628   2.609   1.970   5.071  0.2810  0.7623 -0.1139
  541TIP3    H1 1629   2.594   2.029   5.145 -1.4297  0.5490 -0.2430
  541TIP3    H2 1630   2.593   1.882   5.107 -0.7251  0.6680 -0.7375
  542TIP3   OH2 1631   5.437   0.142   0.346  0.0471 -0.5184  0.4493
  542TIP3    H1 1632   5.517   0.113   0.391 -0.0406  0.5923  1.3643
  542TIP3    H2 1633   5.457   0.131   0.253  1.1445 -0.6015  0.6767
  543TIP3   OH2 1634   4.558   2.735   3.819  0.3560  0.8579  0.4010
  543TIP3    H1 1635   4.605   2.730   3.736 -0.3857 -0.4992  0.0403
  543TIP3    H2 1636   4.552   2.829   3.837 -0.5736  1.2663 -1.7215
  544TIP3   OH2 1637   4.003   4.474   0.921 -0.2492  0.0881  0.0340
  544TIP3    H1 1638   4.097   4.472   0.935 -0.3354  1.0555  0.8446
  544TIP3    H2 1639   3.968   4.515   1.000 -1.4620 -1.3261  0.2837
  545TIP3   OH2 1640   4.224   3.263   1.368  0.2706 -0.1279 -0.5204
  545TIP3    H1 1641   4.189   3.318   1.437  0.7084 -0.6120  0.0979
  545TIP3    H2 1642   4.290   3.317   1.325  0.3295  0.0052 -0.2609
  546TIP3   OH2 1643   1.988   2.231   2.071  0.2399  0.3146  0.5095
  546TIP3    H1 1644   1.895   2.207   2.071  0.7858 -2.1929  1.5558
  546TIP3    H2 1645   2.022   2.194   1.989  0.6887 -0.7299  1.1403
  547TIP3   OH2 1646   3.163   5.150   5.058 -0.0504 -0.4454  0.0802
  547TIP3    H1 1647   3.231   5.133   5.123  2.4484  1.4943 -1.8204
  547TIP3    H2 1648   3.194   5.107   4.979 -0.9515  0.6257 -0.8859
  548TIP3   OH2 1649   1.785   3.921   1.544 -1.1048 -0.6276 -0.1562
  548TIP3    H1 1650   1.752   4.011   1.554  1.1854  0.3553 -0.7482
  548TIP3    H2 1651   1.829   3.903   1.627  0.8942 -0.0367 -1.0178
  549TIP3   OH2 1652   5.749   5.571   2.186  0.5520 -0.7207 -0.2545
  549TIP3    H1 1653   5.845   5.565   2.196  0.6817  1.2870  0.0716
  549TIP3    H2 1654   5.715   5.551   2.273  0.8374  0.7612  0.2375
  550TIP3   OH2 1655   6.291   2.036   3.614  0.2584 -0.6555 -0.3661
  550TIP3    H1 1656   6.242   2.118   3.619  0.0597 -0.6581 -1.7428
  550TIP3    H2 1657   6.381   2.061   3.636  0.0451 -0.2349  0.0442
  551TIP3   OH2 1658   1.943   2.776   0.859  0.1810  0.1520  0.0457
  551TIP3    H1 1659   1.858   2.775   0.904  0.5433 -1.3373  0.7473
  551TIP3    H2 1660   1.955   2.685   0.830  1.9227  0.1528  0.6989
  552TIP3   OH2 1661   1.548   5.875   1.085  0.5899  0.1047 -0.7362
  552TIP3    H1 1662   1.628   5.906   1.043  1.2961  0.4462  0.8095
  552TIP3    H2 1663   1.492   5.848   1.012  1.4701  1.3571 -1.9292
  553TIP3   OH2 1664   5.119   0.415   4.406 -0.0234 -0.4779  0.5597
  553TIP3    H1 1665   5.044   0.376   4.453  1.2110 -0.9465  2.2387
  553TIP3    H2 1666   5.090   0.419   4.315 -2.5725  0.5089  1.3100
  554TIP3   OH2 1667   2.072   4.405   1.332 -0.0024  0.4609 -0.4206
  554TIP3    H1 1668   2.098   4.325   1.378  0.0588 -0.5019 -2.0608
  554TIP3    H2 1669   1.976   4.406   1.338  0.0678  1.8252  2.0344
  555TIP3   OH2 1670   1.090   5.819   5.054 -0.5823  0.3721 -0.1831
  555TIP3    H1 1671   1.137   5.815   4.971  0.0130 -0.1234  0.1729
  555TIP3    H2 1672   1.037   5.899   5.047 -0.0456  0.6880 -0.7698
  556TIP3   OH2 1673   5.319   2.117   0.586 -0.1227  0.1868 -0.2476
  556TIP3    H1 1674   5.335   2.045   0.648 -0.6477  1.8044  1.8820
  556TIP3    H2 1675   5.274   2.184   0.638 -2.5089  0.8360 -2.9091
  557TIP3   OH2 1676   2.412   5.105   3.671 -0.2999 -0.3429 -1.0576
  557TIP3    H1 1677   2.507   5.101   3.681 -0.3451 -0.5364 -0.6928
  557TIP3    H2 1678   2.378   5.055   3.745 -0.7315  1.3228 -0.0922
  558TIP3   OH2 1679   1.478   2.782   0.817 -0.4432  0.0856  0.0505
  558TIP3    H1 1680   1.469   2.689   0.796 -0.9975  0.3983 -1.1740
  558TIP3    H2 1681   1.403   2.800   0.874 -0.0106 -0.3368  0.7708
  559TIP3   OH2 1682   3.734   4.759   2.801 -0.4387  0.4395 -0.4255
  559TIP3    H1 1683   3.653   4.751   2.850  0.6805 -0.8749  1.3207
  559TIP3    H2 1684   3.799   4.712   2.853  0.9603 -0.5477 -2.8987
  560TIP3   OH2 1685   4.084   3.867   0.521  0.5033  0.2995  0.7422
  560TIP3    H1 1686   4.118   3.956   0.521 -0.0633  0.5728 -1.3530
  560TIP3    H2 1687   4.010   3.869   0.460 -0.4567 -1.2823  1.7622
  561TIP3   OH2 1688   2.618   4.502   2.949 -0.7416  0.6014  0.3310
  561TIP3    H1 1689   2.694   4.528   3.003 -0.7677  2.7450 -0.5627
  561TIP3    H2 1690   2.548   4.560   2.979 -1.2899  0.4625 -0.6763
  562TIP3   OH2 1691   2.556   5.778   2.346 -0.1668  0.1453 -0.2701
  562TIP3    H1 1692   2.546   5.737   2.261  1.3374 -0.1904 -0.3151
  562TIP3    H2 1693   2.478   5.752   2.395  1.2759 -3.9838  0.1809
  563TIP3   OH2 1694   6.325   3.390   4.447  0.8723 -0.0548  0.3248
  563TIP3    H1 1695   6.234   3.391   4.474  0.8426 -0.9595  0.3002
  563TIP3    H2 1696   6.332   3.460   4.382  0.3468  0.4276  0.7831
  564TIP3   OH2 1697   3.425   0.633   3.320 -0.2025 -0.0417 -0.0337
  564TIP3    H1 1698   3.436   0.691   3.245 -1.8390 -0.3742 -0.5557
  564TIP3    H2 1699   3.417   0.691   3.395 -2.2219  0.4665 -0.6015
  565TIP3   OH2 1700   5.103   1.516   1.653 -0.0319  0.4464  0.1003
  565TIP3    H1 1701   5.084   1.544   1.743 -3.6389  0.5672 -0.5433
  565TIP3    H2 1702   5.071   1.426   1.648  0.6429  0.2451 -0.9262
  566TIP3   OH2 1703   2.361   1.744   3.063 -0.0800  1.0665  0.1399
  566TIP3    H1 1704   2.433   1.764   3.123 -1.0576  2.4688  0.9238
  566TIP3    H2 1705   2.296   1.699   3.118  0.4986 -0.9850 -0.7508
  567TIP3   OH2 1706   2.544   3.113   3.663  0.3795  0.5510 -0.0955
  567TIP3    H1 1707   2.493   3.193   3.675 -1.1176 -0.6874  2.6860
  567TIP3    H2 1708   2.625   3.130   3.711  0.1848  0.5030  0.2518
  568TIP3   OH2 1709   0.366   2.557   3.952 -0.3687 -0.8614  0.4129
  568TIP3    H1 1710   0.386   2.525   4.040  0.6343 -0.2811  0.4127
  568TIP3    H2 1711   0.436   2.522   3.897  1.9561  2.7123  0.7325
  569TIP3   OH2 1712   1.353   2.534   3.137  0.3005 -0.2180  0.6433
  569TIP3    H1 1713   1.284   2.534   3.202  0.9904 -0.1717  1.3899
  569TIP3    H2 1714   1.366   2.441   3.115 -0.5790 -0.1688 -0.1478
  570TIP3   OH2 1715   3.351   5.883   2.799  0.0790  0.2720  0.1687
  570TIP3    H1 1716   3.350   5.958   2.739 -1.2743 -0.3297 -0.5954
  570TIP3    H2 1717   3.293   5.908   2.871  0.2353  0.2496  0.3051
  571TIP3   OH2 1718   3.757   0.458   2.217  0.1638 -0.4538 -0.2661
  571TIP3    H1 1719   3.837   0.427   2.259  0.4900  0.3221 -0.2979
  571TIP3    H2 1720   3.723   0.381   2.170 -0.8645 -1.7212  2.3344
  572TIP3   OH2 1721   2.223   2.515   0.045  0.1755 -0.3348 -0.2663
  572TIP3    H1 1722   2.169   2.589   0.016 -0.6692 -0.6239  0.4953
  572TIP3    H2 1723   2.311   2.534   0.013  0.3460  1.8269  1.3026
  573TIP3   OH2 1724   4.825   3.261   2.725  0.3115 -0.1519 -0.0599
  573TIP3    H1 1725   4.859   3.224   2.644  0.2051  0.4671 -0.3952
  573TIP3    H2 1726   4.796   3.186   2.776 -0.7436 -0.4813 -1.0975
  574TIP3   OH2 1727   4.020   4.568   0.314  0.5513  0.3728  0.3540
  574TIP3    H1 1728   4.051   4.646   0.360 -1.2058 -0.0425  2.3718
  574TIP3    H2 1729   3.925   4.569   0.326  0.4024 -1.6229 -0.3286
  575TIP3   OH2 1730   1.759   5.841   1.367 -0.4458  0.4517 -0.4152
  575TIP3    H1 1731   1.848   5.829   1.334 -0.1151 -0.6241  0.7753
  575TIP3    H2 1732   1.710   5.767   1.332 -0.8497  0.9604 -0.9442
  576TIP3   OH2 1733   1.020   5.244   3.085 -0.2056  0.5272 -0.1210
  576TIP3    H1 1734   1.072   5.310   3.039 -0.4785  1.8972  1.4012
  576TIP3    H2 1735   1.081   5.204   3.147 -0.8426  2.0694  1.6004
  577TIP3   OH2 1736   5.174   1.699   2.536 -0.3546 -0.2978  0.7256
  577TIP3    H1 1737   5.091   1.653   2.538 -0.7111  0.3051  0.1114
  577TIP3    H2 1738   5.240   1.630   2.545 -0.8691 -0.9355 -0.1875
  578TIP3   OH2 1739   5.903   5.797   1.102  0.1334  0.5252 -0.3915
  578TIP3    H1 1740   5.910   5.736   1.028  1.2137 -0.9941  0.8826
  578TIP3    H2 1741   5.887   5.741   1.178 -1.4788  2.0837  0.4861
  579TIP3   OH2 1742   5.483   5.469   2.953 -0.3218  0.2002  0.4551
  579TIP3    H1 1743   5.488   5.552   3.002 -0.8345  0.0928  0.6905
  579TIP3    H2 1744   5.403   5.477   2.900  0.6643  0.6730 -1.0377
  580TIP3   OH2 1745   2.747   3.367   1.993 -0.1527 -0.4252 -0.3602
  580TIP3    H1 1746   2.651   3.372   1.985 -0.4822 -0.4727  2.3993
  580TIP3    H2 1747   2.765   3.273   2.001 -0.4783 -0.3432  3.2166
  581TIP3   OH2 1748   0.408   5.806   0.837  0.3121  0.2433  0.2148
  581TIP3    H1 1749   0.363   5.858   0.771 -0.8374 -1.8941 -0.7895
  581TIP3    H2 1750   0.487   5.773   0.792 -0.7205 -1.6105 -0.3314
  582TIP3   OH2 1751   4.779   0.292   4.307 -0.0601 -0.1263  0.1982
  582TIP3    H1 1752   4.798   0.309   4.215  0.0371 -1.8460 -0.1475
  582TIP3    H2 1753   4.697   0.338   4.324 -0.9727 -1.1432 -1.2413
  583TIP3   OH2 1754   3.289   2.362   3.287 -0.3387  0.8462  0.2520
  583TIP3    H1 1755   3.270   2.445   3.241 -1.7426  0.6870  0.5089
  583TIP3    H2 1756   3.308   2.389   3.377  0.5510  0.9974  0.0252
  584TIP3   OH2 1757   6.034   4.694   2.818 -0.2822  0.3888 -0.1218
  584TIP3    H1 1758   6.010   4.617   2.767  1.5293  1.2433 -2.4424
  584TIP3    H2 1759   6.130   4.698   2.812 -0.2614  2.3519  0.6488
  585TIP3   OH2 1760   1.492   5.358   3.683 -0.4937 -0.0644 -0.4897
  585TIP3    H1 1761   1.436   5.428   3.715  0.1555 -0.2997  1.3047
  585TIP3    H2 1762   1.581   5.387   3.704 -0.0896 -0.6389 -1.3311
  586TIP3   OH2 1763   0.268   0.283   0.593 -0.1375  0.2374  0.1707
  586TIP3    H1 1764   0.339   0.346   0.600 -0.5136  0.5883  0.9964
  586TIP3    H2 1765   0.302   0.204   0.635 -0.2198  0.4039  0.5624
  587TIP3   OH2 1766   1.406   2.309   0.360 -0.2101  0.3796 -0.8293
  587TIP3    H1 1767   1.357   2.229   0.376  1.6752 -0.6889 -0.1556
  587TIP3    H2 1768   1.345   2.379   0.385 -1.5854 -0.8440 -0.5973
  588TIP3   OH2 1769   3.277   4.986   1.960  0.3512 -0.3742  0.2589
  588TIP3    H1 1770   3.199   5.042   1.971  1.3379  1.5153 -1.5579
  588TIP3    H2 1771   3.246   4.912   1.908 -0.1503  0.7572 -1.1437
  589TIP3   OH2 1772   3.280   5.394   1.293 -0.1659 -0.3817 -0.2100
  589TIP3    H1 1773   3.202   5.406   1.347 -0.1448 -2.6161  0.4315
  589TIP3    H2 1774   3.281   5.300   1.275  1.0475 -0.0170 -2.2788
  590TIP3   OH2 1775   3.103   3.919   2.809  0.1653 -0.4583 -0.0083
  590TIP3    H1 1776   3.120   3.926   2.902  1.2048  1.0028 -0.2662
  590TIP3    H2 1777   3.069   4.005   2.784 -0.3342 -0.9057 -0.9355
  591TIP3   OH2 1778   3.752   0.088   3.220  0.6533 -0.8168  0.7594
  591TIP3    H1 1779   3.767   0.024   3.151  0.1429  0.4283 -0.5657
  591TIP3    H2 1780   3.828   0.146   3.217  0.8512 -1.0082  1.5819
  592TIP3   OH2 1781   0.680   3.759   0.757 -0.1249  0.1863 -0.1936
  592TIP3    H1 1782   0.668   3.852   0.738  0.1943  0.1679 -0.4781
  592TIP3    H2 1783   0.773   3.743   0.746  0.1498  0.2531  1.7280
  593TIP3   OH2 1784   1.658   2.385   5.193 -0.3103  0.0904 -0.4522
  593TIP3    H1 1785   1.659   2.290   5.210 -3.2012 -0.4203 -2.4600
  593TIP3    H2 1786   1.641   2.392   5.099  0.4648  2.6487 -0.4630
  594TIP3   OH2 1787   6.036   0.810   4.291 -0.3831  0.2192 -0.1703
  594TIP3    H1 1788   6.031   0.729   4.241  1.3838  0.4357 -0.7760
  594TIP3    H2 1789   5.967   0.803   4.356 -1.1558 -1.1478 -1.1006
  595TIP3   OH2 1790   3.827   2.757   4.603 -0.6395 -0.3356  0.1746
  595TIP3    H1 1791   3.818   2.689   4.536  0.1183 -0.3290  0.0561
  595TIP3    H2 1792   3.893   2.816   4.568  0.8925 -1.1316  1.5576
  596TIP3   OH2 1793   2.280   2.413   0.465  0.2112 -0.3562 -0.5695
  596TIP3    H1 1794   2.354   2.467   0.437  1.7416 -1.8249  0.3884
  596TIP3    H2 1795   2.250   2.454   0.546  1.4207 -0.9134  0.2002
  597TIP3   OH2 1796   4.358   0.838   2.988 -0.8239  1.0389 -0.1395
  597TIP3    H1 1797   4.433   0.875   3.036 -0.7782  0.2258  0.4606
  597TIP3    H2 1798   4.337   0.758   3.037  0.1461 -0.6314 -2.2998
  598TIP3   OH2 1799   1.915   2.663   2.801  0.5321  0.0364 -0.2755
  598TIP3    H1 1800   2.006   2.666   2.770  0.3243 -0.0218 -0.9046
  598TIP3    H2 1801   1.865   2.632   2.725  0.2000 -1.5466  0.5529
  599TIP3   OH2 1802   5.830   3.293   2.141  0.7665 -0.0888  0.2420
  599TIP3    H1 1803   5.765   3.293   2.211  1.3789  1.7782  0.8776
  599TIP3    H2 1804   5.910   3.262   2.183  0.3619 -2.3558 -0.5305
  600TIP3   OH2 1805   2.718   0.612   4.449  0.4475  0.5075 -0.5540
  600TIP3    H1 1806   2.657   0.538   4.453  0.8037  0.2746  1.4448
  600TIP3    H2 1807   2.736   0.623   4.356  1.5758 -2.9251 -0.8693
  601TIP3   OH2 1808   1.877   1.386   4.876 -0.1864  0.1519  0.0399
  601TIP3    H1 1809   1.831   1.333   4.812 -0.2644  1.1395 -0.7343
  601TIP3    H2 1810   1.968   1.355   4.872 -0.4645 -0.7588  0.4932
  602TIP3   OH2 1811   4.767   3.782   2.188 -0.1412 -0.1280 -0.3070
  602TIP3    H1 1812   4.729   3.695   2.201  0.6339 -0.4043  0.1748
  602TIP3    H2 1813   4.697   3.834   2.149 -0.5429 -1.0287 -0.7995
  603TIP3   OH2 1814   3.952   3.733   2.228  0.1811 -0.1123  0.0705
  603TIP3    H1 1815   3.875   3.788   2.246 -0.1688 -0.5819  0.0202
  603TIP3    H2 1816   3.979   3.757   2.140 -0.8185 -1.0031 -0.5057
  604TIP3   OH2 1817   2.138   4.090   4.858  0.1278 -0.8854 -0.2271
  604TIP3    H1 1818   2.050   4.057   4.877 -0.7583  0.7500 -1.2291
  604TIP3    H2 1819   2.158   4.149   4.931 -0.5933  0.4660 -1.0725
  605TIP3   OH2 1820   4.362   1.525   3.862  0.3870 -0.6085 -0.1475
  605TIP3    H1 1821   4.325   1.535   3.774 -0.2235 -2.9218 -0.2195
  605TIP3    H2 1822   4.432   1.462   3.851  1.6943  0.6360  0.7222
  606TIP3   OH2 1823   2.251   1.694   4.923 -0.4061 -0.2676 -0.1017
  606TIP3    H1 1824   2.288   1.781   4.908  0.2089 -0.2737  1.2269
  606TIP3    H2 1825   2.307   1.635   4.873  1.6129 -0.2996  2.0208
  607TIP3   OH2 1826   5.824   1.208   2.893 -0.3063  0.0965  0.3520
  607TIP3    H1 1827   5.784   1.230   2.977 -1.1670 -1.1495  0.2983
  607TIP3    H2 1828   5.753   1.216   2.830 -0.0904 -0.6232  0.0108
  608TIP3   OH2 1829   3.603   5.930   0.071 -0.1849 -0.0234  0.6018
  608TIP3    H1 1830   3.662   5.961   0.002  0.9510 -2.2439  0.4723
  608TIP3    H2 1831   3.582   6.008   0.122  1.0013  1.2318 -0.7443
  609TIP3   OH2 1832   1.163   3.373   2.852 -0.8112  0.1850 -0.0032
  609TIP3    H1 1833   1.069   3.369   2.871 -1.0340  0.5712 -0.9446
  609TIP3    H2 1834   1.205   3.357   2.936 -1.7221  0.0945  0.4526
  610TIP3   OH2 1835   3.822   4.706   4.057 -0.1998  0.0082 -0.4668
  610TIP3    H1 1836   3.815   4.694   3.963 -0.9916 -1.6171 -0.2186
  610TIP3    H2 1837   3.864   4.792   4.067 -1.4575  0.8698 -2.2598
  611TIP3   OH2 1838   4.185   3.502   2.141 -0.3004  0.0458 -0.0364
  611TIP3    H1 1839   4.225   3.562   2.079  0.9318 -0.5433  0.1541
  611TIP3    H2 1840   4.111   3.550   2.178 -1.3589  0.2365 -2.2736
  612TIP3   OH2 1841   5.290   5.605   0.709 -0.0319 -0.3397 -0.3578
  612TIP3    H1 1842   5.368   5.633   0.758 -0.0081 -0.5728 -0.2610
  612TIP3    H2 1843   5.308   5.632   0.619  0.2511 -0.5742 -0.3725
  613TIP3   OH2 1844   5.936   2.777   5.002 -0.2795 -0.5030  0.0376
  613TIP3    H1 1845   5.919   2.754   5.094  2.5580 -0.7934  0.5709
  613TIP3    H2 1846   6.010   2.721   4.977  0.4785  1.1896 -1.7089
  614TIP3   OH2 1847   0.500   5.987   4.217 -0.3534 -0.2374  0.3177
  614TIP3    H1 1848   0.453   5.904   4.211  1.6161 -1.3404 -3.7997
  614TIP3    H2 1849   0.589   5.962   4.243  0.0201  0.6808 -0.0521
  615TIP3   OH2 1850   1.767   5.207   1.787 -0.2549  0.5504  0.1859
  615TIP3    H1 1851   1.835   5.141   1.774 -1.3771 -0.2569 -2.0892
  615TIP3    H2 1852   1.686   5.158   1.795 -1.1374  1.6013 -1.6593
  616TIP3   OH2 1853   2.828   2.600   1.540 -0.5834 -0.1214 -0.4177
  616TIP3    H1 1854   2.881   2.584   1.618  1.0114 -0.2945 -1.4808
  616TIP3    H2 1855   2.830   2.695   1.528 -1.1940 -0.0525 -0.0228
  617TIP3   OH2 1856   1.855   1.721   2.096 -0.2266  0.1581  0.0962
  617TIP3    H1 1857   1.768   1.705   2.131  0.2533  0.0405  1.2886
  617TIP3    H2 1858   1.883   1.803   2.136 -0.1950  0.7685 -1.1232
  618TIP3   OH2 1859   3.615   0.124   0.473 -0.0594  0.2657 -0.1672
  618TIP3    H1 1860   3.657   0.194   0.423 -1.3918  1.6107  0.4902
  618TIP3    H2 1861   3.611   0.158   0.562 -2.2098  0.0977 -0.1473
  619TIP3   OH2 1862   3.620   4.632   0.111 -0.1770  1.0635  0.0209
  619TIP3    H1 1863   3.663   4.639   0.025 -0.3815  1.1023 -0.0803
  619TIP3    H2 1864   3.555   4.703   0.110 -0.1625  1.0781  0.2169
  620TIP3   OH2 1865   1.179   2.395   3.931 -0.1970  0.4491 -0.2339
  620TIP3    H1 1866   1.156   2.388   3.838 -0.3771  0.6850 -0.2064
  620TIP3    H2 1867   1.201   2.305   3.956 -0.5933  0.3059 -0.3884
  621TIP3   OH2 1868   6.280   4.359   0.823  0.1245  0.5504  0.0930
  621TIP3    H1 1869   6.226   4.281   0.810  0.3888  0.2576  0.7061
  621TIP3    H2 1870   6.346   4.332   0.887  0.1354  1.3131  0.4188
  622TIP3   OH2 1871   2.284   2.311   1.907  0.4803 -0.4131  0.2762
  622TIP3    H1 1872   2.318   2.232   1.866  0.8425 -1.4402  2.4136
  622TIP3    H2 1873   2.190   2.309   1.890  0.4934 -1.2979  0.2909
  623TIP3   OH2 1874   0.257   0.801   3.848  0.3930 -0.1548  0.5655
  623TIP3    H1 1875   0.281   0.869   3.910 -0.4410 -0.0627  0.8059
  623TIP3    H2 1876   0.163   0.789   3.861  0.5993 -1.6495  0.8306
  624TIP3   OH2 1877   5.648   0.891   5.210  0.2607  0.2184  0.2298
  624TIP3    H1 1878   5.730   0.858   5.173 -0.0347  0.0161 -0.2576
  624TIP3    H2 1879   5.592   0.906   5.134 -1.2423 -2.5106  0.6528
  625TIP3   OH2 1880   0.878   4.928   1.049 -0.0130 -0.2494  0.2985
  625TIP3    H1 1881   0.854   4.876   0.973 -0.9827 -1.6303  1.4913
  625TIP3    H2 1882   0.921   5.006   1.013 -0.8940 -0.6204 -1.6571
  626TIP3   OH2 1883   5.539   2.459   0.718  0.1657  0.0547  0.7092
  626TIP3    H1 1884   5.603   2.522   0.749  1.5994 -0.9657 -0.0420
  626TIP3    H2 1885   5.488   2.435   0.795  1.0389  0.5130  1.4403
  627TIP3   OH2 1886   3.034   2.015   3.728 -0.0786  0.0268  0.2854
  627TIP3    H1 1887   3.103   2.060   3.680  1.4413 -0.6322  1.7699
  627TIP3    H2 1888   3.067   2.008   3.817 -1.8016 -0.8855  0.8997
  628TIP3   OH2 1889   3.129   1.746   1.970 -0.9134 -0.4807  0.0103
  628TIP3    H1 1890   3.192   1.798   2.020 -0.6135 -0.0031 -0.8338
  628TIP3    H2 1891   3.155   1.759   1.879 -1.2875 -1.5398 -0.2617
  629TIP3   OH2 1892   3.183   0.690   0.469  0.4262  0.0899 -0.2438
  629TIP3    H1 1893   3.188   0.766   0.411 -0.2809 -0.4667 -1.0709
  629TIP3    H2 1894   3.166   0.616   0.410 -0.4959 -0.4705  0.6901
  630TIP3   OH2 1895   2.496   1.336   0.177  0.5546  0.0430  0.6329
  630TIP3    H1 1896   2.506   1.240   0.175  0.3511  0.0306 -0.6605
  630TIP3    H2 1897   2.480   1.356   0.269  0.8088 -1.1458  0.9623
  631TIP3   OH2 1898   2.707   4.751   2.827  0.4473 -0.1112  0.0095
  631TIP3    H1 1899   2.655   4.765   2.906 -2.4230 -0.6029 -1.6081
  631TIP3    H2 1900   2.641   4.733   2.759  2.5230  2.5637 -3.0169
  632TIP3   OH2 1901   5.723   2.005   3.109 -0.3777  0.1333 -0.0831
  632TIP3    H1 1902   5.732   1.910   3.106 -0.6614  0.0731  0.7480
  632TIP3    H2 1903   5.727   2.027   3.202 -0.3202  0.9367 -0.2650
  633TIP3   OH2 1904   3.210   0.520   4.523  0.4701 -0.1252 -0.7764
  633TIP3    H1 1905   3.276   0.532   4.592  0.7704  0.5558 -1.1675
  633TIP3    H2 1906   3.190   0.609   4.494  1.8015 -0.4606 -2.9149
  634TIP3   OH2 1907   1.400   3.300   4.456 -0.3814 -0.0425  0.0347
  634TIP3    H1 1908   1.326   3.279   4.399  0.0182  1.0228 -0.9176
  634TIP3    H2 1909   1.361   3.351   4.527 -1.2210 -3.0734  1.9277
  635TIP3   OH2 1910   1.554   0.053   0.110  0.3194 -0.4400  0.7601
  635TIP3    H1 1911   1.561   0.134   0.159 -0.3622 -0.5787  1.0989
  635TIP3    H2 1912   1.644   0.020   0.104  0.8061  1.0078 -0.5519
  636TIP3   OH2 1913   1.910   2.826   3.811  0.2007 -0.8126  0.0692
  636TIP3    H1 1914   1.848   2.771   3.859 -0.4010 -0.5703 -0.4276
  636TIP3    H2 1915   1.994   2.812   3.857  0.4827 -3.5046 -1.0824
  637TIP3   OH2 1916   3.087   4.719   4.759  0.1285  0.2684 -0.4801
  637TIP3    H1 1917   3.002   4.737   4.798  0.2746 -0.9516  0.4584
  637TIP3    H2 1918   3.070   4.656   4.689  0.3057 -0.4121  0.0744
  638TIP3   OH2 1919   2.146   3.379   0.927 -0.2739 -0.0721 -0.0752
  638TIP3    H1 1920   2.175   3.332   0.849 -3.4806 -1.9906 -0.2669
  638TIP3    H2 1921   2.148   3.471   0.901  2.2563 -0.3197 -1.0671
  639TIP3   OH2 1922   0.219   4.136   0.385 -0.3905 -0.4198  0.8672
  639TIP3    H1 1923   0.168   4.212   0.357  0.1523 -0.6494 -0.8907
  639TIP3    H2 1924   0.174   4.104   0.463 -2.0270  0.2855  0.2533
  640TIP3   OH2 1925   2.446   4.526   0.966  0.1098  0.0839 -0.0917
  640TIP3    H1 1926   2.400   4.445   0.945  0.6826 -0.0182 -0.9948
  640TIP3    H2 1927   2.434   4.582   0.889 -1.5956  1.4972  1.0993
  641TIP3   OH2 1928   0.254   2.785   2.120 -0.2879  0.4498 -0.3612
  641TIP3    H1 1929   0.244   2.866   2.170 -0.0237  0.1875  0.1307
  641TIP3    H2 1930   0.210   2.802   2.037 -1.3471  0.6644  0.2189
  642TIP3   OH2 1931   5.126   5.719   1.580 -0.0384 -0.0299  0.4218
  642TIP3    H1 1932   5.221   5.718   1.584  0.2674  3.4538 -1.7936
  642TIP3    H2 1933   5.105   5.681   1.495 -0.7354 -1.2384  1.1005
  643TIP3   OH2 1934   5.914   1.231   1.679  0.1728 -0.1025 -0.0855
  643TIP3    H1 1935   5.897   1.289   1.754 -1.7764  1.9492 -1.9924
  643TIP3    H2 1936   5.997   1.263   1.643 -0.4831  1.0355 -0.6425
  644TIP3   OH2 1937   2.771   2.170   5.041  0.8401  0.2065  0.5760
  644TIP3    H1 1938   2.856   2.133   5.066  1.1563  0.2678 -0.3730
  644TIP3    H2 1939   2.711   2.096   5.043  1.4921 -0.4431 -1.4365
  645TIP3   OH2 1940   2.329   4.346   3.339 -0.2601 -0.4964  0.4584
  645TIP3    H1 1941   2.387   4.293   3.286  0.9988  0.1512  1.1418
  645TIP3    H2 1942   2.276   4.283   3.388  0.6142 -1.1256  0.6229
  646TIP3   OH2 1943   1.453   0.889   3.888  0.6488  0.2103  0.4651
  646TIP3    H1 1944   1.414   0.863   3.804  0.3145  0.1779  0.6286
  646TIP3    H2 1945   1.547   0.874   3.876  0.3901 -2.1872  0.9174
  647TIP3   OH2 1946   4.062   5.673   0.347  0.3281  0.3421  0.0418
  647TIP3    H1 1947   4.003   5.647   0.277  1.1343 -1.0525 -0.1628
  647TIP3    H2 1948   4.136   5.714   0.303  0.0117  1.1508  0.2304
  648TIP3   OH2 1949   6.278   3.518   4.801  0.1565  0.6351 -0.1242
  648TIP3    H1 1950   6.199   3.529   4.853  0.5686  1.0500  0.4314
  648TIP3    H2 1951   6.294   3.424   4.800 -0.4852  0.5264 -0.4612
  649TIP3   OH2 1952   1.048   5.847   1.762 -0.3247 -0.1364 -0.2663
  649TIP3    H1 1953   1.005   5.782   1.818 -1.3684  1.7503  1.2513
  649TIP3    H2 1954   0.976   5.899   1.726  0.5349  1.6963  0.5358
  650TIP3   OH2 1955   2.352   2.076   2.301 -0.2288  0.0633  0.0453
  650TIP3    H1 1956   2.289   2.030   2.246 -0.1938  0.7240 -0.5545
  650TIP3    H2 1957   2.369   2.158   2.255 -0.1393  0.5949  1.0002
  651TIP3   OH2 1958   6.000   4.906   4.571 -0.9192  0.1930 -0.3232
  651TIP3    H1 1959   5.997   4.992   4.613  1.2445  0.4762 -0.6342
  651TIP3    H2 1960   6.006   4.844   4.643 -0.0585  0.4845 -0.1326
  652TIP3   OH2 1961   1.014   2.960   4.336  0.0599  0.1136  0.5307
  652TIP3    H1 1962   0.969   2.908   4.270 -0.0078 -0.5836  1.1220
  652TIP3    H2 1963   0.998   2.914   4.418  1.3250  0.1898  0.8374
  653TIP3   OH2 1964   1.191   5.144   3.260 -0.3065 -0.2689  0.3851
  653TIP3    H1 1965   1.121   5.156   3.324 -0.3714  0.2626  0.2184
  653TIP3    H2 1966   1.267   5.187   3.300 -0.2549 -0.2460  0.2608
  654TIP3   OH2 1967   4.973   5.898   2.419 -0.0849  0.4493  0.4251
  654TIP3    H1 1968   4.954   5.966   2.484  0.8820  0.6737  0.4919
  654TIP3    H2 1969   5.050   5.853   2.454 -0.5482 -0.5101  0.2427
  655TIP3   OH2 1970   0.805   4.003   3.248  0.2497 -0.0143 -0.2063
  655TIP3    H1 1971   0.809   4.092   3.283  0.1994 -0.3706  0.7168
  655TIP3    H2 1972   0.771   4.015   3.159 -1.9020  0.7224  0.6398
  656TIP3   OH2 1973   6.016   5.612   4.946  0.3588 -0.0031 -0.5123
  656TIP3    H1 1974   5.941   5.671   4.932  0.9497  0.3963 -2.3142
  656TIP3    H2 1975   6.092   5.664   4.921  0.9674 -1.2593 -1.4041
  657TIP3   OH2 1976   5.130   0.970   4.810  0.1101  0.0398  0.7374
  657TIP3    H1 1977   5.186   1.044   4.789 -0.2202  0.2186  0.4899
  657TIP3    H2 1978   5.097   0.940   4.725 -1.7944  1.2008  1.0075
  658TIP3   OH2 1979   1.529   5.608   1.478 -0.0855  0.2709 -0.0223
  658TIP3    H1 1980   1.516   5.692   1.521  0.1659 -0.6625  1.9993
  658TIP3    H2 1981   1.569   5.630   1.393 -0.4979  2.1859  0.2371
  659TIP3   OH2 1982   2.527   1.917   2.748 -0.4263  0.2474 -0.4285
  659TIP3    H1 1983   2.462   1.860   2.790  0.5575 -0.0251  0.7472
  659TIP3    H2 1984   2.594   1.857   2.715 -0.0078  0.6387 -0.2895
  660TIP3   OH2 1985   5.808   3.710   2.210 -0.1302 -0.4785  0.1999
  660TIP3    H1 1986   5.864   3.671   2.278  0.2679 -0.7853 -0.2969
  660TIP3    H2 1987   5.721   3.676   2.229  0.1355 -1.2694  0.0405
  661TIP3   OH2 1988   5.817   1.262   2.155  0.2665 -1.0573 -0.3965
  661TIP3    H1 1989   5.754   1.192   2.140 -0.2897 -0.8909  1.0072
  661TIP3    H2 1990   5.896   1.217   2.184 -0.8504 -1.0780  3.0078
  662TIP3   OH2 1991   2.051   2.168   4.689 -0.4607  0.2313  0.4014
  662TIP3    H1 1992   2.044   2.143   4.596 -4.5003 -0.6216  0.7153
  662TIP3    H2 1993   1.973   2.221   4.705 -0.3179 -0.3103  3.4855
  663TIP3   OH2 1994   1.727   1.106   3.678  0.3078 -0.0291  0.3638
  663TIP3    H1 1995   1.670   1.102   3.601  0.7270  0.9647 -0.0252
  663TIP3    H2 1996   1.724   1.018   3.715  0.1752 -0.5582 -0.8480
  664TIP3   OH2 1997   5.400   5.890   1.010 -0.7314 -0.2359 -0.0604
  664TIP3    H1 1998   5.475   5.834   1.032 -0.7483 -0.5910 -0.8738
  664TIP3    H2 1999   5.330   5.860   1.067 -0.7718 -1.1269 -0.5593
  665TIP3   OH2 2000   0.060   1.412   1.256  0.7180  0.6890 -0.4319
  665TIP3    H1 2001  -0.012   1.475   1.267  1.2728  1.4112 -0.8267
  665TIP3    H2 2002   0.059   1.360   1.336  0.2197  1.1745 -0.1160
  666TIP3   OH2 2003   5.982   1.814   1.744 -0.2822 -0.1304  0.3730
  666TIP3    H1 2004   5.998   1.866   1.823  2.4837  0.5063 -0.4968
  666TIP3    H2 2005   5.935   1.874   1.685 -0.7604 -0.0199  0.8504
  667TIP3   OH2 2006   2.534   5.323   0.154  0.2143 -0.4657 -0.8027
  667TIP3    H1 2007   2.467   5.390   0.163  1.4747  0.6509  0.8510
  667TIP3    H2 2008   2.496   5.246   0.198  0.4108  0.5178  1.2284
  668TIP3   OH2 2009   4.914   4.564   0.770  0.1328 -0.3302  0.2375
  668TIP3    H1 2010   4.927   4.492   0.832 -2.4107 -0.4520  0.7169
  668TIP3    H2 2011   4.823   4.555   0.742  0.5878  1.0555 -1.8568
  669TIP3   OH2 2012   0.800   4.633   0.581 -0.5990 -0.3620  0.1727
  669TIP3    H1 2013   0.714   4.607   0.548  0.1739  1.0793 -3.5185
  669TIP3    H2 2014   0.856   4.558   0.562 -0.1019  0.5596 -2.3763
  670TIP3   OH2 2015   1.802   4.500   1.960  0.4659  0.6591  0.0954
  670TIP3    H1 2016   1.895   4.523   1.961  1.4102 -2.4178 -1.9795
  670TIP3    H2 2017   1.799   4.411   1.996 -1.8681  1.0763  1.0883
  671TIP3   OH2 2018   0.499   5.683   0.585  0.4491  0.9923 -0.1722
  671TIP3    H1 2019   0.523   5.774   0.570  0.5564  0.8255 -1.0626
  671TIP3    H2 2020   0.406   5.678   0.564  0.7603  0.6053 -1.5753
  672TIP3   OH2 2021   6.172   5.469   2.765 -0.3490  0.0320  0.5949
  672TIP3    H1 2022   6.257   5.484   2.723 -0.1060  0.4957  1.2252
  672TIP3    H2 2023   6.108   5.508   2.707 -0.3792 -2.1784 -0.9801
  673TIP3   OH2 2024   3.987   3.520   3.447 -0.5417  0.0198  0.0833
  673TIP3    H1 2025   4.073   3.552   3.474  0.0521 -1.2355 -0.2344
  673TIP3    H2 2026   3.938   3.599   3.425  0.9856  0.7106 -1.0619
  674TIP3   OH2 2027   0.442   3.844   4.495  0.0704  0.1781 -0.4002
  674TIP3    H1 2028   0.521   3.895   4.513 -0.7866  1.2404  0.6034
  674TIP3    H2 2029   0.412   3.875   4.410  1.0054 -0.6118 -1.0274
  675TIP3   OH2 2030   6.199   5.501   0.771  0.1791 -0.6220 -0.2011
  675TIP3    H1 2031   6.258   5.546   0.831 -1.4629  0.4204  0.7070
  675TIP3    H2 2032   6.252   5.483   0.694  1.7244  0.0746  0.6573
  676TIP3   OH2 2033   5.969   4.476   0.515 -0.0647  0.8814  0.3155
  676TIP3    H1 2034   6.036   4.504   0.451  0.1003  0.8322  0.4674
  676TIP3    H2 2035   5.897   4.444   0.461  0.7970 -0.8889  0.1540
  677TIP3   OH2 2036   2.496   3.859   2.478 -0.6756 -0.2798 -0.1114
  677TIP3    H1 2037   2.417   3.833   2.431 -2.5638  0.2587  2.5041
  677TIP3    H2 2038   2.515   3.947   2.445 -0.2334 -0.9765 -1.8149
  678TIP3   OH2 2039   0.201   4.468   3.836  0.1798  0.2374 -0.2763
  678TIP3    H1 2040   0.256   4.477   3.913 -1.6090 -0.0816  1.1202
  678TIP3    H2 2041   0.221   4.381   3.802  0.9638  0.3746 -0.1888
  679TIP3   OH2 2042   1.903   2.978   1.129  0.0830  0.1378 -0.0846
  679TIP3    H1 2043   1.829   2.930   1.168 -1.2136  1.0299 -1.3480
  679TIP3    H2 2044   1.893   3.068   1.161  0.5083  0.3118 -0.4273
  680TIP3   OH2 2045   1.148   3.487   1.901  0.0857 -0.4709 -0.0806
  680TIP3    H1 2046   1.150   3.513   1.994  0.4650  2.1382 -0.7237
  680TIP3    H2 2047   1.227   3.527   1.864 -0.0915 -1.4223 -1.5531
  681TIP3   OH2 2048   0.225   3.912   1.612 -0.3629 -0.1551  0.0398
  681TIP3    H1 2049   0.317   3.892   1.628  0.7460  3.1900 -1.1250
  681TIP3    H2 2050   0.215   3.905   1.517 -0.7737  1.0992 -0.0367
  682TIP3   OH2 2051   2.460   4.271   4.647 -0.1724  0.4191 -0.3078
  682TIP3    H1 2052   2.514   4.256   4.726  0.3030  0.1591 -0.6754
  682TIP3    H2 2053   2.387   4.210   4.657 -0.7848  1.2706  0.5389
  683TIP3   OH2 2054   3.311   2.265   0.390 -0.5422  0.5995 -0.0938
  683TIP3    H1 2055   3.264   2.242   0.470  1.0818 -0.3852  0.6056
  683TIP3    H2 2056   3.395   2.299   0.420  0.8661 -1.5534 -1.3818
  684TIP3   OH2 2057   3.259   1.447   4.230  0.3267  0.1232 -0.4726
  684TIP3    H1 2058   3.202   1.444   4.153  0.2325  0.6347 -0.4297
  684TIP3    H2 2059   3.246   1.363   4.273 -0.2138  0.1375 -0.5981
  685TIP3   OH2 2060   5.370   4.884   2.538  0.0868 -0.5375 -0.0608
  685TIP3    H1 2061   5.441   4.943   2.513  1.3372 -1.3592  1.3426
  685TIP3    H2 2062   5.375   4.880   2.633 -1.9301 -0.5631  0.0871
  686TIP3   OH2 2063   1.394   4.953   0.459  0.2712  0.3488  0.1039
  686TIP3    H1 2064   1.372   5.038   0.497 -0.7773  0.1309  0.0046
  686TIP3    H2 2065   1.312   4.921   0.423  1.0629  0.2084 -1.7070
  687TIP3   OH2 2066   1.920   5.231   0.108  0.0799 -0.3873 -0.2216
  687TIP3    H1 2067   2.002   5.181   0.104  1.5745  2.0266 -2.1572
  687TIP3    H2 2068   1.901   5.253   0.018 -1.8673  0.5066  0.3611
  688TIP3   OH2 2069   1.458   2.640   1.210  0.3848 -0.5452 -0.6794
  688TIP3    H1 2070   1.445   2.735   1.208  0.5999 -0.4259  1.4368
  688TIP3    H2 2071   1.509   2.621   1.130  3.0457  1.5771  0.3592
  689TIP3   OH2 2072   2.723   5.115   2.186 -0.0817  0.0302 -0.3999
  689TIP3    H1 2073   2.703   5.037   2.238  0.2269  0.3784  0.2505
  689TIP3    H2 2074   2.704   5.089   2.096  0.4061 -0.9282 -0.2389
  690TIP3   OH2 2075   3.628   3.065   0.376 -0.4141 -0.3397  0.8439
  690TIP3    H1 2076   3.569   3.028   0.310  0.2529 -0.1395  0.1115
  690TIP3    H2 2077   3.658   3.148   0.338  2.0939 -1.4576  0.1272
  691TIP3   OH2 2078   0.257   4.131   2.053 -0.2542 -0.3739 -0.2134
  691TIP3    H1 2079   0.255   4.163   2.144  1.2840  0.7777 -0.5489
  691TIP3    H2 2080   0.249   4.210   2.000 -0.0322 -0.9264 -1.0834
  692TIP3   OH2 2081   4.817   1.130   3.946 -0.5069 -0.0994 -0.1250
  692TIP3    H1 2082   4.872   1.190   3.998 -0.4218 -1.2586  1.1896
  692TIP3    H2 2083   4.733   1.128   3.992 -0.5781 -0.8166 -0.2741
  693TIP3   OH2 2084   3.845   0.721   4.644 -0.4446 -0.9996  0.7031
  693TIP3    H1 2085   3.770   0.690   4.695 -0.7241 -1.2937  0.1315
  693TIP3    H2 2086   3.807   0.752   4.562 -0.1558  0.7477  1.1884
  694TIP3   OH2 2087   4.223   2.696   2.299  0.2083  0.6537 -0.3426
  694TIP3    H1 2088   4.226   2.759   2.371  0.6709  0.5457 -0.2628
  694TIP3    H2 2089   4.258   2.615   2.337  0.6313  0.6485 -0.7342
  695TIP3   OH2 2090   6.224   1.836   2.355  0.4626  0.4522  0.7107
  695TIP3    H1 2091   6.240   1.812   2.263  1.3507  0.2743  0.8995
  695TIP3    H2 2092   6.188   1.925   2.351 -2.2734 -0.5737  0.0320
  696TIP3   OH2 2093   2.699   2.017   1.293  0.0404  0.2907  0.1564
  696TIP3    H1 2094   2.754   2.003   1.215 -2.0752  0.2164 -1.4152
  696TIP3    H2 2095   2.693   2.112   1.302 -1.0091  0.3344 -0.7951
  697TIP3   OH2 2096   6.048   2.255   1.144 -0.5521 -0.8069 -0.2615
  697TIP3    H1 2097   6.047   2.258   1.240  0.4037 -2.1576 -0.1891
  697TIP3    H2 2098   6.123   2.310   1.120  0.2368 -1.8018 -0.1404
  698TIP3   OH2 2099   0.127   3.633   4.310 -0.2192  0.0795 -0.4430
  698TIP3    H1 2100   0.208   3.616   4.357 -1.3089 -0.2642  1.4023
  698TIP3    H2 2101   0.128   3.727   4.294  0.1592  0.2116  0.3208
  699TIP3   OH2 2102   5.254   3.996   3.109  0.2340  0.0518  0.3505
  699TIP3    H1 2103   5.331   4.017   3.161  1.2046 -0.0432 -0.9833
  699TIP3    H2 2104   5.260   3.901   3.095 -0.5603 -0.0862  0.8784
  700TIP3   OH2 2105   2.756   0.211   0.290 -0.3210  0.1612  0.3370
  700TIP3    H1 2106   2.741   0.198   0.383  0.8853  1.5551  0.7652
  700TIP3    H2 2107   2.731   0.302   0.273 -3.5064 -0.8694 -1.4228
  701TIP3   OH2 2108   2.008   0.480   4.811 -0.9216 -0.8329 -0.1499
  701TIP3    H1 2109   2.008   0.402   4.866  4.1546  0.6806  2.6772
  701TIP3    H2 2110   2.008   0.553   4.873  0.8379  1.1562 -2.2973
  702TIP3   OH2 2111   2.919   4.355   3.263  0.2042 -0.1921 -0.4973
  702TIP3    H1 2112   2.937   4.275   3.311 -0.4571 -1.0865 -1.7015
  702TIP3    H2 2113   2.998   4.369   3.210  0.1029 -0.3290 -0.6815
  703TIP3   OH2 2114   2.823   5.765   2.319  0.2686 -0.1372  0.3883
  703TIP3    H1 2115   2.841   5.713   2.397 -1.9544 -0.2037  0.9199
  703TIP3    H2 2116   2.734   5.797   2.332 -0.0422  0.1218 -1.9732
  704TIP3   OH2 2117   4.276   3.162   1.024 -0.1100 -0.4874 -0.1621
  704TIP3    H1 2118   4.265   3.114   0.942  2.1299 -2.1729  0.4404
  704TIP3    H2 2119   4.281   3.254   0.998 -0.5412 -0.8934 -1.7630
  705TIP3   OH2 2120   5.390   5.367   4.397  0.3639  0.5383 -0.1508
  705TIP3    H1 2121   5.374   5.384   4.304 -1.1183  2.3353  0.3786
  705TIP3    H2 2122   5.334   5.292   4.418 -0.7256  1.2930 -0.3095
  706TIP3   OH2 2123   3.600   5.060   2.467  0.3621 -0.2777  0.2345
  706TIP3    H1 2124   3.520   5.081   2.419  1.3546  1.4656 -0.7673
  706TIP3    H2 2125   3.587   4.970   2.496 -1.3771 -0.5127 -1.0859
  707TIP3   OH2 2126   4.624   5.843   4.394 -0.0582 -0.2172 -0.0750
  707TIP3    H1 2127   4.541   5.808   4.427  0.5018 -2.0669 -0.4941
  707TIP3    H2 2128   4.622   5.823   4.300  1.2822 -1.2455  0.0825
  708TIP3   OH2 2129   0.114   3.106   2.079  0.0983 -0.2852 -0.3332
  708TIP3    H1 2130   0.158   3.179   2.121  0.0504 -0.5713  0.2122
  708TIP3    H2 2131   0.107   3.038   2.146 -0.1733 -0.6628 -0.7293
  709TIP3   OH2 2132   2.959   3.477   1.079  0.4225  0.3456  0.2835
  709TIP3    H1 2133   2.908   3.544   1.125 -0.7678 -0.7674  0.6586
  709TIP3    H2 2134   3.043   3.519   1.062 -0.7890  2.5038 -0.9242
  710TIP3   OH2 2135   0.035   5.561   0.563 -0.1077  0.5129 -0.8842
  710TIP3    H1 2136   0.001   5.642   0.526 -0.2173  0.7092 -0.3636
  710TIP3    H2 2137   0.095   5.590   0.632 -2.0183  0.1775  1.0130
  711TIP3   OH2 2138   1.808   2.569   3.121  0.4023  0.2319 -0.0003
  711TIP3    H1 2139   1.755   2.566   3.041 -0.2787 -0.7742  0.4542
  711TIP3    H2 2140   1.898   2.559   3.091  0.0716 -1.3531 -0.6032
  712TIP3   OH2 2141   5.416   1.841   2.938 -0.2295  0.0139 -0.1088
  712TIP3    H1 2142   5.462   1.914   2.899 -0.8037  0.4085 -0.0604
  712TIP3    H2 2143   5.369   1.800   2.865  0.2401 -0.4176 -0.1679
  713TIP3   OH2 2144   1.306   2.883   4.429 -0.0753  0.3641  0.6475
  713TIP3    H1 2145   1.239   2.896   4.362  0.6903  0.2789 -0.1397
  713TIP3    H2 2146   1.265   2.825   4.493 -1.3373  1.6122  1.0224
  714TIP3   OH2 2147   4.169   4.282   3.579 -0.8399 -0.1069 -0.2128
  714TIP3    H1 2148   4.143   4.356   3.633  0.4977  0.8114 -0.7628
  714TIP3    H2 2149   4.109   4.284   3.505  0.0173  1.3198 -0.9272
  715TIP3   OH2 2150   2.836   3.163   3.173  0.1323 -0.2094  0.0667
  715TIP3    H1 2151   2.744   3.184   3.158  0.0232  0.0679  1.0510
  715TIP3    H2 2152   2.884   3.232   3.127 -0.2217  1.6557  2.2895
  716TIP3   OH2 2153   2.396   0.738   0.305  0.2270 -0.8097 -0.2733
  716TIP3    H1 2154   2.433   0.652   0.325 -2.9606 -1.6948  2.8648
  716TIP3    H2 2155   2.314   0.719   0.260 -0.0115  0.6356 -0.4970
  717TIP3   OH2 2156   1.736   1.854   4.201 -0.6001  0.0394  0.5112
  717TIP3    H1 2157   1.719   1.943   4.232 -1.1076  0.6982 -1.4903
  717TIP3    H2 2158   1.665   1.837   4.139  0.4066 -1.1300 -0.3697
  718TIP3   OH2 2159   4.642   2.688   2.751  0.3353 -0.4042  0.3921
  718TIP3    H1 2160   4.633   2.603   2.795  0.8474  0.1855  1.6763
  718TIP3    H2 2161   4.728   2.720   2.778 -0.5081  1.2569  1.2442
  719TIP3   OH2 2162   2.839   5.124   1.150 -0.4112  0.2104  0.1304
  719TIP3    H1 2163   2.904   5.068   1.107  1.1446 -0.7833  3.4061
  719TIP3    H2 2164   2.755   5.086   1.125  0.5405 -3.8333  2.0913
  720TIP3   OH2 2165   4.546   3.918   5.091 -0.4856 -0.3243  0.0703
  720TIP3    H1 2166   4.640   3.916   5.073 -1.1674 -0.8631 -4.9708
  720TIP3    H2 2167   4.519   3.826   5.086 -1.3364 -0.1553  1.2404
  721TIP3   OH2 2168   0.882   1.297   1.271 -0.9858 -0.0709  0.5645
  721TIP3    H1 2169   0.900   1.300   1.177 -1.4099  0.3835  0.4974
  721TIP3    H2 2170   0.861   1.205   1.288  1.3114 -0.6589  0.6371
  722TIP3   OH2 2171   2.806   1.581   2.303 -0.5355  0.3588  0.2588
  722TIP3    H1 2172   2.735   1.638   2.331  0.0457  1.1858  0.0908
  722TIP3    H2 2173   2.880   1.640   2.291 -0.1439 -0.3182 -0.7219
  723TIP3   OH2 2174   0.052   3.250   3.763  0.1378  0.2790 -0.0208
  723TIP3    H1 2175   0.089   3.212   3.842 -0.0200  0.6012  0.2105
  723TIP3    H2 2176   0.025   3.175   3.710 -1.3024  0.0714  0.9518
  724TIP3   OH2 2177   4.239   1.352  -0.022 -0.0657  0.2442  0.3705
  724TIP3    H1 2178   4.150   1.384  -0.033 -0.5407 -0.2962  2.2831
  724TIP3    H2 2179   4.266   1.385   0.064  0.1240 -2.7911  1.5834
  725TIP3   OH2 2180   1.632   5.015   0.069 -0.1657 -0.1347 -0.4847
  725TIP3    H1 2181   1.650   4.965   0.148 -1.7062  0.0624  0.0320
  725TIP3    H2 2182   1.539   5.001   0.053 -0.5263  2.1139 -0.6214
  726TIP3   OH2 2183   3.626   1.328   2.602 -0.1347 -0.1980 -0.2061
  726TIP3    H1 2184   3.704   1.301   2.553 -0.9517 -1.3132 -0.9623
  726TIP3    H2 2185   3.658   1.346   2.690  1.2071  0.8214 -0.8689
  727TIP3   OH2 2186   6.218   0.988   1.157 -0.3307  0.2780 -0.0330
  727TIP3    H1 2187   6.205   0.919   1.091 -1.3201 -0.4216  0.8521
  727TIP3    H2 2188   6.275   0.947   1.223  1.1032  1.1519 -0.6784
  728TIP3   OH2 2189   1.224   5.344   1.160 -0.2301 -0.5128 -0.1433
  728TIP3    H1 2190   1.149   5.308   1.206 -0.3421  0.2633  0.3039
  728TIP3    H2 2191   1.273   5.268   1.129  0.5041 -1.1314  2.3084
  729TIP3   OH2 2192   3.658   4.759   1.932 -0.0422  0.2549  0.0263
  729TIP3    H1 2193   3.649   4.798   1.846  1.5916 -0.6047 -0.5781
  729TIP3    H2 2194   3.673   4.833   1.991 -1.1554  0.8438 -0.4062
  730TIP3   OH2 2195   3.702   4.532   2.553  0.3674  0.3033  0.4098
  730TIP3    H1 2196   3.622   4.480   2.545  0.6458  0.1011 -1.4219
  730TIP3    H2 2197   3.764   4.474   2.597 -0.4058  0.3817  1.6408
  731TIP3   OH2 2198   5.279   3.928   5.185  0.4973 -0.0769  0.1840
  731TIP3    H1 2199   5.318   3.858   5.132  1.2646 -0.2533  0.9736
  731TIP3    H2 2200   5.303   4.009   5.139 -0.3029 -0.3024 -0.6745
  732TIP3   OH2 2201   4.287   3.989   4.976  0.6878  0.1454 -0.6394
  732TIP3    H1 2202   4.380   3.984   4.998  0.7069  2.4416  0.0781
  732TIP3    H2 2203   4.285   3.980   4.880  1.5504 -0.6457 -0.6029
  733TIP3   OH2 2204   3.774   4.977   3.653  0.2181 -0.3676  0.0582
  733TIP3    H1 2205   3.690   5.009   3.621  0.4444  0.3899  0.1874
  733TIP3    H2 2206   3.752   4.903   3.709 -0.3836 -0.0136  0.2986
  734TIP3   OH2 2207   3.264   4.064   0.690 -0.0784 -0.0394 -0.3358
  734TIP3    H1 2208   3.199   4.036   0.755  0.9150  0.2963  0.8340
  734TIP3    H2 2209   3.292   3.983   0.648 -1.2940 -0.1845 -0.9375
  735TIP3   OH2 2210   1.595   2.617   3.808 -0.0652 -0.1903  0.8050
  735TIP3    H1 2211   1.521   2.660   3.851  0.4739  2.5363 -0.7483
  735TIP3    H2 2212   1.599   2.658   3.721  1.3422 -2.5546 -0.3394
  736TIP3   OH2 2213   2.962   4.564   1.554 -0.0677 -0.1477 -0.1687
  736TIP3    H1 2214   2.950   4.514   1.473 -0.9386  1.8267 -1.3541
  736TIP3    H2 2215   3.052   4.596   1.549  0.7516 -2.1015  0.9648
  737TIP3   OH2 2216   4.123  -0.008   2.922  0.5098  0.2319 -0.0660
  737TIP3    H1 2217   4.094   0.083   2.921  0.8098  0.3663  1.3704
  737TIP3    H2 2218   4.193  -0.012   2.857  1.6022  1.4202  1.0005
  738TIP3   OH2 2219   1.502   1.006   4.328  0.4121  0.2455 -0.0159
  738TIP3    H1 2220   1.497   1.101   4.341  0.5946  0.3636 -0.7592
  738TIP3    H2 2221   1.593   0.989   4.305  0.1501  0.0295 -0.9192
  739TIP3   OH2 2222   2.603   5.853   0.740 -0.5756 -0.1407  0.1140
  739TIP3    H1 2223   2.532   5.913   0.718 -0.3707  0.6351  1.4215
  739TIP3    H2 2224   2.560   5.783   0.790 -0.4434  0.3725  0.9790
  740TIP3   OH2 2225   4.236   4.364   4.582 -0.2088  0.0759 -0.5298
  740TIP3    H1 2226   4.160   4.340   4.636 -0.2605 -0.3234 -0.7752
  740TIP3    H2 2227   4.289   4.420   4.639  0.0873 -0.9014  0.1864
  741TIP3   OH2 2228   0.773   3.998   1.429 -0.3136 -0.3140 -0.0368
  741TIP3    H1 2229   0.801   4.089   1.426 -0.6605 -0.1965  0.1273
  741TIP3    H2 2230   0.796   3.962   1.344 -1.2644  0.2625 -0.5564
  742TIP3   OH2 2231   3.126   5.492   0.558 -0.0277 -0.0966 -0.3319
  742TIP3    H1 2232   3.117   5.403   0.592 -1.6447  0.9545  2.2342
  742TIP3    H2 2233   3.206   5.525   0.599  0.1024 -0.0656 -0.6064
  743TIP3   OH2 2234   3.159   1.236   0.337  0.4967 -0.0509 -0.2979
  743TIP3    H1 2235   3.088   1.299   0.349  0.1134 -0.3754 -0.8144
  743TIP3    H2 2236   3.129   1.157   0.382  1.0856  0.2018  0.5636
  744TIP3   OH2 2237   3.142   1.766   4.276 -0.4440 -0.0595 -0.0364
  744TIP3    H1 2238   3.047   1.770   4.281 -0.4447  1.1090 -0.7409
  744TIP3    H2 2239   3.160   1.682   4.234 -1.2544  0.5794 -1.7197
  745TIP3   OH2 2240   3.568   2.343   0.356 -0.0239  0.0447  0.2544
  745TIP3    H1 2241   3.636   2.364   0.420 -0.8742 -1.2941  1.6949
  745TIP3    H2 2242   3.592   2.256   0.324 -0.5826 -0.0726  0.1402
  746TIP3   OH2 2243   4.890   0.698   4.321 -0.1689 -0.2424 -0.2844
  746TIP3    H1 2244   4.982   0.703   4.348  0.1664 -0.0050 -1.4247
  746TIP3    H2 2245   4.893   0.682   4.227 -1.3010 -0.0083 -0.3789
  747TIP3   OH2 2246   5.135   2.848   3.421  0.0162  0.5449  0.1000
  747TIP3    H1 2247   5.188   2.771   3.399 -0.8160 -0.8247  2.4459
  747TIP3    H2 2248   5.194   2.922   3.408  0.7515 -0.3680 -2.6015
  748TIP3   OH2 2249   0.379   2.480   4.835  0.0102  0.2896  0.0070
  748TIP3    H1 2250   0.419   2.430   4.906 -3.6378  0.2623  2.2993
  748TIP3    H2 2251   0.338   2.556   4.878 -0.1025  1.7761 -2.4772
  749TIP3   OH2 2252   4.095   4.574   3.506 -0.5301  0.4806  0.4139
  749TIP3    H1 2253   4.017   4.582   3.451 -0.7872  1.0874  0.8580
  749TIP3    H2 2254   4.061   4.563   3.595 -0.1413 -1.6073  0.3596
  750TIP3   OH2 2255   5.904   3.286   4.724  0.1155 -0.7286 -0.2536
  750TIP3    H1 2256   5.890   3.205   4.773 -1.3148 -0.9403 -0.9563
  750TIP3    H2 2257   5.848   3.351   4.768  1.6598  0.0596  0.6410
  751TIP3   OH2 2258   2.110   4.066   5.154  0.2103 -0.1957 -0.1113
  751TIP3    H1 2259   2.084   4.032   5.239  0.7755  1.1555  0.6416
  751TIP3    H2 2260   2.034   4.054   5.098 -0.9877  0.8944  1.1981
  752TIP3   OH2 2261   5.230   0.369   1.051  0.2436  0.8295 -0.0335
  752TIP3    H1 2262   5.208   0.332   0.965  0.4174 -0.0502  0.2814
  752TIP3    H2 2263   5.146   0.379   1.095 -0.0827  3.4016 -1.0861
  753TIP3   OH2 2264   1.094   4.789   3.094 -0.1693 -0.1689 -0.3092
  753TIP3    H1 2265   1.023   4.839   3.132 -0.8143 -1.1338 -0.2037
  753TIP3    H2 2266   1.073   4.698   3.114  1.1676 -0.4651 -0.1558
  754TIP3   OH2 2267   2.184   4.884   2.846  0.1126 -0.2397 -0.2460
  754TIP3    H1 2268   2.186   4.791   2.821  0.4621 -0.3123  0.0540
  754TIP3    H2 2269   2.223   4.887   2.933  1.4093  0.3671 -0.8265
  755TIP3   OH2 2270   5.797   3.980   4.149 -0.1146  0.0143  0.0981
  755TIP3    H1 2271   5.858   4.021   4.089 -1.3356 -0.0379 -1.2319
  755TIP3    H2 2272   5.841   3.900   4.178  0.6104  0.1939 -0.4995
  756TIP3   OH2 2273   1.416   3.136   1.268  0.8215 -0.3807  0.2737
  756TIP3    H1 2274   1.385   3.188   1.194 -0.8594 -1.2911  0.2704
  756TIP3    H2 2275   1.372   3.174   1.344  0.4212 -1.0973  0.4134
  757TIP3   OH2 2276   5.291   4.661   4.287  0.5114 -0.3937  0.7718
  757TIP3    H1 2277   5.267   4.666   4.195  0.2788 -0.5087  0.8249
  757TIP3    H2 2278   5.384   4.681   4.289  0.8332 -1.7285  0.3489
  758TIP3   OH2 2279   0.010   4.572   3.674  0.0171 -0.5630  0.0479
  758TIP3    H1 2280   0.025   4.543   3.584 -0.4249 -2.6251  0.5911
  758TIP3    H2 2281   0.098   4.574   3.713  0.0115 -1.6283  0.1239
  759TIP3   OH2 2282   4.617   4.063   0.190 -0.6631 -0.0735 -0.4516
  759TIP3    H1 2283   4.545   4.000   0.196 -0.1219 -0.6663  0.0646
  759TIP3    H2 2284   4.611   4.114   0.271 -1.9877  1.5603 -1.5164
  760TIP3   OH2 2285   2.763   3.398   2.441 -0.2042  0.7250  0.0858
  760TIP3    H1 2286   2.678   3.421   2.404  0.2333  2.6700  0.1895
  760TIP3    H2 2287   2.789   3.476   2.491  1.5784  0.1185  0.1581
  761TIP3   OH2 2288   0.463   4.028   3.973  0.0390 -0.2247  0.5082
  761TIP3    H1 2289   0.393   4.081   4.011 -0.0093 -0.7076  1.0999
  761TIP3    H2 2290   0.509   4.088   3.914 -0.9540  0.0584  0.0061
  762TIP3   OH2 2291   4.680   4.394   5.075  0.0501 -0.9286 -0.1859
  762TIP3    H1 2292   4.719   4.378   5.161  0.6864 -0.3475 -0.3488
  762TIP3    H2 2293   4.686   4.310   5.029  1.9696 -0.6787 -0.5148
  763TIP3   OH2 2294   5.249   0.233   4.633 -0.4605 -0.3059  0.2046
  763TIP3    H1 2295   5.316   0.178   4.593 -1.1094 -1.4379  0.6356
  763TIP3    H2 2296   5.296   0.311   4.663  0.9065 -1.6134  1.6111
  764TIP3   OH2 2297   4.084   1.377   2.910  0.0821 -0.5447  0.0777
  764TIP3    H1 2298   4.044   1.295   2.938 -1.2240  0.0152 -0.0450
  764TIP3    H2 2299   4.063   1.383   2.816 -0.9465  0.4993  0.3446
  765TIP3   OH2 2300   1.602   5.443   2.869  0.6599 -0.0161  0.1571
  765TIP3    H1 2301   1.561   5.367   2.911 -0.9368  1.7326  1.9139
  765TIP3    H2 2302   1.529   5.500   2.846  1.7937  0.7895 -1.6421
  766TIP3   OH2 2303   1.594   3.640   3.489  0.5183  0.0097  0.4105
  766TIP3    H1 2304   1.653   3.662   3.562  0.0769  0.3150  0.6791
  766TIP3    H2 2305   1.546   3.563   3.519  0.6682 -0.1444  0.2548
  767TIP3   OH2 2306   5.467   3.525   4.296  0.0240 -0.2880 -0.2222
  767TIP3    H1 2307   5.416   3.600   4.327  0.1395 -0.3659  0.1644
  767TIP3    H2 2308   5.555   3.559   4.283 -0.4220  0.2145 -2.3293
  768TIP3   OH2 2309   5.944   5.251   4.492 -1.0942  0.2257  0.2203
  768TIP3    H1 2310   6.024   5.303   4.489 -0.8813 -0.1003  0.1093
  768TIP3    H2 2311   5.907   5.270   4.578 -0.3837 -0.3568  0.6705
  769TIP3   OH2 2312   4.990   4.727   1.771  0.1746  0.1706 -0.2790
  769TIP3    H1 2313   4.924   4.770   1.824  1.2522  0.5079  0.8365
  769TIP3    H2 2314   4.941   4.663   1.719 -0.9296 -0.1891  1.1342
  770TIP3   OH2 2315   0.759   5.070   1.288  0.0012 -0.1563  0.1590
  770TIP3    H1 2316   0.665   5.078   1.305 -0.4195  1.2760 -2.3122
  770TIP3    H2 2317   0.764   5.022   1.206  1.4342 -0.0176  0.1383
  771TIP3   OH2 2318   2.293   3.424   3.186  0.1454 -0.3221 -0.1460
  771TIP3    H1 2319   2.290   3.520   3.189  0.6746 -0.3004 -0.2538
  771TIP3    H2 2320   2.318   3.398   3.274 -0.6035 -0.3952  0.0563
  772TIP3   OH2 2321   0.522   0.268   0.828  0.4956  0.6227 -0.2037
  772TIP3    H1 2322   0.535   0.238   0.918 -2.2195 -0.6444 -0.1199
  772TIP3    H2 2323   0.536   0.189   0.775  0.4123  0.9568 -0.7218
  773TIP3   OH2 2324   2.922   1.864   3.155  0.3058 -0.5375 -0.2526
  773TIP3    H1 2325   2.877   1.793   3.108 -0.2776 -0.0966 -0.3551
  773TIP3    H2 2326   3.014   1.852   3.131  0.0575 -0.4917 -1.3130
  774TIP3   OH2 2327   5.067   2.375   4.959 -0.0345  0.5529  0.2724
  774TIP3    H1 2328   5.123   2.333   5.025  1.1717  0.8360 -0.5383
  774TIP3    H2 2329   5.032   2.452   5.004  0.9448  0.8654  0.5409
  775TIP3   OH2 2330   3.148   2.591   2.571  0.3099  0.0178 -0.7788
  775TIP3    H1 2331   3.073   2.641   2.539  0.2922  0.9961  0.6626
  775TIP3    H2 2332   3.109   2.512   2.609 -0.0969  0.8206  0.5475
  776TIP3   OH2 2333   3.491   3.999   2.843 -0.4979  0.0067  0.5592
  776TIP3    H1 2334   3.574   4.038   2.814 -1.1714  0.2742 -1.1130
  776TIP3    H2 2335   3.506   3.905   2.838 -0.0255  0.0468  1.1128
  777TIP3   OH2 2336   3.999   0.862   3.964 -0.1727  0.0129  0.3151
  777TIP3    H1 2337   4.078   0.897   4.005 -0.4279  1.6272 -0.5091
  777TIP3    H2 2338   3.970   0.931   3.905 -2.1131 -0.6105  0.4756
  778TIP3   OH2 2339   1.042   0.393   4.025  0.3876  0.2867  0.2027
  778TIP3    H1 2340   1.060   0.486   4.038  1.3690  0.0633  0.4757
  778TIP3    H2 2341   0.946   0.389   4.017  0.4287  1.5178 -1.4714
  779TIP3   OH2 2342   4.617   1.754   1.995  0.2554  0.6392  0.0779
  779TIP3    H1 2343   4.636   1.725   1.906  1.6454  0.5995  0.3588
  779TIP3    H2 2344   4.614   1.850   1.989  0.9495  0.6643  0.0893
  780TIP3   OH2 2345   4.735   4.089   2.664  0.2565 -0.3151 -0.4328
  780TIP3    H1 2346   4.718   4.142   2.586 -0.5451  0.4286  0.2256
  780TIP3    H2 2347   4.649   4.059   2.693  0.4281  0.2220  0.7030
  781TIP3   OH2 2348   4.104   3.462   3.200  1.0436  0.0115 -0.0727
  781TIP3    H1 2349   4.081   3.499   3.285  0.5475 -0.1824 -0.1174
  781TIP3    H2 2350   4.061   3.519   3.136 -0.3568 -1.0407 -0.1186
  782TIP3   OH2 2351   0.741   1.765   4.462 -0.1575  0.6045  0.2489
  782TIP3    H1 2352   0.694   1.712   4.399 -1.6214 -0.1714  1.9025
  782TIP3    H2 2353   0.829   1.774   4.426  0.3024 -3.2542  0.0183
  783TIP3   OH2 2354   3.829   2.079   0.352  0.0305 -0.1261  0.7220
  783TIP3    H1 2355   3.859   2.051   0.438  0.7400 -0.4326  0.3774
  783TIP3    H2 2356   3.800   1.999   0.309  1.2714 -0.2384  0.0491
  784TIP3   OH2 2357   0.490   3.232   2.161  0.3761  0.4060 -0.0472
  784TIP3    H1 2358   0.509   3.227   2.068  0.6379  0.1581  0.0165
  784TIP3    H2 2359   0.568   3.194   2.203  0.4254  0.8718  0.2829
  785TIP3   OH2 2360   1.730   3.104   2.259 -0.3054  0.0916 -0.5540
  785TIP3    H1 2361   1.771   3.188   2.281 -0.5302 -0.1303  0.8260
  785TIP3    H2 2362   1.804   3.049   2.231  0.2499 -0.0206  1.0230
  786TIP3   OH2 2363   5.534   3.094   2.070  0.6394  0.1744  0.2130
  786TIP3    H1 2364   5.450   3.063   2.105  0.9772  1.6880  2.5057
  786TIP3    H2 2365   5.600   3.055   2.127  1.4077  0.5411 -0.4000
  787TIP3   OH2 2366   0.841   1.504   5.044  0.0378  1.0237  0.3120
  787TIP3    H1 2367   0.912   1.449   5.078  0.7421  1.6407 -0.1430
  787TIP3    H2 2368   0.885   1.583   5.012 -0.8865  1.5427  0.2911
  788TIP3   OH2 2369   5.086   0.745   2.110 -0.3268  0.2165 -0.4127
  788TIP3    H1 2370   5.136   0.683   2.059 -1.0104 -1.3755  0.7626
  788TIP3    H2 2371   5.014   0.694   2.146 -1.8056  2.0312 -0.6150
  789TIP3   OH2 2372   0.060   2.288   1.339 -0.0086  0.4707 -0.2354
  789TIP3    H1 2373   0.042   2.194   1.344 -0.0119  0.5220  1.1045
  789TIP3    H2 2374   0.022   2.324   1.419  1.4751  1.3594  0.1171
  790TIP3   OH2 2375   3.110   1.830   0.125 -0.3640 -0.0012 -0.3815
  790TIP3    H1 2376   3.050   1.773   0.076  0.3865  0.7105 -2.2091
  790TIP3    H2 2377   3.143   1.891   0.059  0.8696  0.8664  1.0033
  791TIP3   OH2 2378   2.123   4.250   2.872  0.1333 -0.2424  0.4481
  791TIP3    H1 2379   2.035   4.225   2.899  1.0108 -3.6097  0.6376
  791TIP3    H2 2380   2.149   4.318   2.934 -2.5025  1.2936 -0.0100
  792TIP3   OH2 2381   1.970   2.627   1.287  0.1300 -0.1926 -0.1983
  792TIP3    H1 2382   2.023   2.673   1.222 -0.1438 -1.6572 -1.5283
  792TIP3    H2 2383   2.001   2.537   1.284 -1.4087 -0.7685  0.0713
  793TIP3   OH2 2384   1.972   0.753   1.301 -0.5092 -0.1346  0.6026
  793TIP3    H1 2385   1.946   0.675   1.252 -1.7446  0.6666 -0.0672
  793TIP3    H2 2386   2.056   0.729   1.342 -0.4362 -1.4975 -0.2879
  794TIP3   OH2 2387   3.264   5.355   3.719 -0.0364 -0.0590  0.0279
  794TIP3    H1 2388   3.330   5.421   3.739  0.7228 -0.2298 -1.7154
  794TIP3    H2 2389   3.245   5.313   3.803  2.2330 -0.1220  0.5615
  795TIP3   OH2 2390   1.488   1.154   1.608 -0.2987  0.8967  0.3591
  795TIP3    H1 2391   1.431   1.161   1.531  0.3295 -3.7645 -0.8033
  795TIP3    H2 2392   1.571   1.193   1.580 -0.5941  0.7741 -0.7268
  796TIP3   OH2 2393   5.103   2.208   0.897  0.2392  0.0546  0.0803
  796TIP3    H1 2394   5.127   2.232   0.987  1.2461  0.2279 -0.2279
  796TIP3    H2 2395   5.098   2.112   0.900 -2.6429  0.1266  1.0175
  797TIP3   OH2 2396   3.501   5.477   0.152 -0.1231 -0.7867 -0.1816
  797TIP3    H1 2397   3.509   5.557   0.098  0.3654 -0.9565 -0.3634
  797TIP3    H2 2398   3.565   5.416   0.114  2.7431  0.2051  2.6048
  798TIP3   OH2 2399   2.027   3.176   2.089 -0.2649  0.1035  0.0381
  798TIP3    H1 2400   2.038   3.140   2.177  1.1430 -1.2723 -0.6464
  798TIP3    H2 2401   2.044   3.270   2.099 -2.9785  0.5320  1.6912
  799TIP3   OH2 2402   3.033   5.245   4.421 -0.1379  0.1987 -0.0630
  799TIP3    H1 2403   3.100   5.272   4.359  0.7737  0.3227  0.9354
  799TIP3    H2 2404   3.059   5.157   4.447 -0.3603  0.2480  0.3361
  800TIP3   OH2 2405   0.672   1.376   3.578 -0.2099  0.5683 -0.3574
  800TIP3    H1 2406   0.644   1.459   3.615  0.9510  2.0549 -2.6143
  800TIP3    H2 2407   0.751   1.353   3.628  0.0814  1.4027 -0.4150
  801TIP3   OH2 2408   1.731   4.256   0.333 -0.0001 -0.1680 -0.1770
  801TIP3    H1 2409   1.652   4.276   0.284 -0.3116  0.2226  0.4759
  801TIP3    H2 2410   1.791   4.218   0.269 -0.3938  0.3593 -0.8596
  802TIP3   OH2 2411   5.921   2.851   3.363  0.0859 -0.6241 -0.0364
  802TIP3    H1 2412   5.969   2.934   3.363 -1.2076  0.1437  0.5078
  802TIP3    H2 2413   5.905   2.834   3.270 -3.9213  2.3615 -0.1472
  803TIP3   OH2 2414   5.556   0.842   4.131  0.0737  0.0383 -0.1764
  803TIP3    H1 2415   5.584   0.806   4.215  0.0190  0.1871 -0.0956
  803TIP3    H2 2416   5.482   0.898   4.152 -0.0488 -0.0591 -0.3446
  804TIP3   OH2 2417   4.458   5.711   2.909  0.1444 -0.0602  0.1058
  804TIP3    H1 2418   4.498   5.785   2.955 -2.0500  0.6922  0.9398
  804TIP3    H2 2419   4.370   5.741   2.887 -0.6379 -2.2319 -0.0072
  805TIP3   OH2 2420   3.778   3.748   2.637  0.1460 -0.1205 -0.6710
  805TIP3    H1 2421   3.686   3.765   2.616 -0.2594  1.7651  2.0468
  805TIP3    H2 2422   3.797   3.664   2.595 -2.8997 -0.7145 -1.1239
  806TIP3   OH2 2423   0.780   0.529   0.554  0.6243  0.0319 -0.2375
  806TIP3    H1 2424   0.811   0.483   0.476 -0.8604  0.0047 -0.8496
  806TIP3    H2 2425   0.796   0.622   0.534  0.8162 -0.0120 -0.2963
  807TIP3   OH2 2426   2.700   4.498   3.600  0.1865  0.8628  0.2256
  807TIP3    H1 2427   2.609   4.525   3.606 -0.5546 -0.7867 -2.1841
  807TIP3    H2 2428   2.749   4.580   3.588 -1.3343  1.5872 -1.3982
  808TIP3   OH2 2429   4.995   4.536   1.330 -0.1941  0.5345  0.8733
  808TIP3    H1 2430   5.003   4.472   1.402  0.0139  0.5620  0.8750
  808TIP3    H2 2431   4.901   4.550   1.321 -0.4005 -1.4366 -0.5982
  809TIP3   OH2 2432   3.205   2.522   1.620 -0.2162 -0.3770 -0.1120
  809TIP3    H1 2433   3.171   2.462   1.686  1.3974 -4.6897 -2.7631
  809TIP3    H2 2434   3.287   2.555   1.655 -0.6549 -0.4334  0.9988
  810TIP3   OH2 2435   5.967   1.823   4.633  0.6560  0.2634 -0.2602
  810TIP3    H1 2436   6.019   1.901   4.654  0.9024 -0.0457  0.2901
  810TIP3    H2 2437   5.989   1.760   4.701  1.6525 -0.8584 -1.5591
  811TIP3   OH2 2438   4.417   0.154   1.597  0.3808 -0.3643 -0.4096
  811TIP3    H1 2439   4.375   0.074   1.566  2.6389 -1.9569  0.3713
  811TIP3    H2 2440   4.422   0.143   1.692 -1.5805  1.9471  0.0423
  812TIP3   OH2 2441   3.506   5.632   3.089 -0.2060  0.3716  0.1675
  812TIP3    H1 2442   3.593   5.595   3.100 -0.3814 -0.0463  0.1563
  812TIP3    H2 2443   3.474   5.596   3.006  0.9090  3.0855 -1.5895
  813TIP3   OH2 2444   2.968   2.225   2.475  0.4309 -0.4466 -0.1413
  813TIP3    H1 2445   3.037   2.219   2.409  0.2203 -1.4427 -0.2844
  813TIP3    H2 2446   2.956   2.135   2.506  1.8643  0.1923  2.6463
  814TIP3   OH2 2447   5.747   4.679   3.277 -0.1231 -0.3980  0.7112
  814TIP3    H1 2448   5.691   4.629   3.217 -1.0654 -0.0291  1.2647
  814TIP3    H2 2449   5.760   4.763   3.234 -0.1758 -0.4026  0.6868
  815TIP3   OH2 2450   4.368   5.316   4.367 -0.1943 -0.0373 -0.3507
  815TIP3    H1 2451   4.353   5.340   4.458  1.8167 -1.4568  0.4135
  815TIP3    H2 2452   4.295   5.259   4.344 -0.0542 -0.7013  0.8006
  816TIP3   OH2 2453   2.014   3.783   0.394  0.1986  0.7724  0.1452
  816TIP3    H1 2454   2.049   3.764   0.481 -0.3188 -0.8231  0.0361
  816TIP3    H2 2455   1.924   3.750   0.395  0.2355  0.5600 -1.0309
  817TIP3   OH2 2456   5.192   5.400   2.646  0.0567 -0.1304 -0.0201
  817TIP3    H1 2457   5.213   5.451   2.725  0.2600 -0.0475 -0.1241
  817TIP3    H2 2458   5.098   5.386   2.650 -0.6631  3.1877 -1.6770
  818TIP3   OH2 2459   5.905   1.416   0.293 -0.1741  0.3024 -0.0254
  818TIP3    H1 2460   5.959   1.424   0.372 -0.5879  1.7005  0.1412
  818TIP3    H2 2461   5.968   1.405   0.222  0.1903 -1.5788  0.5276
  819TIP3   OH2 2462   4.504   4.858   3.421 -0.2189 -0.1706  0.4045
  819TIP3    H1 2463   4.480   4.843   3.330 -1.2096 -2.0211  0.9126
  819TIP3    H2 2464   4.456   4.791   3.470  0.2861  0.7640  2.2966
  820TIP3   OH2 2465   6.333   4.741   4.023  0.4071 -0.4367 -0.2508
  820TIP3    H1 2466   6.310   4.652   4.052 -0.4996 -0.0818  0.1568
  820TIP3    H2 2467   6.366   4.784   4.102  0.5032 -0.3052 -0.3634
  821TIP3   OH2 2468   4.760   4.268   4.378  0.2944  0.2201  0.2646
  821TIP3    H1 2469   4.724   4.309   4.299 -1.6890 -0.9164  0.5078
  821TIP3    H2 2470   4.716   4.312   4.451  1.1334  0.3682  0.6958
  822TIP3   OH2 2471   5.026   4.473   4.106  0.2724  0.5602 -0.3113
  822TIP3    H1 2472   5.114   4.487   4.071 -0.0910  1.8189 -0.7994
  822TIP3    H2 2473   4.997   4.391   4.068  0.7201  0.8280 -1.2551
  823TIP3   OH2 2474   2.095   0.843   1.726 -0.2075 -0.5469  1.2460
  823TIP3    H1 2475   2.089   0.875   1.816 -0.4291 -0.9331  1.3727
  823TIP3    H2 2476   2.020   0.883   1.681 -0.6143 -1.0521  1.4596
  824TIP3   OH2 2477   3.523   2.622   1.712  0.2085 -0.5350  0.3727
  824TIP3    H1 2478   3.527   2.582   1.799  1.3048 -1.8431 -0.2358
  824TIP3    H2 2479   3.509   2.548   1.653 -0.3394  0.3190 -0.5894
  825TIP3   OH2 2480   4.524   4.345   1.035  0.0456  0.0628 -0.3879
  825TIP3    H1 2481   4.486   4.266   1.075  0.3037  0.5359  0.8442
  825TIP3    H2 2482   4.564   4.314   0.954 -1.0038 -0.8411 -0.5894
  826TIP3   OH2 2483   0.968   0.842   3.998 -0.3377  0.4332 -0.2030
  826TIP3    H1 2484   0.980   0.787   4.076 -0.2039  2.0253  0.9474
  826TIP3    H2 2485   1.032   0.912   4.009 -1.9395  1.9914 -0.5292
  827TIP3   OH2 2486   2.910   0.648   4.810 -0.1494  0.3745 -0.3075
  827TIP3    H1 2487   2.866   0.569   4.838  0.2117  0.4681  0.5429
  827TIP3    H2 2488   2.960   0.622   4.732 -0.2320 -0.1673 -0.1768
  828TIP3   OH2 2489   3.700   2.004   2.333  0.0013  0.0739 -0.0329
  828TIP3    H1 2490   3.747   2.037   2.410  1.6100 -0.9438 -0.5401
  828TIP3    H2 2491   3.719   1.911   2.331 -0.7063 -0.0637 -1.2262
  829TIP3   OH2 2492   3.388   5.400   1.662  0.3063  0.3412 -0.1088
  829TIP3    H1 2493   3.363   5.369   1.749 -1.4942 -1.5407 -1.1955
  829TIP3    H2 2494   3.307   5.397   1.611  1.4671  0.4935 -2.0759
  830TIP3   OH2 2495   5.094   1.239   1.438  0.0726  0.5871  0.6807
  830TIP3    H1 2496   5.163   1.239   1.504  0.4482 -0.6070  0.3045
  830TIP3    H2 2497   5.020   1.195   1.480  0.2985 -0.1386  0.3249
  831TIP3   OH2 2498   3.539   1.524   4.214 -0.0733 -0.3356  0.0292
  831TIP3    H1 2499   3.455   1.480   4.215 -0.4771  0.2975 -2.0679
  831TIP3    H2 2500   3.527   1.601   4.271 -0.1404 -1.4577  1.6072
  832TIP3   OH2 2501   4.205   1.011   2.822  0.3945  0.0653  0.1120
  832TIP3    H1 2502   4.136   1.065   2.859  0.6785 -0.3881  1.3582
  832TIP3    H2 2503   4.238   0.959   2.896  2.3931  0.6221 -0.3223
  833TIP3   OH2 2504   0.477   3.826   1.696  0.2031 -0.5476 -0.3706
  833TIP3    H1 2505   0.564   3.858   1.676 -0.3063 -0.3573 -2.5561
  833TIP3    H2 2506   0.490   3.734   1.720  1.0337 -0.4072 -0.2694
  834TIP3   OH2 2507   3.766   3.385   1.345  0.2262 -0.0604  0.6786
  834TIP3    H1 2508   3.803   3.472   1.357  0.3463 -0.2279  1.5999
  834TIP3    H2 2509   3.685   3.400   1.296 -0.5210  0.7475  2.0792
  835TIP3   OH2 2510   4.769   4.369   0.456 -0.2540 -0.2021 -0.9929
  835TIP3    H1 2511   4.737   4.445   0.506  2.0389 -1.7404  3.2882
  835TIP3    H2 2512   4.861   4.390   0.437 -0.1707 -1.0777 -1.6133
  836TIP3   OH2 2513   3.783   2.459   4.060  0.4656 -0.1530  0.6064
  836TIP3    H1 2514   3.701   2.429   4.098 -0.0362 -0.5483 -0.7360
  836TIP3    H2 2515   3.778   2.434   3.968  1.0978  1.8352 -0.0300
  837TIP3   OH2 2516   3.344   3.557   3.181 -0.4750  0.1893 -1.0047
  837TIP3    H1 2517   3.289   3.549   3.104 -1.1396 -0.6755 -0.4608
  837TIP3    H2 2518   3.386   3.471   3.190 -1.2060 -0.0819  0.1570
  838TIP3   OH2 2519   2.494   3.873   3.685 -0.0149  0.8491 -0.1022
  838TIP3    H1 2520   2.414   3.857   3.635 -0.5103 -0.1917  0.9805
  838TIP3    H2 2521   2.543   3.936   3.632 -1.2876  1.0762 -1.0580
  839TIP3   OH2 2522   2.622   2.721   3.472  0.6464  0.0198 -0.4528
  839TIP3    H1 2523   2.565   2.722   3.549 -0.4104  0.6828 -1.2179
  839TIP3    H2 2524   2.568   2.758   3.402  0.9213 -2.3024 -1.9882
  840TIP3   OH2 2525   5.224   2.760   3.948  0.5849  0.5531 -0.1053
  840TIP3    H1 2526   5.172   2.734   4.025  0.6261  1.7049  0.3386
  840TIP3    H2 2527   5.258   2.678   3.913  0.0402 -0.0514  0.7323
  841TIP3   OH2 2528   3.195   3.669   4.093 -0.5725  0.5973 -0.1686
  841TIP3    H1 2529   3.196   3.643   4.185 -0.1574  1.1823 -0.0011
  841TIP3    H2 2530   3.120   3.623   4.055 -0.4238 -0.0670  0.3375
  842TIP3   OH2 2531   4.621   3.415   5.008 -0.3528 -0.1034 -0.2427
  842TIP3    H1 2532   4.649   3.481   5.071 -0.9534  0.1801 -0.2632
  842TIP3    H2 2533   4.688   3.418   4.939 -0.4522  0.6016 -0.3216
  843TIP3   OH2 2534   1.353   5.584   3.782  0.0648 -0.4884  0.3905
  843TIP3    H1 2535   1.311   5.660   3.742 -0.8850 -1.2361 -0.0739
  843TIP3    H2 2536   1.314   5.578   3.869  1.9959  1.0281  1.4314
  844TIP3   OH2 2537   3.332   3.868   2.047 -0.3104 -0.3114  0.3190
  844TIP3    H1 2538   3.425   3.844   2.053 -0.2883  0.0975  2.0843
  844TIP3    H2 2539   3.329   3.935   1.979  0.9595  0.8147  1.3064
  845TIP3   OH2 2540   3.562   5.608   4.081 -0.4273 -0.4919  0.2381
  845TIP3    H1 2541   3.499   5.609   4.009 -0.1296 -0.7017 -0.0261
  845TIP3    H2 2542   3.512   5.572   4.155 -1.1336  0.9887  0.5208
  846TIP3   OH2 2543   1.385   3.770   1.458  0.3104  0.1533 -0.2372
  846TIP3    H1 2544   1.429   3.694   1.421  1.8912  0.1648  1.4942
  846TIP3    H2 2545   1.294   3.762   1.428  0.4745 -2.3221 -0.2266
  847TIP3   OH2 2546   5.434   4.716   3.353  0.1062 -0.0167 -0.5204
  847TIP3    H1 2547   5.522   4.706   3.389  0.3617  1.0021 -0.8450
  847TIP3    H2 2548   5.388   4.771   3.417  0.2636  0.9671 -1.2386
  848TIP3   OH2 2549   1.098   4.602   2.223  0.3876 -0.2014  0.1075
  848TIP3    H1 2550   1.099   4.696   2.205 -3.3178  0.4184  2.0850
  848TIP3    H2 2551   1.146   4.593   2.305 -0.5340  0.2262  0.7020
  849TIP3   OH2 2552   0.728   2.274   0.418  0.1379 -0.4896 -0.2970
  849TIP3    H1 2553   0.702   2.254   0.508  1.4593  2.0414  0.7795
  849TIP3    H2 2554   0.649   2.310   0.378 -0.7322 -2.5542 -0.5177
  850TIP3   OH2 2555   0.335   2.419   2.133 -0.0575 -0.3972 -1.5456
  850TIP3    H1 2556   0.319   2.335   2.176 -1.3591 -0.0513 -1.3107
  850TIP3    H2 2557   0.424   2.443   2.159  0.0342 -1.3208 -0.9665
  851TIP3   OH2 2558   3.777   5.447   1.770  0.3219  0.0918  0.0179
  851TIP3    H1 2559   3.868   5.417   1.763  0.2503 -0.8658  2.2462
  851TIP3    H2 2560   3.735   5.411   1.692  1.9430  1.0855 -1.3944
  852TIP3   OH2 2561   1.548   4.483   3.886 -0.6607  0.0750  0.0402
  852TIP3    H1 2562   1.483   4.447   3.946 -0.2336  0.8234  0.9700
  852TIP3    H2 2563   1.497   4.541   3.828 -0.8252  0.7282  0.8202
  853TIP3   OH2 2564   4.473   2.500   3.139  0.5819 -0.3694  0.2999
  853TIP3    H1 2565   4.495   2.570   3.078 -1.0686 -0.7112 -0.7568
  853TIP3    H2 2566   4.378   2.509   3.153  0.1722 -2.8031 -0.4684
  854TIP3   OH2 2567   3.894   5.832   4.863 -0.1212 -0.5501 -0.0941
  854TIP3    H1 2568   3.821   5.868   4.813  0.6165 -0.9054 -1.4683
  854TIP3    H2 2569   3.862   5.749   4.898 -0.2680 -0.8819 -1.0028
  855TIP3   OH2 2570   4.007   0.503   3.361 -0.2769 -0.2530  0.3041
  855TIP3    H1 2571   4.065   0.578   3.376  1.5521 -1.5730  0.2515
  855TIP3    H2 2572   3.979   0.512   3.270 -0.0819  0.3636  0.2998
  856TIP3   OH2 2573   0.604   2.197   3.989  0.6618 -0.0266  0.4218
  856TIP3    H1 2574   0.656   2.253   4.047  1.1990 -0.2369  0.1552
  856TIP3    H2 2575   0.642   2.110   3.999  0.6149 -0.1081 -0.0711
  857TIP3   OH2 2576   5.082   4.084   1.022  0.0191  0.0171  0.5541
  857TIP3    H1 2577   5.069   4.129   0.938  1.1372  0.0204  0.3628
  857TIP3    H2 2578   4.996   4.050   1.045 -0.0476 -1.1412 -1.2615
  858TIP3   OH2 2579   5.194   3.236   1.666  0.1167 -0.0644  0.5019
  858TIP3    H1 2580   5.227   3.157   1.708  1.8931 -0.1115 -0.8610
  858TIP3    H2 2581   5.250   3.307   1.699 -0.0453  0.2737  0.0716
  859TIP3   OH2 2582   4.485   1.201   2.135  0.2390  0.0946 -0.6120
  859TIP3    H1 2583   4.409   1.189   2.192  0.5359  2.3585  0.3818
  859TIP3    H2 2584   4.559   1.170   2.187  0.3726  1.0984 -0.1796
  860TIP3   OH2 2585   2.257   5.638   0.703 -0.3018  0.1533 -0.1082
  860TIP3    H1 2586   2.185   5.585   0.738  0.6903  0.4358  2.6548
  860TIP3    H2 2587   2.220   5.726   0.695 -0.8662 -0.1448 -0.9141
  861TIP3   OH2 2588   1.282   2.046   3.735 -0.4219  0.2170  0.0656
  861TIP3    H1 2589   1.360   2.101   3.727 -0.6008  0.3402 -0.9914
  861TIP3    H2 2590   1.292   1.979   3.668 -0.4934 -0.7092  0.9511
  862TIP3   OH2 2591   2.393   2.900   1.119 -0.7604  0.7740  0.3672
  862TIP3    H1 2592   2.461   2.856   1.170  0.1212  0.4850 -1.0020
  862TIP3    H2 2593   2.332   2.934   1.185  1.1852  1.8832  1.7212
  863TIP3   OH2 2594   0.286   5.831   1.107  0.1021  0.1349  0.2868
  863TIP3    H1 2595   0.302   5.741   1.135 -0.4649  0.1766  0.7660
  863TIP3    H2 2596   0.306   5.831   1.013 -1.9670 -1.0305 -0.2103
  864TIP3   OH2 2597   2.474   2.770   4.154 -0.0997 -0.2010  0.0463
  864TIP3    H1 2598   2.503   2.780   4.244  0.7122  0.3629 -0.2637
  864TIP3    H2 2599   2.381   2.792   4.155 -0.1412 -0.4048  0.7776
  865TIP3   OH2 2600   1.876   3.182   0.108 -0.4002 -0.9397  0.5325
  865TIP3    H1 2601   1.938   3.228   0.164 -0.1860 -1.5225  0.7839
  865TIP3    H2 2602   1.807   3.153   0.167 -1.4971  0.6330  0.0977
  866TIP3   OH2 2603   3.136   3.465   4.602 -0.4640 -0.1587  0.0677
  866TIP3    H1 2604   3.118   3.536   4.539 -0.7526 -0.6431 -0.4079
  866TIP3    H2 2605   3.192   3.404   4.554  1.1344  0.5112  0.9962
  867TIP3   OH2 2606   1.334   5.214   0.567  0.3457  0.2651  0.1821
  867TIP3    H1 2607   1.259   5.233   0.622  1.6972 -0.0558  2.2508
  867TIP3    H2 2608   1.340   5.288   0.506 -1.1662  0.6514  0.4815
  868TIP3   OH2 2609   0.907   4.559   2.695  0.0501  0.7795  0.2219
  868TIP3    H1 2610   0.930   4.466   2.685  0.1964  0.8255  0.1261
  868TIP3    H2 2611   0.939   4.600   2.614  1.8030  1.2710  1.1351
  869TIP3   OH2 2612   0.469   3.745   3.949 -0.5123 -0.1458 -0.7897
  869TIP3    H1 2613   0.466   3.840   3.954  0.2426 -0.1572  2.1826
  869TIP3    H2 2614   0.530   3.726   3.878  1.7513  1.7321  0.5005
  870TIP3   OH2 2615   2.337   3.674   3.264 -0.0698  0.0234 -0.2275
  870TIP3    H1 2616   2.331   3.669   3.359 -1.6158 -0.1460 -0.3053
  870TIP3    H2 2617   2.351   3.767   3.246 -2.8896  0.6083  0.1060
  871TIP3   OH2 2618   1.445   0.462   1.629 -0.1228 -0.8104 -0.0347
  871TIP3    H1 2619   1.446   0.475   1.534 -0.0234 -2.8686 -0.3626
  871TIP3    H2 2620   1.362   0.416   1.645 -1.1304  1.3066  1.1876
  872TIP3   OH2 2621   0.377   4.445   2.374  0.1016  0.1561 -0.3556
  872TIP3    H1 2622   0.340   4.515   2.320  1.2365 -0.3072 -1.7760
  872TIP3    H2 2623   0.356   4.472   2.464 -2.1867  0.7426 -0.9841
  873TIP3   OH2 2624   1.602   0.412   3.258  0.1226  0.1705 -0.0072
  873TIP3    H1 2625   1.621   0.328   3.216  1.4096 -0.1810  1.1788
  873TIP3    H2 2626   1.530   0.449   3.207 -1.5303 -2.3252  0.3410
  874TIP3   OH2 2627   1.905   2.121   4.960  0.2404 -0.3135  0.2267
  874TIP3    H1 2628   1.916   2.211   4.929  0.8744 -0.8958 -1.3185
  874TIP3    H2 2629   1.990   2.099   4.999 -0.4572  0.3123  2.2423
  875TIP3   OH2 2630  -0.016   5.445   0.039 -0.2493 -0.2712  0.2710
  875TIP3    H1 2631   0.052   5.504   0.070 -0.3832  0.1782 -0.2695
  875TIP3    H2 2632  -0.005   5.365   0.091  0.2587  0.0416  0.6482
  876TIP3   OH2 2633   0.057   1.943   0.126 -0.3296 -0.1127 -0.0371
  876TIP3    H1 2634   0.137   1.893   0.142 -0.9954 -0.7594  1.4278
  876TIP3    H2 2635  -0.009   1.877   0.104 -1.1457  0.0955  1.6130
  877TIP3   OH2 2636   4.346   1.708   2.478 -0.0717 -0.1835  0.1829
  877TIP3    H1 2637   4.276   1.704   2.412 -0.0671 -0.6791  0.2029
  877TIP3    H2 2638   4.338   1.796   2.515 -0.0711  0.1030 -0.4789
  878TIP3   OH2 2639   2.741   3.011   0.407  0.0549  0.2210  0.3417
  878TIP3    H1 2640   2.780   3.051   0.330  1.9673 -2.9725 -0.5331
  878TIP3    H2 2641   2.815   2.985   0.461 -0.8316 -3.0144  0.2596
  879TIP3   OH2 2642   3.556   1.072   1.056  0.0957 -0.0151 -0.0719
  879TIP3    H1 2643   3.584   1.154   1.097 -3.1285  0.1288  2.1810
  879TIP3    H2 2644   3.629   1.012   1.072  0.7408  1.2299  2.2339
  880TIP3   OH2 2645   5.511   5.583   1.296  0.1228  0.0672  0.1199
  880TIP3    H1 2646   5.531   5.647   1.363 -0.2135 -0.7741  1.0438
  880TIP3    H2 2647   5.549   5.501   1.328 -0.6042 -0.4873 -0.3908
  881TIP3   OH2 2648   3.162   1.168   4.057 -0.1006  0.2478 -0.4406
  881TIP3    H1 2649   3.091   1.173   4.121  0.6139 -0.5769  0.4421
  881TIP3    H2 2650   3.237   1.136   4.107  0.7510  0.5741 -1.4788
  882TIP3   OH2 2651   2.670   5.416   1.042 -0.1999  0.1277 -0.2484
  882TIP3    H1 2652   2.750   5.468   1.033 -0.4236  0.5643  0.2541
  882TIP3    H2 2653   2.693   5.331   1.003  0.1370  0.6206 -1.1574
  883TIP3   OH2 2654   5.943   5.287   3.282 -0.3341 -0.6284 -1.1338
  883TIP3    H1 2655   5.993   5.357   3.239 -0.5036  0.0058 -0.3255
  883TIP3    H2 2656   5.982   5.280   3.369 -2.2942  0.5853 -0.1149
  884TIP3   OH2 2657   4.118   4.126   5.124 -0.1925  0.3746  0.5747
  884TIP3    H1 2658   4.166   4.056   5.079 -0.9047 -0.4005  0.9926
  884TIP3    H2 2659   4.026   4.105   5.108 -0.4075  1.8904 -0.2876
  885TIP3   OH2 2660   4.944   3.171   1.899  0.6775 -0.2475 -0.4403
  885TIP3    H1 2661   4.896   3.166   1.982  0.4790  1.3820 -0.4169
  885TIP3    H2 2662   5.027   3.127   1.916  0.8728  0.5400  0.8186
  886TIP3   OH2 2663   2.859   1.334   0.969 -0.1460 -0.3298  0.4954
  886TIP3    H1 2664   2.919   1.385   1.023 -1.0858  0.4609  0.8076
  886TIP3    H2 2665   2.872   1.244   0.997  1.4855 -0.2955 -0.0125
  887TIP3   OH2 2666   2.881   0.557   1.776  0.0724  0.6184  0.2794
  887TIP3    H1 2667   2.965   0.571   1.732  0.1932 -1.1886 -0.1731
  887TIP3    H2 2668   2.815   0.578   1.709  0.1706  1.4765  0.4482
  888TIP3   OH2 2669   0.531   3.198   0.446 -0.5783  1.0116 -0.7407
  888TIP3    H1 2670   0.484   3.152   0.377 -2.2715  1.5173  0.0155
  888TIP3    H2 2671   0.516   3.291   0.427  2.0361  1.3048 -1.7450
  889TIP3   OH2 2672   4.260   2.279   3.849 -0.1516 -0.2468  0.5617
  889TIP3    H1 2673   4.222   2.328   3.922 -0.1345  0.9232 -0.1893
  889TIP3    H2 2674   4.316   2.342   3.804  0.3863 -1.1423 -0.0607
  890TIP3   OH2 2675   0.359   0.038   3.292 -0.0312  0.2719  0.4076
  890TIP3    H1 2676   0.345   0.119   3.340  0.4100  0.4949  0.1648
  890TIP3    H2 2677   0.355  -0.030   3.360 -3.7207  0.1148  0.1809
  891TIP3   OH2 2678   3.656   4.323   0.096 -0.3153 -0.2544 -0.1192
  891TIP3    H1 2679   3.646   4.412   0.061  1.0193 -0.8925 -2.3432
  891TIP3    H2 2680   3.736   4.290   0.054  0.0277 -2.0160  1.7668
  892TIP3   OH2 2681   2.805   3.435   3.823 -0.0948  0.0917 -0.3685
  892TIP3    H1 2682   2.759   3.505   3.776 -0.2411 -0.4601 -1.0564
  892TIP3    H2 2683   2.745   3.411   3.894 -0.6123 -0.2158 -0.9030
  893TIP3   OH2 2684   3.348   1.418   3.016 -0.7170 -0.3685 -0.9149
  893TIP3    H1 2685   3.358   1.362   3.093 -0.4326 -0.0603 -0.7239
  893TIP3    H2 2686   3.269   1.469   3.032  0.3927  1.1400  0.1173
  894TIP3   OH2 2687   3.703   0.256   0.224  0.0914  0.7365  0.3858
  894TIP3    H1 2688   3.764   0.190   0.193  0.0736  0.1244  1.5998
  894TIP3    H2 2689   3.626   0.246   0.169  0.6517  0.7728 -0.4242
  895TIP3   OH2 2690   4.152   2.650   3.823  0.0852 -0.6069  0.4576
  895TIP3    H1 2691   4.241   2.629   3.794 -0.3961 -1.3161 -0.6005
  895TIP3    H2 2692   4.122   2.570   3.867 -0.2791 -0.6514  0.1393
  896TIP3   OH2 2693   1.145   3.563   0.876  0.3375 -0.3559  0.3776
  896TIP3    H1 2694   1.106   3.528   0.956  0.6455  1.0302  1.1696
  896TIP3    H2 2695   1.216   3.620   0.907  0.2565  0.4599 -0.8582
  897TIP3   OH2 2696   4.176   1.523   3.125  0.9258  0.3509 -0.4624
  897TIP3    H1 2697   4.136   1.454   3.072  2.3026 -0.2463 -0.7813
  897TIP3    H2 2698   4.135   1.604   3.095 -0.6992 -0.2989 -0.1069
  898TIP3   OH2 2699   2.668   1.390   3.076 -0.5204  0.7747 -0.2558
  898TIP3    H1 2700   2.674   1.295   3.082  1.5326  0.9505  1.4590
  898TIP3    H2 2701   2.576   1.409   3.094 -1.0402 -0.8855 -0.9797
  899TIP3   OH2 2702   4.559   4.958   0.854 -0.0258 -0.4394  0.4470
  899TIP3    H1 2703   4.526   5.046   0.870  0.6244 -0.3232  1.2300
  899TIP3    H2 2704   4.600   4.963   0.768  0.9457  0.3244  0.9319
  900TIP3   OH2 2705   6.169   1.102   3.719  0.2473 -0.3909 -0.4356
  900TIP3    H1 2706   6.129   1.155   3.788  2.0649 -0.9464  1.1475
  900TIP3    H2 2707   6.191   1.164   3.650 -0.5015  0.3943  0.0099
  901TIP3   OH2 2708   5.912   5.446   3.932 -0.0119 -0.6853 -0.2625
  901TIP3    H1 2709   5.896   5.461   3.839  1.2210 -0.4355 -0.4607
  901TIP3    H2 2710   5.878   5.359   3.949 -0.1539 -0.7740 -0.9820
  902TIP3   OH2 2711   6.124   2.388   3.175 -0.0987  0.4209 -0.1733
  902TIP3    H1 2712   6.052   2.357   3.121 -0.0903  0.8798 -0.4505
  902TIP3    H2 2713   6.179   2.440   3.116 -0.7174  1.9460  0.5230
  903TIP3   OH2 2714   0.859   4.174   2.993 -0.0600 -0.4772  0.1543
  903TIP3    H1 2715   0.773   4.132   2.996 -0.2282 -0.2194 -0.7821
  903TIP3    H2 2716   0.874   4.191   2.900  0.6849  0.1383  0.3796
  904TIP3   OH2 2717   5.106   1.223   2.052  0.3638  0.0428 -0.1527
  904TIP3    H1 2718   5.028   1.271   2.076 -0.6862 -1.4123 -0.5018
  904TIP3    H2 2719   5.168   1.290   2.021 -0.6663  1.2291  0.2971
  905TIP3   OH2 2720   2.169   3.894   1.009  0.9895  0.3726 -0.1340
  905TIP3    H1 2721   2.194   3.966   1.066  2.1540 -0.0345 -0.1058
  905TIP3    H2 2722   2.126   3.831   1.067 -0.1961  1.1074 -0.1932
  906TIP3   OH2 2723   3.434   4.868   5.001  0.3746 -0.0845  0.1027
  906TIP3    H1 2724   3.444   4.933   4.932 -1.2513 -0.9700 -1.0588
  906TIP3    H2 2725   3.519   4.824   5.006  1.3402  1.7479  0.5695
  907TIP3   OH2 2726   2.565   3.735   4.447 -0.4468  0.3774 -0.4326
  907TIP3    H1 2727   2.573   3.645   4.478  0.6827  0.5471 -0.1645
  907TIP3    H2 2728   2.472   3.746   4.427 -0.5601 -0.9323 -0.7391
  908TIP3   OH2 2729   0.744   4.727   3.582  0.0992  0.1448 -0.2858
  908TIP3    H1 2730   0.806   4.799   3.566  0.7929 -0.2917  0.3926
  908TIP3    H2 2731   0.708   4.745   3.669  0.5207 -0.4896  0.0306
  909TIP3   OH2 2732   1.218   4.803   4.610 -0.4381  0.0350 -0.0537
  909TIP3    H1 2733   1.284   4.777   4.545 -0.2568  0.0058  0.1383
  909TIP3    H2 2734   1.269   4.838   4.683 -0.6322 -0.0641  0.1319
  910TIP3   OH2 2735   0.366   0.401   1.706 -0.3603 -0.2585 -0.5053
  910TIP3    H1 2736   0.430   0.471   1.709  0.0669 -0.6708  0.6228
  910TIP3    H2 2737   0.283   0.445   1.689  0.0518  0.3984 -0.8663
  911TIP3   OH2 2738   4.226   2.594   2.692 -0.2612 -0.5164 -0.0505
  911TIP3    H1 2739   4.243   2.641   2.610  0.6666  0.1662  0.5170
  911TIP3    H2 2740   4.221   2.502   2.667  0.9800 -0.4118 -0.7401
  912TIP3   OH2 2741   4.270   2.084   4.798 -0.3100 -0.3643 -0.2228
  912TIP3    H1 2742   4.290   2.171   4.833  0.2069 -0.2800 -0.7145
  912TIP3    H2 2743   4.179   2.069   4.822  0.1153 -0.4580  1.4557
  913TIP3   OH2 2744   0.062   0.240   2.392  0.3359 -0.3769  0.0908
  913TIP3    H1 2745   0.101   0.188   2.462  0.4103 -0.3675  0.0565
  913TIP3    H2 2746  -0.029   0.210   2.388 -0.2776  1.1094  1.6444
  914TIP3   OH2 2747   5.387   4.597   0.815  0.5620  0.4721 -0.0995
  914TIP3    H1 2748   5.429   4.672   0.773  0.7593  1.4847  1.7818
  914TIP3    H2 2749   5.441   4.582   0.894  1.9300 -3.1207 -1.5290
  915TIP3   OH2 2750   6.029   1.141   0.179  0.3867  0.6155  0.1789
  915TIP3    H1 2751   6.055   1.225   0.141 -0.1398  0.2807 -0.9813
  915TIP3    H2 2752   6.110   1.089   0.181  0.4957  0.7667 -0.1759
  916TIP3   OH2 2753   4.484   5.504   2.095 -0.2783 -0.4105 -0.0435
  916TIP3    H1 2754   4.433   5.475   2.171 -3.2654  1.0566 -1.3280
  916TIP3    H2 2755   4.420   5.548   2.039  2.6011  2.4247 -1.4017
  917TIP3   OH2 2756   6.146   3.446   0.748 -0.3027  0.5706 -0.9762
  917TIP3    H1 2757   6.162   3.370   0.692 -0.2170 -1.0267  1.0858
  917TIP3    H2 2758   6.093   3.412   0.820  1.7063  1.8941  1.2767
  918TIP3   OH2 2759   4.275   2.528   1.565  0.0791 -0.2968 -0.4664
  918TIP3    H1 2760   4.341   2.574   1.514  0.1831 -0.6851 -0.6810
  918TIP3    H2 2761   4.193   2.570   1.541  0.1795 -0.1891 -0.6244
  919TIP3   OH2 2762   2.973   1.411   1.816  0.8644 -0.2971 -0.0472
  919TIP3    H1 2763   2.951   1.488   1.869  0.3234 -0.9766  0.7410
  919TIP3    H2 2764   3.015   1.351   1.878 -0.0010 -1.2075 -0.3180
  920TIP3   OH2 2765   5.483   4.272   2.569  0.1196  0.0788 -0.2696
  920TIP3    H1 2766   5.422   4.266   2.495  0.3726  0.4153 -0.5121
  920TIP3    H2 2767   5.448   4.343   2.622  0.5502  0.5816 -0.6499
  921TIP3   OH2 2768   0.557   5.696   3.417 -0.0260 -0.5544 -0.0506
  921TIP3    H1 2769   0.523   5.625   3.361  1.4312 -0.8698 -0.5777
  921TIP3    H2 2770   0.572   5.769   3.357 -1.8231  0.3586  0.5424
  922TIP3   OH2 2771   1.638   4.674   0.125  0.1459 -0.2338 -0.3210
  922TIP3    H1 2772   1.565   4.641   0.178 -0.6550  1.9031 -0.0005
  922TIP3    H2 2773   1.603   4.678   0.036  0.6161 -1.2513 -0.5706
  923TIP3   OH2 2774   1.341   1.207   4.850 -0.4297 -0.0623 -0.0684
  923TIP3    H1 2775   1.433   1.210   4.876  0.0165  0.0351 -1.5634
  923TIP3    H2 2776   1.297   1.268   4.909  0.0800 -1.6174  2.0096
  924TIP3   OH2 2777   0.943   3.287   2.976  0.1249 -0.3675 -0.1290
  924TIP3    H1 2778   0.934   3.334   3.058 -0.3788  0.4110 -0.6196
  924TIP3    H2 2779   0.862   3.307   2.928  0.2626 -1.0817 -0.6747
  925TIP3   OH2 2780   0.947   5.648   3.653 -0.7093  0.3482  0.5273
  925TIP3    H1 2781   0.943   5.584   3.725  0.8345  0.3781  0.6676
  925TIP3    H2 2782   0.924   5.732   3.694 -2.9552 -0.0794  0.3006
  926TIP3   OH2 2783   3.642   1.820   1.187 -0.2946  0.2449  0.2008
  926TIP3    H1 2784   3.564   1.875   1.197  0.8747  1.8109  1.0674
  926TIP3    H2 2785   3.693   1.864   1.118 -0.4606 -1.1438 -0.8453
  927TIP3   OH2 2786   1.974   5.148   4.284 -0.3721  0.0297 -0.2652
  927TIP3    H1 2787   1.934   5.061   4.281 -0.4414  0.0658 -0.4031
  927TIP3    H2 2788   1.968   5.175   4.375 -0.8149  0.1068 -0.3138
  928TIP3   OH2 2789   0.335   3.610   1.475 -0.9018 -0.4417  0.1713
  928TIP3    H1 2790   0.420   3.655   1.479 -1.3687  0.4566  0.4931
  928TIP3    H2 2791   0.352   3.529   1.428  0.0695 -0.1230 -0.0456
  929TIP3   OH2 2792   2.045   1.394   2.742 -0.0570 -0.3475 -0.0991
  929TIP3    H1 2793   2.020   1.480   2.707  0.9332  0.2918  0.7076
  929TIP3    H2 2794   2.001   1.331   2.685  0.8246  0.6627 -1.9862
  930TIP3   OH2 2795   2.635   1.590   2.033 -0.1346 -0.0531  0.3565
  930TIP3    H1 2796   2.729   1.611   2.031  0.5333 -2.0684  3.0626
  930TIP3    H2 2797   2.595   1.667   2.074  0.3265  0.8066 -0.7627
  931TIP3   OH2 2798   6.192   4.378   2.094 -0.2305  0.4867 -0.0331
  931TIP3    H1 2799   6.136   4.428   2.035 -0.4990  0.4036  0.1545
  931TIP3    H2 2800   6.281   4.393   2.060 -0.4117  0.1890 -0.6485
  932TIP3   OH2 2801   3.505   0.651   0.428 -0.0529  0.4453 -0.6351
  932TIP3    H1 2802   3.425   0.610   0.397  0.1108 -1.1092  0.8427
  932TIP3    H2 2803   3.571   0.628   0.363  0.2883 -2.7058  0.6499
  933TIP3   OH2 2804   5.661   1.174   4.723  0.1730  0.1355 -0.1947
  933TIP3    H1 2805   5.587   1.212   4.769 -0.4508 -3.3094  1.9810
  933TIP3    H2 2806   5.737   1.190   4.780  0.3678  0.2948 -0.4947
  934TIP3   OH2 2807   5.616   3.256   4.375  0.3598  0.2671 -0.3311
  934TIP3    H1 2808   5.710   3.258   4.354  1.2647  0.9140  3.1074
  934TIP3    H2 2809   5.579   3.330   4.327  2.2365  1.8425  0.5062
  935TIP3   OH2 2810   0.235   5.592   4.419  0.6812  0.0398  0.2983
  935TIP3    H1 2811   0.230   5.561   4.509  2.5672 -1.1980  0.0463
  935TIP3    H2 2812   0.193   5.523   4.367 -0.1258  0.6033  0.1859
  936TIP3   OH2 2813   2.653   2.146   2.866 -0.5871  0.9407  0.6243
  936TIP3    H1 2814   2.585   2.161   2.931  0.9832 -1.2962  2.9703
  936TIP3    H2 2815   2.620   2.074   2.812 -1.1506  1.6430  0.0036
  937TIP3   OH2 2816   5.063   1.751   0.086 -0.1355 -1.0052 -0.8286
  937TIP3    H1 2817   5.006   1.754   0.009  0.9535  0.4225 -1.6274
  937TIP3    H2 2818   5.077   1.843   0.109 -0.6270 -1.4023  1.2525
  938TIP3   OH2 2819   2.771   0.318   1.915  0.0428 -0.1442  0.1219
  938TIP3    H1 2820   2.787   0.394   1.859 -0.9027  0.3889  0.5535
  938TIP3    H2 2821   2.856   0.300   1.955  0.2445  0.8122  0.1650
  939TIP3   OH2 2822   2.620   4.078   1.951 -0.4216 -0.4016  0.3256
  939TIP3    H1 2823   2.598   4.108   2.039  0.6646 -0.8869  0.7838
  939TIP3    H2 2824   2.673   3.999   1.965  0.2242 -0.1853 -0.7492
  940TIP3   OH2 2825   4.363   1.216   3.488 -0.3194  0.1543 -0.2212
  940TIP3    H1 2826   4.398   1.132   3.461 -0.7007 -0.3198  0.6902
  940TIP3    H2 2827   4.431   1.280   3.465  0.1926 -0.4701 -0.4572
  941TIP3   OH2 2828   4.925   2.818   4.298 -0.2028  0.5537  0.3871
  941TIP3    H1 2829   4.909   2.726   4.322  0.3552  0.7378  1.5189
  941TIP3    H2 2830   4.983   2.813   4.222 -2.3210 -0.0557 -1.2984
  942TIP3   OH2 2831   0.278   3.003   2.283 -0.0678 -0.1875 -0.4843
  942TIP3    H1 2832   0.308   3.085   2.243  0.7245 -0.0539  0.3481
  942TIP3    H2 2833   0.226   3.030   2.358  0.0539 -0.4444 -0.3057
  943TIP3   OH2 2834   3.785   3.893   1.537 -0.4794 -0.5366  0.1668
  943TIP3    H1 2835   3.806   3.820   1.478  0.3518 -0.4506  0.3376
  943TIP3    H2 2836   3.815   3.863   1.623  0.4999  0.2525  0.1247
  944TIP3   OH2 2837   1.640   5.723   4.693  0.4490  0.4320 -0.4391
  944TIP3    H1 2838   1.683   5.807   4.682 -1.2472  1.5852  1.1300
  944TIP3    H2 2839   1.623   5.717   4.787 -1.1043 -0.7974 -0.7516
  945TIP3   OH2 2840   3.848   4.606   4.925  0.8704 -0.2464  0.3892
  945TIP3    H1 2841   3.836   4.692   4.884  1.1258  0.0723  0.9794
  945TIP3    H2 2842   3.941   4.587   4.914  0.9632 -0.1041  0.9403
  946TIP3   OH2 2843   5.048   4.756   2.801  0.0945 -0.3339 -0.0208
  946TIP3    H1 2844   5.115   4.695   2.831  0.5658  0.6942  1.1378
  946TIP3    H2 2845   5.036   4.816   2.875 -2.2573 -0.6062 -0.1221
  947TIP3   OH2 2846   2.720   2.126   3.567 -0.2858  0.0712 -0.3557
  947TIP3    H1 2847   2.650   2.170   3.616 -0.4067  0.1811 -0.6258
  947TIP3    H2 2848   2.714   2.162   3.479 -1.0640 -1.2263 -0.8709
  948TIP3   OH2 2849   5.624   5.720   3.302  0.5177  0.1740  0.7897
  948TIP3    H1 2850   5.537   5.739   3.338  0.0391 -1.1313  0.3678
  948TIP3    H2 2851   5.622   5.757   3.214  0.0919 -0.5505  0.4866
  949TIP3   OH2 2852   0.661   5.601   2.122 -0.0367  0.1659 -0.2679
  949TIP3    H1 2853   0.743   5.602   2.074  0.2045 -0.2012  0.1285
  949TIP3    H2 2854   0.679   5.547   2.200 -0.5338  0.4084  0.0230
  950TIP3   OH2 2855   2.057   0.392   3.133 -0.1151  0.0282 -0.4054
  950TIP3    H1 2856   2.050   0.411   3.227  0.5952 -0.0042 -0.3410
  950TIP3    H2 2857   1.981   0.338   3.114 -1.9323  2.4178 -0.4643
  951TIP3   OH2 2858   4.906   3.212   2.174 -0.1662 -0.2521  0.4069
  951TIP3    H1 2859   4.931   3.132   2.219 -0.7704  0.1930  1.5830
  951TIP3    H2 2860   4.849   3.258   2.236 -0.5769  0.6543 -0.5989
  952TIP3   OH2 2861   2.062   2.576   3.057 -0.4216  0.1024 -0.3071
  952TIP3    H1 2862   2.098   2.625   2.984  1.0663  0.4473  0.6230
  952TIP3    H2 2863   2.072   2.633   3.133  0.0111 -1.0472  0.5419
  953TIP3   OH2 2864   4.041   5.925   2.474  0.4821 -0.1508  0.5007
  953TIP3    H1 2865   4.079   5.888   2.394 -0.7807 -0.2940 -0.0568
  953TIP3    H2 2866   4.116   5.964   2.520  1.2737 -0.2921 -0.6226
  954TIP3   OH2 2867   4.174   0.110   0.894 -0.3057 -0.0306 -0.5212
  954TIP3    H1 2868   4.209   0.170   0.959 -1.7327 -0.7514  0.9803
  954TIP3    H2 2869   4.144   0.166   0.823 -0.3436  0.9223  0.2252
  955TIP3   OH2 2870   6.058   1.144   2.181  0.7734  0.7275  0.5030
  955TIP3    H1 2871   6.057   1.077   2.112  0.7124  0.2565  0.9535
  955TIP3    H2 2872   6.147   1.178   2.179  0.3352  1.8703 -0.8900
  956TIP3   OH2 2873   3.217   0.148   0.669  0.0521 -1.0921  0.7885
  956TIP3    H1 2874   3.160   0.199   0.611  0.2978 -2.1280 -0.3919
  956TIP3    H2 2875   3.249   0.212   0.732  0.8878  0.3905 -1.0594
  957TIP3   OH2 2876   5.402   0.703   3.695 -0.2457  0.2939 -0.6578
  957TIP3    H1 2877   5.415   0.617   3.734 -2.1576  0.5603  0.7138
  957TIP3    H2 2878   5.478   0.754   3.723 -0.9942  0.1338  1.8086
  958TIP3   OH2 2879   3.860   0.999   0.977  0.2431  0.0173  0.1799
  958TIP3    H1 2880   3.814   0.982   1.058 -0.1489 -0.5753 -0.1624
  958TIP3    H2 2881   3.922   0.927   0.968 -0.3470 -0.4156 -0.4988
  959TIP3   OH2 2882   4.738   3.551   3.910 -0.4400  0.4935  0.2711
  959TIP3    H1 2883   4.814   3.595   3.949  0.2312  0.0852 -0.5460
  959TIP3    H2 2884   4.724   3.474   3.965  1.9524 -1.3730 -1.4993
  960TIP3   OH2 2885   1.722   2.113   5.177  0.1284 -0.2052  0.0250
  960TIP3    H1 2886   1.758   2.058   5.246  1.6624  1.2079  0.3874
  960TIP3    H2 2887   1.788   2.111   5.107 -0.7583 -0.4753 -0.8332
  961TIP3   OH2 2888   2.165   5.551   4.201  0.0483  0.6968  0.0782
  961TIP3    H1 2889   2.234   5.617   4.190  0.1064  0.4998 -0.8391
  961TIP3    H2 2890   2.123   5.547   4.115 -0.1157 -0.2802  0.1931
  962TIP3   OH2 2891   5.964   1.696   1.122  0.0339  0.0393 -0.2638
  962TIP3    H1 2892   5.902   1.639   1.168 -1.5928 -0.3391 -2.7745
  962TIP3    H2 2893   5.930   1.784   1.136 -0.3118 -0.0505 -0.5349
  963TIP3   OH2 2894   0.605   4.464   2.810 -0.4238  0.3815 -0.4438
  963TIP3    H1 2895   0.682   4.414   2.783 -1.6427 -0.9017 -1.6740
  963TIP3    H2 2896   0.531   4.407   2.790 -1.7031  1.4180  1.0708
  964TIP3   OH2 2897   1.316   4.936   2.307  0.0098 -0.5001 -0.4254
  964TIP3    H1 2898   1.315   5.031   2.302  0.9687 -0.5318 -1.8552
  964TIP3    H2 2899   1.404   4.911   2.276  1.1177 -1.7109  3.2054
  965TIP3   OH2 2900   5.555   2.286   2.587  0.0945  0.1830  0.2500
  965TIP3    H1 2901   5.560   2.209   2.530  1.0733  0.1305  0.3950
  965TIP3    H2 2902   5.532   2.358   2.528 -0.4629 -0.1552  0.0526
  966TIP3   OH2 2903   2.456   4.258   2.125  0.3920  0.0602 -0.3323
  966TIP3    H1 2904   2.384   4.271   2.063 -0.1677  0.2520  0.3389
  966TIP3    H2 2905   2.462   4.341   2.172 -0.3561 -0.6274  1.0512
  967TIP3   OH2 2906   4.887   3.608   3.612  0.6096 -0.3340  0.1637
  967TIP3    H1 2907   4.894   3.668   3.537  0.6864  1.6205  1.6627
  967TIP3    H2 2908   4.823   3.649   3.670  0.6322 -1.7496  1.2404
  968TIP3   OH2 2909   0.280   5.828   3.124  0.4644  0.3175 -0.4764
  968TIP3    H1 2910   0.323   5.895   3.178 -1.5130  0.5943  0.8574
  968TIP3    H2 2911   0.198   5.869   3.096 -0.4435 -1.2680 -0.2676
  969TIP3   OH2 2912   6.140   5.601   1.370 -0.5895 -0.3173  0.2702
  969TIP3    H1 2913   6.161   5.694   1.357 -1.6826 -0.2913 -1.8269
  969TIP3    H2 2914   6.079   5.600   1.443 -1.0571  0.7107 -0.0821
  970TIP3   OH2 2915   0.459   4.409   3.124  0.2514 -0.7329 -0.1941
  970TIP3    H1 2916   0.554   4.407   3.137  0.3821 -1.9906 -1.2109
  970TIP3    H2 2917   0.448   4.415   3.029 -0.6993  1.0124 -0.0045
  971TIP3   OH2 2918   2.277   2.812   2.159  0.2990 -0.3273  0.2220
  971TIP3    H1 2919   2.281   2.832   2.065 -1.9185  0.3771  0.1989
  971TIP3    H2 2920   2.352   2.755   2.175 -0.1364 -1.7923 -2.3231
  972TIP3   OH2 2921   1.277   0.201   4.082 -0.3974  0.0870 -0.1714
  972TIP3    H1 2922   1.204   0.263   4.073  0.0778  0.5365 -0.9969
  972TIP3    H2 2923   1.347   0.239   4.030  0.7335  0.0956  1.3133
  973TIP3   OH2 2924   5.676   5.189   4.238  0.5666 -0.1057 -0.1442
  973TIP3    H1 2925   5.662   5.261   4.177 -0.2775 -1.8145 -2.0602
  973TIP3    H2 2926   5.767   5.161   4.223  0.5135 -0.2177 -0.2531
  974TIP3   OH2 2927   0.575   1.257   2.590  0.1800 -0.4410 -0.0144
  974TIP3    H1 2928   0.670   1.249   2.598  0.2854 -0.0191 -0.8075
  974TIP3    H2 2929   0.551   1.320   2.658  0.5815  0.1320 -0.3964
  975TIP3   OH2 2930   2.141   1.341   4.763 -0.0357 -0.3862  0.1861
  975TIP3    H1 2931   2.206   1.399   4.723  0.5669 -2.5041 -2.1699
  975TIP3    H2 2932   2.146   1.260   4.712 -2.2644 -1.8125  2.0059
  976TIP3   OH2 2933   0.498   2.765   2.685 -0.7356  0.0500  0.6150
  976TIP3    H1 2934   0.519   2.711   2.609  0.2669  2.1192 -0.6359
  976TIP3    H2 2935   0.576   2.758   2.741 -1.3592 -1.2381  1.3876
  977TIP3   OH2 2936   2.054   4.720   0.294 -0.4745  0.6061  0.0565
  977TIP3    H1 2937   1.971   4.699   0.336  0.1297  3.0375  2.8069
  977TIP3    H2 2938   2.030   4.772   0.217 -1.5176  1.3060  0.8367
  978TIP3   OH2 2939   2.052   3.740   1.209  0.2335 -0.2748 -0.1095
  978TIP3    H1 2940   2.068   3.674   1.277  1.1453  0.7908  0.7608
  978TIP3    H2 2941   2.031   3.819   1.258  1.4634  0.6645 -1.0562
  979TIP3   OH2 2942   1.955   4.694   1.618 -0.0510 -0.2038 -0.5027
  979TIP3    H1 2943   2.030   4.737   1.660  0.7557 -1.5393 -0.5503
  979TIP3    H2 2944   1.968   4.708   1.525 -0.3566  0.3259 -0.4756
  980TIP3   OH2 2945   3.157   5.313   2.661  0.2096  0.3395 -0.1444
  980TIP3    H1 2946   3.078   5.306   2.715 -0.2690 -1.7013 -0.9991
  980TIP3    H2 2947   3.223   5.263   2.710  0.6139  0.9235 -0.0805
  981TIP3   OH2 2948   2.194   0.576   4.625 -0.7239  0.3246 -0.4412
  981TIP3    H1 2949   2.208   0.652   4.682 -1.0421 -0.3446  0.5513
  981TIP3    H2 2950   2.108   0.541   4.651 -0.2059 -0.8838 -0.2781
  982TIP3   OH2 2951   5.663   1.284   3.148 -0.0514 -0.2927 -0.1963
  982TIP3    H1 2952   5.633   1.373   3.165  0.8772 -0.1143  0.5873
  982TIP3    H2 2953   5.598   1.228   3.189 -0.9168 -0.0066 -1.1333
  983TIP3   OH2 2954   0.381   1.201   5.193  0.3720 -0.7950 -0.1934
  983TIP3    H1 2955   0.372   1.236   5.105  1.4853  0.5354  0.1951
  983TIP3    H2 2956   0.475   1.193   5.207  0.2320 -0.4504  1.0751
  984TIP3   OH2 2957   5.185   0.726   4.408  0.2539 -0.3079 -1.0361
  984TIP3    H1 2958   5.273   0.712   4.442 -0.2660  0.7707  0.9737
  984TIP3    H2 2959   5.189   0.701   4.316  2.9779  0.9282 -1.3313
  985TIP3   OH2 2960   0.595   2.812   1.604  0.3445  0.1088  0.4407
  985TIP3    H1 2961   0.513   2.764   1.611 -0.1750  0.7089 -1.0996
  985TIP3    H2 2962   0.656   2.764   1.660 -1.1642 -0.0476  2.0277
  986TIP3   OH2 2963   0.030   5.932   3.046  0.1583 -0.6224  0.0625
  986TIP3    H1 2964   0.017   5.874   2.971  0.8082 -1.1021  0.3199
  986TIP3    H2 2965   0.016   6.020   3.010  1.5467 -0.7552 -0.8908
  987TIP3   OH2 2966   0.581   1.729   4.001 -0.4237 -0.1322  0.6049
  987TIP3    H1 2967   0.663   1.726   3.951 -0.2246  0.2961  0.9052
  987TIP3    H2 2968   0.513   1.716   3.935 -0.1007 -0.8455  0.3990
  988TIP3   OH2 2969   2.298   5.003   4.331  0.0364  0.4607 -0.0635
  988TIP3    H1 2970   2.280   5.096   4.348 -0.0881  0.5712 -0.7868
  988TIP3    H2 2971   2.392   4.994   4.344 -0.0959  0.4727  0.9909
  989TIP3   OH2 2972   6.078   0.125   2.178  0.2605  0.2534 -0.2473
  989TIP3    H1 2973   5.999   0.177   2.167 -0.3514 -0.1707  1.6619
  989TIP3    H2 2974   6.125   0.168   2.249  1.2733 -0.0425 -0.7215
  990TIP3   OH2 2975   2.296   0.725   3.660  0.4631  0.1627 -0.1901
  990TIP3    H1 2976   2.227   0.789   3.677  0.9662  1.2173 -1.8612
  990TIP3    H2 2977   2.367   0.751   3.718  0.2530  0.4214 -0.0450
  991TIP3   OH2 2978   3.401   4.602   0.340 -0.0963 -0.3473  0.2302
  991TIP3    H1 2979   3.315   4.580   0.376  0.0651  1.0324  1.5913
  991TIP3    H2 2980   3.388   4.604   0.245 -1.5560 -0.2634  0.4038
  992TIP3   OH2 2981   2.159   1.337   0.403  0.1992  0.3653  0.5905
  992TIP3    H1 2982   2.194   1.305   0.320  1.9950  0.8900  1.1106
  992TIP3    H2 2983   2.159   1.260   0.460  0.3839  0.3297  0.5427
  993TIP3   OH2 2984   5.686   2.656   4.383  0.1480 -0.4135 -0.6076
  993TIP3    H1 2985   5.767   2.615   4.412  0.0583 -1.0973 -1.2756
  993TIP3    H2 2986   5.693   2.747   4.411  0.5024 -0.8061  0.6000
  994TIP3   OH2 2987   1.778   1.368   3.539 -0.1236  0.1244  0.3029
  994TIP3    H1 2988   1.770   1.273   3.553 -2.6704  0.4324  1.5145
  994TIP3    H2 2989   1.772   1.378   3.444  2.4163 -1.0097 -0.0736
  995TIP3   OH2 2990   5.663   0.936   2.844 -0.0520 -0.3499  0.5918
  995TIP3    H1 2991   5.647   1.027   2.820 -1.3879 -0.6640  0.2012
  995TIP3    H2 2992   5.717   0.902   2.773  1.3077  0.3691  1.2308
  996TIP3   OH2 2993   3.564   5.994   0.560 -0.0101  0.5728  0.6291
  996TIP3    H1 2994   3.570   5.899   0.571 -0.1459  0.5470  0.4726
  996TIP3    H2 2995   3.498   6.020   0.625  0.6893  0.6787  1.3208
  997TIP3   OH2 2996   2.458   1.713   3.547  0.1726  0.6879  0.1276
  997TIP3    H1 2997   2.435   1.688   3.636 -0.0984  0.0769 -0.1161
  997TIP3    H2 2998   2.541   1.761   3.556  0.5493 -0.0481  0.6235
  998TIP3   OH2 2999   1.525   2.640   4.567 -0.5198  0.6169 -0.3521
  998TIP3    H1 3000   1.465   2.567   4.550 -0.7857  0.2064  2.0237
  998TIP3    H2 3001   1.612   2.600   4.567 -0.5068  0.6474 -0.8809
  999TIP3   OH2 3002   5.710   3.843   4.627  0.5326  0.0556 -0.0828
  999TIP3    H1 3003   5.729   3.928   4.586 -0.4131  1.0172  1.4109
  999TIP3    H2 3004   5.699   3.862   4.720  1.8502 -1.9632  0.5572
 1000TIP3   OH2 3005   5.834   0.912   2.313 -0.3042 -0.0325  0.4962
 1000TIP3    H1 3006   5.913   0.949   2.353  0.2467 -1.2033  0.5344
 1000TIP3    H2 3007   5.867   0.855   2.244 -1.2551  2.5453 -2.2741
 1001TIP3   OH2 3008   5.563   3.106   2.763 -0.4429 -0.6565 -0.2481
 1001TIP3    H1 3009   5.531   3.162   2.692 -1.4121  0.3870  0.9540
 1001TIP3    H2 3010   5.485   3.063   2.797 -0.5109  1.0059  1.9468
 1002TIP3   OH2 3011   4.661   0.700   4.747  0.1189  0.0772  0.0692
 1002TIP3    H1 3012   4.663   0.648   4.667 -0.0733  1.1123 -0.6245
 1002TIP3    H2 3013   4.702   0.783   4.723  2.6331 -0.5564  1.7734
 1003TIP3   OH2 3014   4.755   3.072   3.999  0.1285  0.3083  0.1496
 1003TIP3    H1 3015   4.768   2.979   3.986 -0.1732  0.5277 -2.2133
 1003TIP3    H2 3016   4.840   3.112   3.983 -0.2792  0.6057 -1.4981
 1004TIP3   OH2 3017   3.240   3.436   0.260 -0.7799  0.4612  0.5912
 1004TIP3    H1 3018   3.195   3.366   0.213 -1.1899  0.9820  0.2003
 1004TIP3    H2 3019   3.236   3.511   0.201  0.7499  0.4770  0.4823
 1005TIP3   OH2 3020   4.931   0.278   2.006  0.2842 -0.1983  0.5250
 1005TIP3    H1 3021   4.877   0.251   1.931 -1.3175  0.3128  1.4434
 1005TIP3    H2 3022   4.996   0.209   2.015 -1.3145 -1.7713  0.4537
 1006TIP3   OH2 3023   2.751   3.085   1.971  0.2312  0.1520  0.3029
 1006TIP3    H1 3024   2.827   3.029   1.989  0.2448 -0.0645 -0.3913
 1006TIP3    H2 3025   2.718   3.054   1.887 -0.6867  0.1876  0.6421
 1007TIP3   OH2 3026   3.351   0.178   0.353 -0.0205  0.4034  0.0397
 1007TIP3    H1 3027   3.432   0.153   0.398 -0.5239  1.6119  1.7312
 1007TIP3    H2 3028   3.323   0.258   0.397 -3.8295 -1.5981  1.6955
 1008TIP3   OH2 3029   1.444   5.940   0.209  0.0647 -0.3102 -0.4415
 1008TIP3    H1 3030   1.525   5.898   0.181  0.4555 -1.0808  1.7241
 1008TIP3    H2 3031   1.470   5.997   0.281 -1.5672 -2.3157  1.8873
 1009TIP3   OH2 3032   0.703   3.180   0.934  0.5244 -0.2207 -0.0317
 1009TIP3    H1 3033   0.676   3.255   0.880 -0.0875  0.2055  0.8221
 1009TIP3    H2 3034   0.640   3.111   0.913  0.5234 -0.1817 -0.1537
 1010TIP3   OH2 3035   3.858   2.273   1.134 -0.1695 -0.0138 -0.1629
 1010TIP3    H1 3036   3.912   2.262   1.056 -1.4290  1.8882 -1.3838
 1010TIP3    H2 3037   3.918   2.308   1.200  0.4525  0.5074 -0.9832
 1011TIP3   OH2 3038   3.054   4.536   3.430  0.6363  0.4074 -0.3300
 1011TIP3    H1 3039   2.988   4.502   3.370  2.3341  0.1749 -2.1819
 1011TIP3    H2 3040   3.081   4.460   3.482  0.6316  0.1153 -0.7454
 1012TIP3   OH2 3041   2.622   4.734   4.326  0.0226  0.2463  0.0818
 1012TIP3    H1 3042   2.533   4.759   4.350 -0.1369  0.9923 -1.2367
 1012TIP3    H2 3043   2.677   4.801   4.365  0.3785 -1.7649  3.5030
 1013TIP3   OH2 3044   5.586   4.009   3.016  0.1975  0.0178 -0.2894
 1013TIP3    H1 3045   5.542   3.980   3.096  0.2074  0.4464 -0.1218
 1013TIP3    H2 3046   5.670   4.045   3.047 -0.4222  1.5514 -0.3085
 1014TIP3   OH2 3047   5.984   0.862   1.730  0.4344 -0.3469  0.0094
 1014TIP3    H1 3048   5.939   0.929   1.780 -0.6950  0.7032 -2.2760
 1014TIP3    H2 3049   5.928   0.846   1.654  1.9991 -1.9172 -0.9090
 1015TIP3   OH2 3050   0.455   4.044   4.880  0.2022  0.2207 -0.0104
 1015TIP3    H1 3051   0.520   4.036   4.950  1.2940  0.3872 -0.9807
 1015TIP3    H2 3052   0.371   4.039   4.925  0.8767 -0.4554  1.2246
 1016TIP3   OH2 3053   0.523   3.782   2.840 -0.0383 -0.2037 -0.1543
 1016TIP3    H1 3054   0.594   3.726   2.871  0.0280  0.5572  1.1379
 1016TIP3    H2 3055   0.471   3.800   2.918 -1.0075  0.1873 -0.8689
 1017TIP3   OH2 3056   5.243   2.887   1.198  0.2998  0.2374  0.2671
 1017TIP3    H1 3057   5.329   2.880   1.241 -0.0386 -1.4913  0.7372
 1017TIP3    H2 3058   5.226   2.981   1.194  1.8467  0.5796  0.9177
 1018TIP3   OH2 3059   0.975   4.279   3.204 -0.1053  0.3899 -0.5374
 1018TIP3    H1 3060   0.938   4.249   3.121  0.0968  0.4904 -0.6654
 1018TIP3    H2 3061   0.902   4.278   3.266 -0.0475 -0.6662 -0.4657
 1019TIP3   OH2 3062   1.198   5.634   3.066 -0.2098  0.2004  0.7238
 1019TIP3    H1 3063   1.278   5.647   3.117  0.3379  0.8247 -0.2558
 1019TIP3    H2 3064   1.144   5.710   3.086 -0.4563 -0.0984  1.1981
 1020TIP3   OH2 3065   4.872   0.566   1.952 -0.6375  0.3990 -0.2638
 1020TIP3    H1 3066   4.890   0.472   1.949  2.7298  0.8877  0.5189
 1020TIP3    H2 3067   4.881   0.595   1.861 -0.4410  0.1472 -0.3270
 1021TIP3   OH2 3068   0.094   0.951   0.374 -0.1569 -0.9657  0.0503
 1021TIP3    H1 3069   0.061   0.862   0.381  0.9527 -1.4054 -0.0615
 1021TIP3    H2 3070   0.081   0.988   0.461  1.4012 -1.9966  0.7767
 1022TIP3   OH2 3071   4.905   3.157   0.554 -0.3419  0.0219  0.0618
 1022TIP3    H1 3072   4.986   3.137   0.506  0.3121  1.2899  0.5750
 1022TIP3    H2 3073   4.837   3.158   0.486  0.2420 -0.1019 -0.5349
 1023TIP3   OH2 3074   6.000   5.333   0.410 -0.9045  0.0079 -0.0081
 1023TIP3    H1 3075   5.913   5.324   0.372 -0.1970 -1.7114 -1.3295
 1023TIP3    H2 3076   6.057   5.347   0.335  0.1848 -0.7787  0.6513
 1024TIP3   OH2 3077   4.688   2.153   0.338  0.3205 -0.2572 -0.3207
 1024TIP3    H1 3078   4.599   2.132   0.368  0.3806  0.3901  0.3594
 1024TIP3    H2 3079   4.675   2.205   0.259  0.0368  0.9154  0.4722
 1025TIP3   OH2 3080   6.254   0.318   1.772 -0.3644  0.3006 -0.1395
 1025TIP3    H1 3081   6.308   0.248   1.734 -0.8551 -0.9314  1.3130
 1025TIP3    H2 3082   6.317   0.378   1.812  0.0111 -0.0542 -0.1930
 1026TIP3   OH2 3083   2.956   4.123   1.951 -0.3000  0.1370  0.2454
 1026TIP3    H1 3084   2.923   4.199   1.903 -0.5894  1.6616  2.6661
 1026TIP3    H2 3085   3.010   4.160   2.020  1.9086 -2.0552 -0.1738
 1027TIP3   OH2 3086   2.883   0.705   0.197  0.2443 -0.0235  0.3708
 1027TIP3    H1 3087   2.818   0.769   0.226  0.3129 -0.0342  0.5466
 1027TIP3    H2 3088   2.894   0.723   0.103 -0.4166 -0.3781  0.2191
 1028TIP3   OH2 3089   3.865   2.638   2.328  0.0191 -0.0264 -0.3332
 1028TIP3    H1 3090   3.931   2.676   2.270 -0.8187  1.5996 -0.2868
 1028TIP3    H2 3091   3.903   2.641   2.415  0.3394 -0.1909 -0.4683
 1029TIP3   OH2 3092   3.485   2.629   2.574  0.0413  0.4533 -0.5772
 1029TIP3    H1 3093   3.444   2.691   2.634 -0.7115  0.5496 -1.1717
 1029TIP3    H2 3094   3.446   2.649   2.489  0.6895 -0.0343 -0.9961
 1030TIP3   OH2 3095   1.111   3.940   0.672 -0.6141 -0.1378  0.4761
 1030TIP3    H1 3096   1.059   3.860   0.679 -0.9385 -0.0217 -0.5206
 1030TIP3    H2 3097   1.102   3.968   0.581 -0.5125  1.0405  0.8016
 1031TIP3   OH2 3098   2.070   3.447   2.051  0.1107 -0.4402 -1.0313
 1031TIP3    H1 3099   2.115   3.512   2.105  3.4543 -2.3521 -1.2959
 1031TIP3    H2 3100   2.087   3.475   1.961  2.5192 -2.0960 -1.1820
 1032TIP3   OH2 3101   6.111   1.538   3.830 -0.4064 -0.3263 -0.7040
 1032TIP3    H1 3102   6.042   1.573   3.885  0.4015  1.9481 -1.0254
 1032TIP3    H2 3103   6.107   1.590   3.750  3.0230  1.5759  0.1289
 1033TIP3   OH2 3104   1.294   4.206   1.158  0.2495 -0.0711 -0.2713
 1033TIP3    H1 3105   1.218   4.242   1.112  0.4680  0.0326 -0.5557
 1033TIP3    H2 3106   1.293   4.113   1.138  1.0885  0.1691 -1.5954
 1034TIP3   OH2 3107   3.741   4.135   1.407  0.2317  1.2833  1.0570
 1034TIP3    H1 3108   3.648   4.158   1.409  0.6968  3.3608  4.1698
 1034TIP3    H2 3109   3.742   4.042   1.432 -0.9688  1.8486  3.5637
 1035TIP3   OH2 3110   1.326   2.912   2.375  0.0152 -0.3149  0.3483
 1035TIP3    H1 3111   1.399   2.956   2.420  0.8167 -0.3288 -0.8826
 1035TIP3    H2 3112   1.275   2.872   2.445  1.2555 -0.3925  1.2467
 1036TIP3   OH2 3113   2.505   4.232   3.671  0.4107  0.0607 -0.8102
 1036TIP3    H1 3114   2.566   4.216   3.599  1.4129  1.2188 -0.2465
 1036TIP3    H2 3115   2.553   4.289   3.731 -1.0245  0.5261 -0.0657
 1037TIP3   OH2 3116   0.749   1.469   0.737  0.0821 -0.1084 -0.0023
 1037TIP3    H1 3117   0.788   1.383   0.721 -0.6515 -0.4089 -0.2488
 1037TIP3    H2 3118   0.752   1.479   0.832 -0.8181 -0.8993  0.1254
 1038TIP3   OH2 3119   5.945   4.397   4.852  0.7297  0.6970  0.3559
 1038TIP3    H1 3120   6.029   4.411   4.808 -0.1935  1.5311 -1.2746
 1038TIP3    H2 3121   5.895   4.344   4.790 -0.2408  0.9494  0.9025
 1039TIP3   OH2 3122   4.893   4.918   2.186 -0.0139 -0.0561 -0.4868
 1039TIP3    H1 3123   4.883   4.926   2.281  1.0500  0.4096 -0.4019
 1039TIP3    H2 3124   4.984   4.942   2.169 -0.5573  1.2242 -1.7740
 1040TIP3   OH2 3125   0.996   3.295   2.593  0.5429  0.0085  0.2943
 1040TIP3    H1 3126   0.959   3.227   2.649 -1.6964  0.8535 -0.0363
 1040TIP3    H2 3127   1.001   3.256   2.506  3.5487 -1.1405  0.8884
 1041TIP3   OH2 3128   1.603   4.884   4.169 -0.6398  0.1650  0.5732
 1041TIP3    H1 3129   1.572   4.796   4.148  0.4088 -0.0387 -0.2039
 1041TIP3    H2 3130   1.535   4.942   4.135  0.2897 -0.2137 -2.1675
 1042TIP3   OH2 3131   1.797   2.813   3.259 -0.6885  0.3221  0.0508
 1042TIP3    H1 3132   1.813   2.805   3.165  0.5539 -0.0940  0.2788
 1042TIP3    H2 3133   1.740   2.740   3.281  2.2592 -2.0739  0.2922
 1043TIP3   OH2 3134   3.233   2.532   1.033  0.3545  0.0386  0.5400
 1043TIP3    H1 3135   3.272   2.602   0.981  0.4396 -0.8689 -0.6686
 1043TIP3    H2 3136   3.140   2.534   1.011  0.5559 -1.0191 -0.5007
 1044TIP3   OH2 3137   3.393   1.979   5.004 -0.7391  0.4069  0.3102
 1044TIP3    H1 3138   3.436   2.058   5.036 -0.8931  0.0574  1.4372
 1044TIP3    H2 3139   3.402   1.916   5.076 -1.7529 -0.1811 -0.0571
 1045TIP3   OH2 3140   3.669   0.682   3.915  0.2928  0.0152  0.2066
 1045TIP3    H1 3141   3.703   0.600   3.951 -1.0394 -1.0496 -0.8561
 1045TIP3    H2 3142   3.620   0.721   3.988  0.0631 -0.6683  0.4301
 1046TIP3   OH2 3143   6.266   2.058   1.787  0.2097 -0.2358 -0.1764
 1046TIP3    H1 3144   6.265   2.078   1.881 -1.2650  2.8928 -0.7496
 1046TIP3    H2 3145   6.175   2.038   1.766 -0.1747  2.4241 -1.4516
 1047TIP3   OH2 3146   5.287   1.561   4.415  0.2647 -0.6111 -0.2256
 1047TIP3    H1 3147   5.217   1.603   4.465  0.1763 -0.4893 -0.4561
 1047TIP3    H2 3148   5.331   1.633   4.370  1.9534 -0.3721  1.6542
 1048TIP3   OH2 3149   1.150   3.537   3.398 -0.1756  0.0873  0.0903
 1048TIP3    H1 3150   1.107   3.590   3.465 -0.1998  0.8755 -0.5398
 1048TIP3    H2 3151   1.163   3.597   3.325  0.0115 -0.7179 -0.5471
 1049TIP3   OH2 3152   5.623   4.470   2.017  0.3538  0.5028  0.1029
 1049TIP3    H1 3153   5.537   4.511   2.013 -0.4042 -0.9388  0.5809
 1049TIP3    H2 3154   5.638   4.436   1.929 -0.0115 -0.0410  0.2399
 1050TIP3   OH2 3155   4.408   1.955   5.005  0.4665  0.0921  0.1011
 1050TIP3    H1 3156   4.380   1.935   4.915 -0.8208 -0.5673  0.6270
 1050TIP3    H2 3157   4.347   2.022   5.035  1.2370  0.7161  0.3126
 1051TIP3   OH2 3158   1.590   1.654   4.762  0.1370  0.1774 -0.0954
 1051TIP3    H1 3159   1.670   1.683   4.718  0.6777 -0.7476  0.2464
 1051TIP3    H2 3160   1.547   1.596   4.699 -0.1117  0.4350 -0.1639
 1052TIP3   OH2 3161   3.055   1.602   4.055 -0.2416  0.3101 -0.2827
 1052TIP3    H1 3162   3.001   1.658   3.998 -0.2680 -1.3301 -1.9621
 1052TIP3    H2 3163   3.145   1.616   4.025 -0.2769 -0.7344 -0.9234
 1053TIP3   OH2 3164   1.246   2.072   2.112  0.0562  0.2163  0.2473
 1053TIP3    H1 3165   1.190   2.062   2.188 -0.9463  1.7308 -0.2446
 1053TIP3    H2 3166   1.277   2.163   2.116  1.0690 -0.0764 -0.4314
 1054TIP3   OH2 3167   1.472   1.780   1.412  0.2324 -0.7321 -0.2650
 1054TIP3    H1 3168   1.427   1.697   1.398 -2.0201  0.1897  0.9531
 1054TIP3    H2 3169   1.515   1.770   1.497  0.5312 -0.8689 -0.4303
 1055TIP3   OH2 3170   3.644   3.757   1.305  0.1898 -0.1112  0.1206
 1055TIP3    H1 3171   3.616   3.797   1.223 -0.0209 -1.4658 -0.4882
 1055TIP3    H2 3172   3.728   3.716   1.284 -0.1789 -1.0292  0.3897
 1056TIP3   OH2 3173   1.901   5.788   4.180  0.2856  0.1058  0.4940
 1056TIP3    H1 3174   1.871   5.763   4.267 -0.8543 -1.8351 -0.4144
 1056TIP3    H2 3175   1.827   5.771   4.122  1.3928  0.2633 -1.0345
 1057TIP3   OH2 3176   2.311   3.297   0.711  0.0615  0.4686  0.3054
 1057TIP3    H1 3177   2.379   3.356   0.746  0.6237  0.5392 -0.8488
 1057TIP3    H2 3178   2.337   3.210   0.743  2.0095  0.1460 -1.9018
 1058TIP3   OH2 3179   4.572   1.296   0.677 -0.3838 -0.1031 -0.5037
 1058TIP3    H1 3180   4.652   1.319   0.629 -0.0218  0.3748  0.3083
 1058TIP3    H2 3181   4.603   1.242   0.750 -1.1772 -3.1569 -2.2409
 1059TIP3   OH2 3182   6.092   5.605   4.067 -0.4646  0.3494 -0.1492
 1059TIP3    H1 3183   6.036   5.540   4.025 -0.5655  0.3724 -0.0511
 1059TIP3    H2 3184   6.034   5.649   4.129  0.0205 -0.6628  1.0647
 1060TIP3   OH2 3185   5.656   4.959   0.052  0.0176 -0.1470 -0.3936
 1060TIP3    H1 3186   5.653   5.055   0.061  1.1779 -0.2268  1.3853
 1060TIP3    H2 3187   5.728   4.943  -0.008 -0.4018  0.0832 -0.9732
 1061TIP3   OH2 3188   0.849   5.830   2.414 -0.1419  0.2192  0.2930
 1061TIP3    H1 3189   0.831   5.836   2.321  1.2259 -0.2938 -0.0274
 1061TIP3    H2 3190   0.796   5.900   2.454 -0.3820  0.7389 -0.9075
 1062TIP3   OH2 3191   2.098   3.705   2.127 -0.1783  0.0472  0.0184
 1062TIP3    H1 3192   2.134   3.784   2.168 -2.6142  0.8114  0.8669
 1062TIP3    H2 3193   2.020   3.736   2.080  1.4966 -1.0811 -3.9010
 1063TIP3   OH2 3194   5.963   3.924   2.689 -0.2731  0.7800  0.2006
 1063TIP3    H1 3195   6.011   3.991   2.641 -0.4046  0.1645 -0.8126
 1063TIP3    H2 3196   5.950   3.961   2.776 -0.9738  2.3666 -0.5474
 1064TIP3   OH2 3197   1.800   0.975   1.197  0.4806 -0.1087  0.0403
 1064TIP3    H1 3198   1.874   0.936   1.245  0.5161  1.1061  1.0124
 1064TIP3    H2 3199   1.747   0.900   1.171  1.7343 -0.9730 -0.1633
 1065TIP3   OH2 3200   0.978   0.464   3.002 -0.1845 -0.0545 -0.2943
 1065TIP3    H1 3201   1.057   0.416   3.026 -0.1518 -0.4664 -1.2072
 1065TIP3    H2 3202   1.010   0.544   2.961 -0.2461  0.0429 -0.1549
 1066TIP3   OH2 3203   3.876   0.772   3.207  0.0805  0.0124 -0.0506
 1066TIP3    H1 3204   3.904   0.686   3.175  1.4627  0.5966 -0.4741
 1066TIP3    H2 3205   3.944   0.798   3.269 -0.1319  0.9735 -0.2080
 1067TIP3   OH2 3206   5.076   0.048   1.844  0.1353  0.1509  0.4877
 1067TIP3    H1 3207   5.153  -0.009   1.839  0.1064  0.0971  0.6668
 1067TIP3    H2 3208   5.110   0.135   1.826  0.3903  0.2606  1.4579
 1068TIP3   OH2 3209   2.820   3.630   1.271  0.7362  0.0938  0.5635
 1068TIP3    H1 3210   2.812   3.543   1.310  1.0901  0.2019  0.8843
 1068TIP3    H2 3211   2.730   3.657   1.255  0.6305 -0.4423  0.2105
 1069TIP3   OH2 3212   0.122   1.479   2.701  0.2053 -0.2335 -1.0526
 1069TIP3    H1 3213   0.044   1.424   2.707 -1.0520  1.5656  1.1156
 1069TIP3    H2 3214   0.187   1.436   2.757 -0.6551  0.2214  0.3611
 1070TIP3   OH2 3215   3.322   2.241   4.608 -0.1975 -0.6864 -0.8364
 1070TIP3    H1 3216   3.313   2.157   4.562  1.5790 -2.6013  1.9812
 1070TIP3    H2 3217   3.252   2.240   4.674  0.5630 -0.5259 -0.0154
 1071TIP3   OH2 3218   2.277   2.520   3.225  0.3954  0.0541  0.2253
 1071TIP3    H1 3219   2.299   2.493   3.136 -0.1347  0.8812 -0.1629
 1071TIP3    H2 3220   2.347   2.581   3.249  1.4567 -1.4210  1.0103
 1072TIP3   OH2 3221   5.266   3.505   3.476 -0.2697  0.2613  0.3822
 1072TIP3    H1 3222   5.340   3.461   3.515 -0.2482 -0.0519 -0.0101
 1072TIP3    H2 3223   5.203   3.435   3.457 -1.5668  0.7240  2.6221
 1073TIP3   OH2 3224   2.283   0.371   4.371  0.2956 -0.2476 -0.2199
 1073TIP3    H1 3225   2.211   0.391   4.311  0.9532  1.7504 -0.4222
 1073TIP3    H2 3226   2.280   0.441   4.437  2.1999  0.0852 -0.4077
 1074TIP3   OH2 3227   4.652   4.426   2.643  0.0729  0.0788 -0.3540
 1074TIP3    H1 3228   4.606   4.405   2.562 -1.2683 -0.5935  0.5428
 1074TIP3    H2 3229   4.605   4.502   2.678  0.3858  0.1150 -0.0077
 1075TIP3   OH2 3230   4.112   2.451   4.039  0.1052  0.8936  0.4426
 1075TIP3    H1 3231   4.017   2.441   4.047  0.0693  0.9768  0.1597
 1075TIP3    H2 3232   4.140   2.486   4.123 -0.1244  0.9320  0.5046
 1076TIP3   OH2 3233   2.419   1.474   3.186 -0.1294 -0.0960  0.3318
 1076TIP3    H1 3234   2.334   1.514   3.168  1.0538  2.1416 -0.6902
 1076TIP3    H2 3235   2.479   1.549   3.198  1.7499 -1.5826  0.7677
 1077TIP3   OH2 3236   3.166   3.190   3.002  0.6249 -0.2301 -0.4954
 1077TIP3    H1 3237   3.205   3.145   3.077  0.6769 -0.7663 -0.8330
 1077TIP3    H2 3238   3.088   3.138   2.982  0.3082  0.2299 -0.4730
 1078TIP3   OH2 3239   2.262   1.658  -0.018  0.3601 -0.5011 -0.1625
 1078TIP3    H1 3240   2.226   1.672   0.070 -0.9114 -1.1974 -0.5525
 1078TIP3    H2 3241   2.237   1.568  -0.039  1.7574 -0.7822 -0.7441
 1079TIP3   OH2 3242   0.280   2.281   3.058  0.2367 -0.2517  0.2983
 1079TIP3    H1 3243   0.371   2.259   3.040  0.8602  1.3160  1.3565
 1079TIP3    H2 3244   0.276   2.376   3.048 -0.6405  0.0359  2.8403
 1080TIP3   OH2 3245   2.539   3.129   2.908  0.3886 -0.0463  0.1236
 1080TIP3    H1 3246   2.524   3.125   3.003 -1.0329 -1.1034 -0.1132
 1080TIP3    H2 3247   2.605   3.198   2.897  0.6382  0.0480  1.8769
 1081TIP3   OH2 3248   3.196   4.073   3.049 -0.2001  0.0105 -0.2970
 1081TIP3    H1 3249   3.257   4.072   3.123 -0.5583 -1.2181  0.0074
 1081TIP3    H2 3250   3.244   4.118   2.979 -0.4529  2.7236  1.1293
 1082TIP3   OH2 3251   2.266   2.757   0.554  0.0780 -0.0304 -0.2788
 1082TIP3    H1 3252   2.338   2.781   0.495  1.9906  0.5294  2.1363
 1082TIP3    H2 3253   2.296   2.785   0.640 -2.4715 -1.1053  1.0352
 1083TIP3   OH2 3254   5.781   1.149   1.425 -0.0314  0.2629 -0.4375
 1083TIP3    H1 3255   5.809   1.099   1.348  0.9349  1.1428 -0.6860
 1083TIP3    H2 3256   5.863   1.177   1.466 -0.5515  0.8722  0.2075
 1084TIP3   OH2 3257   5.066   1.896   0.823  0.2509 -0.0167 -0.1836
 1084TIP3    H1 3258   5.117   1.815   0.824  0.0808 -0.1544  1.5628
 1084TIP3    H2 3259   5.049   1.914   0.916 -1.4377  0.9249 -0.6330
 1085TIP3   OH2 3260   1.024   4.556   1.669 -0.1110 -0.0422 -0.0271
 1085TIP3    H1 3261   0.998   4.471   1.633 -1.3217 -0.3470  1.4496
 1085TIP3    H2 3262   1.053   4.537   1.758  1.6406  0.8484 -0.3702
 1086TIP3   OH2 3263   4.628   1.429   1.239  0.0073  0.1132 -0.3262
 1086TIP3    H1 3264   4.556   1.492   1.235 -0.3088 -0.1275  1.1506
 1086TIP3    H2 3265   4.604   1.362   1.175 -1.1091  0.0195  0.1610
 1087TIP3   OH2 3266   4.969   1.636   0.529 -0.0799  0.0310 -0.3392
 1087TIP3    H1 3267   5.046   1.666   0.481 -0.5923  0.3866 -0.9459
 1087TIP3    H2 3268   4.898   1.642   0.466 -0.9601  1.4523  0.7266
 1088TIP3   OH2 3269   5.531   4.732   4.124  0.2124 -0.2110  0.6478
 1088TIP3    H1 3270   5.593   4.761   4.190  1.7447  0.3270 -0.9666
 1088TIP3    H2 3271   5.484   4.811   4.099  1.1443  0.0230 -0.4219
 1089TIP3   OH2 3272   0.932   0.225   2.462  0.5115 -0.1766  0.0153
 1089TIP3    H1 3273   0.982   0.276   2.398  0.8853  0.8742  1.1290
 1089TIP3    H2 3274   0.995   0.162   2.497  0.9522  0.7967  1.0303
 1090TIP3   OH2 3275   1.054   1.231   4.394 -0.5783 -0.3925 -0.4004
 1090TIP3    H1 3276   0.993   1.224   4.321 -0.5997  1.1283 -0.5708
 1090TIP3    H2 3277   1.135   1.265   4.355  0.1368 -1.6304 -0.0490
 1091TIP3   OH2 3278   5.681   3.528   2.600  0.3614  0.5082 -0.0516
 1091TIP3    H1 3279   5.721   3.615   2.592  1.5183 -0.0483 -0.6962
 1091TIP3    H2 3280   5.587   3.545   2.602  0.5852  1.8116  0.4534
 1092TIP3   OH2 3281   1.397   0.004   1.661  0.2694 -0.0546  0.0605
 1092TIP3    H1 3282   1.326  -0.041   1.708 -1.8431  1.4705 -1.4587
 1092TIP3    H2 3283   1.408   0.087   1.707 -0.9538  0.9141 -1.2956
 1093TIP3   OH2 3284   6.290   5.501   1.976 -0.4275 -0.2352  0.4713
 1093TIP3    H1 3285   6.262   5.411   1.988 -3.4120  0.5413  0.0286
 1093TIP3    H2 3286   6.385   5.498   1.987 -0.4909 -3.3026  1.0142
 1094TIP3   OH2 3287   1.671   1.066   2.232 -0.6457  0.4268  0.2127
 1094TIP3    H1 3288   1.679   0.973   2.209  0.2052  1.1142 -2.6458
 1094TIP3    H2 3289   1.760   1.094   2.253 -1.0523  0.4201  2.1807
 1095TIP3   OH2 3290   4.012   4.905   4.021  0.0118  0.1684 -0.4524
 1095TIP3    H1 3291   4.087   4.881   4.075 -0.2601  0.2233 -0.0453
 1095TIP3    H2 3292   4.020   5.000   4.009  0.2617  0.1045 -0.8018
 1096TIP3   OH2 3293   5.353   1.159   2.990 -0.5379  0.2181 -0.5098
 1096TIP3    H1 3294   5.336   1.166   3.084  0.2682 -2.1119 -0.1061
 1096TIP3    H2 3295   5.278   1.200   2.948 -1.8247 -0.3238  1.1620
 1097TIP3   OH2 3296   0.385   5.479   4.681 -0.5076  0.3289 -0.2582
 1097TIP3    H1 3297   0.372   5.394   4.723  0.6175  0.2051 -0.1334
 1097TIP3    H2 3298   0.471   5.508   4.711 -0.0631  0.6488 -1.7740
 1098TIP3   OH2 3299   4.844   5.091   3.911 -0.6808  0.9542  0.2092
 1098TIP3    H1 3300   4.882   5.003   3.904  0.6296  1.3526  1.6704
 1098TIP3    H2 3301   4.751   5.078   3.896 -0.8770 -1.0894  2.4767
 1099TIP3   OH2 3302   1.770   2.675   4.690  0.0821  0.2534 -0.9789
 1099TIP3    H1 3303   1.732   2.760   4.669  0.5456  0.3742 -1.3555
 1099TIP3    H2 3304   1.755   2.664   4.783  2.2455  1.9103 -0.3487
 1100TIP3   OH2 3305   2.440   2.662   0.005  0.0966  0.0282 -0.0912
 1100TIP3    H1 3306   2.485   2.635   0.084  2.5332  0.9187 -1.0948
 1100TIP3    H2 3307   2.499   2.637  -0.067 -1.7926 -0.3004 -1.6235
 1101TIP3   OH2 3308   0.562   2.932   3.939  0.3751 -0.9973 -0.2410
 1101TIP3    H1 3309   0.476   2.898   3.964 -0.0892  0.5379  0.3725
 1101TIP3    H2 3310   0.576   2.899   3.851 -1.6084  0.0040 -1.0112
 1102TIP3   OH2 3311   4.929   0.252   2.799  0.1586  0.6844  0.1913
 1102TIP3    H1 3312   5.017   0.272   2.830 -0.2307  1.4940  0.8144
 1102TIP3    H2 3313   4.884   0.336   2.798 -0.6394  0.2666 -0.0298
 1103TIP3   OH2 3314   2.911   2.571   1.806  0.1034  0.4391 -0.5275
 1103TIP3    H1 3315   2.953   2.485   1.795 -1.1126 -0.0449 -1.6312
 1103TIP3    H2 3316   2.937   2.599   1.894  1.1608 -0.6992 -0.4473
 1104TIP3   OH2 3317   3.617   3.698   3.529  0.0914  0.3438  0.2309
 1104TIP3    H1 3318   3.557   3.647   3.584 -0.6623 -0.8106 -1.5901
 1104TIP3    H2 3319   3.704   3.676   3.563 -0.0707 -3.2632 -1.2159
 1105TIP3   OH2 3320   3.418   4.576   0.698 -0.3963  0.2974  0.1673
 1105TIP3    H1 3321   3.493   4.630   0.725 -1.4434  2.0453 -0.2589
 1105TIP3    H2 3322   3.358   4.638   0.657 -2.5781 -0.8473  1.4486
 1106TIP3   OH2 3323   1.843   5.619   0.088  0.2098  0.4777 -0.2367
 1106TIP3    H1 3324   1.778   5.612   0.158  2.2696  0.8625  1.8292
 1106TIP3    H2 3325   1.879   5.531   0.080 -1.9439 -0.2812 -2.9151
 1107TIP3   OH2 3326   4.344   2.959   0.074  0.3337  0.2582  0.3259
 1107TIP3    H1 3327   4.281   2.892   0.045 -0.2434  0.7629  0.3905
 1107TIP3    H2 3328   4.402   2.972  -0.001 -0.8641  1.2228 -0.4770
 1108TIP3   OH2 3329   0.839   3.419   0.297  0.6458 -0.3580  0.4501
 1108TIP3    H1 3330   0.800   3.332   0.311  0.2962  0.0378  2.2413
 1108TIP3    H2 3331   0.812   3.444   0.209 -0.4809 -1.4605  0.4516
 1109TIP3   OH2 3332   0.917   2.644   1.435  0.3675 -0.3290 -0.3082
 1109TIP3    H1 3333   0.848   2.599   1.386  0.3471  0.5149 -1.0971
 1109TIP3    H2 3334   0.870   2.692   1.503  0.4052 -1.5982  0.6506
 1110TIP3   OH2 3335   2.995   5.637   1.357 -0.1529 -0.0395  0.1835
 1110TIP3    H1 3336   2.950   5.715   1.389 -0.6013 -0.5517  0.8119
 1110TIP3    H2 3337   2.929   5.569   1.359  0.7652 -0.9311  1.5896
 1111TIP3   OH2 3338   4.148   3.684   2.733 -0.5500 -0.2880 -0.1832
 1111TIP3    H1 3339   4.149   3.603   2.783 -0.0815  0.9692  1.9647
 1111TIP3    H2 3340   4.239   3.699   2.709 -0.4123  0.3413  0.7094
 1112TIP3   OH2 3341   0.310   5.776   2.272  0.3459 -0.2221 -0.5079
 1112TIP3    H1 3342   0.333   5.843   2.336 -1.2398  1.0913 -1.2502
 1112TIP3    H2 3343   0.371   5.790   2.200  0.2993  0.1257 -0.4786
 1113TIP3   OH2 3344   1.006   0.712   4.639 -0.6821 -0.1463  0.5848
 1113TIP3    H1 3345   0.982   0.799   4.608 -0.8407 -0.1007  0.8341
 1113TIP3    H2 3346   1.076   0.727   4.703  0.8601 -0.3537 -0.9834
 1114TIP3   OH2 3347   3.535   1.903   3.965 -0.1440 -0.0348  0.3291
 1114TIP3    H1 3348   3.492   1.987   3.949 -0.6241 -0.1180  1.0763
 1114TIP3    H2 3349   3.572   1.913   4.053  0.1179 -0.4717  0.2660
 1115TIP3   OH2 3350   0.502   0.751   2.502 -0.0917 -0.3673 -0.5471
 1115TIP3    H1 3351   0.409   0.728   2.504  0.3530 -2.5056 -1.3754
 1115TIP3    H2 3352   0.526   0.759   2.594 -0.7361 -1.4714 -0.2619
 1116TIP3   OH2 3353   2.551   4.129   0.279  0.6075 -0.0459 -0.1207
 1116TIP3    H1 3354   2.470   4.139   0.329  2.0892  0.9656  2.2357
 1116TIP3    H2 3355   2.534   4.177   0.197 -1.2257 -0.0474  0.2099
 1117TIP3   OH2 3356   1.943   2.688   1.940  0.0891  0.2179  0.5453
 1117TIP3    H1 3357   1.968   2.778   1.918  1.2846 -0.0251  0.8505
 1117TIP3    H2 3358   2.019   2.636   1.917 -0.3736 -0.6505  0.9286
 1118TIP3   OH2 3359   1.780   1.917   3.289 -0.3101 -0.3698 -0.3410
 1118TIP3    H1 3360   1.825   1.878   3.364  1.5428  1.0036 -0.6734
 1118TIP3    H2 3361   1.816   1.871   3.213 -1.2633 -0.8932 -0.4956
 1119TIP3   OH2 3362   0.511   3.941   1.322  0.2812  0.1438  0.5288
 1119TIP3    H1 3363   0.500   4.026   1.278  0.1030 -0.3369 -0.3748
 1119TIP3    H2 3364   0.582   3.956   1.384  2.1736  0.2682 -1.5284
 1120TIP3   OH2 3365   5.908   3.871   3.730 -0.2949  0.0323  0.4384
 1120TIP3    H1 3366   5.974   3.869   3.660  0.5743  3.2744  0.9968
 1120TIP3    H2 3367   5.958   3.854   3.810 -0.5790  0.1340  0.6370
 1121TIP3   OH2 3368   3.308   0.686   4.937 -0.1311 -0.1160  0.0622
 1121TIP3    H1 3369   3.283   0.722   4.852  0.1731 -0.4453 -0.1717
 1121TIP3    H2 3370   3.373   0.747   4.971 -0.7501  0.3805  0.3675
 1122TIP3   OH2 3371   4.451   2.189   2.268 -0.0325 -0.8284 -0.1216
 1122TIP3    H1 3372   4.487   2.204   2.356 -0.8782 -1.0783  0.2828
 1122TIP3    H2 3373   4.462   2.272   2.223  1.7680 -1.1180 -0.2928
 1123TIP3   OH2 3374   4.963   4.644   3.764 -0.5109  0.4541 -0.2420
 1123TIP3    H1 3375   4.911   4.618   3.840  0.6951 -0.3120  0.3616
 1123TIP3    H2 3376   5.013   4.720   3.794  0.0177  0.1092 -0.2342
 1124TIP3   OH2 3377   4.852   3.730   1.538 -0.1040  0.2066  0.1078
 1124TIP3    H1 3378   4.904   3.692   1.467 -0.0021  0.7817 -0.1274
 1124TIP3    H2 3379   4.761   3.719   1.509 -0.1294 -0.8856  0.5635
 1125TIP3   OH2 3380   1.750   1.653   4.505 -0.0349 -0.0819 -0.8033
 1125TIP3    H1 3381   1.712   1.637   4.419 -1.0111  1.8359 -0.7714
 1125TIP3    H2 3382   1.820   1.716   4.490  1.6189 -1.7650 -0.5170
 1126TIP3   OH2 3383   2.357   1.607   1.308 -0.3354  0.6411 -0.1226
 1126TIP3    H1 3384   2.370   1.536   1.371 -2.3959  0.8852  0.6827
 1126TIP3    H2 3385   2.396   1.575   1.227  2.6166  0.3986  1.2614
 1127TIP3   OH2 3386   0.273   0.215   4.215  0.1598 -0.4340 -0.1310
 1127TIP3    H1 3387   0.329   0.153   4.167  1.7126 -0.3563  1.4814
 1127TIP3    H2 3388   0.330   0.252   4.282 -0.4775  3.3314 -1.4112
 1128TIP3   OH2 3389   0.713   3.163   0.227 -0.2895 -0.0388 -0.0698
 1128TIP3    H1 3390   0.619   3.180   0.228 -0.6305 -1.7171  1.1575
 1128TIP3    H2 3391   0.733   3.131   0.315  1.0859 -1.3452 -0.8067
 1129TIP3   OH2 3392   1.291   2.303   0.086  0.4612  0.1607  0.4758
 1129TIP3    H1 3393   1.323   2.213   0.086  1.5922  0.5445  0.4386
 1129TIP3    H2 3394   1.346   2.348   0.151  0.3566  0.9732  0.0164
 1130TIP3   OH2 3395   6.043   4.197   4.463 -0.4329  0.4644  0.2268
 1130TIP3    H1 3396   6.077   4.107   4.465 -3.1965 -0.7066 -0.3441
 1130TIP3    H2 3397   6.119   4.251   4.439  1.6662 -1.4782  1.9628
 1131TIP3   OH2 3398   0.040   2.104   2.333  0.4726  0.3497  0.0412
 1131TIP3    H1 3399   0.028   2.146   2.248  2.0747 -0.2133 -0.5028
 1131TIP3    H2 3400  -0.035   2.133   2.385 -0.0565  1.4315 -1.2634
 1132TIP3   OH2 3401   2.547   1.735   0.929 -0.2415 -0.4647 -0.3366
 1132TIP3    H1 3402   2.506   1.814   0.895  1.1263  0.7022  0.5890
 1132TIP3    H2 3403   2.525   1.667   0.865  0.0930  1.0567 -2.1703
 1133TIP3   OH2 3404   4.082   5.544   4.422 -0.4614 -0.1692  0.4487
 1133TIP3    H1 3405   4.154   5.520   4.479 -0.5027 -0.9799  0.1681
 1133TIP3    H2 3406   4.097   5.637   4.401 -0.2129  0.0117  1.4113
 1134TIP3   OH2 3407   4.329   4.199   4.049 -0.0751 -0.0106 -0.1025
 1134TIP3    H1 3408   4.329   4.127   4.112  0.0829 -0.9353 -1.1244
 1134TIP3    H2 3409   4.401   4.256   4.078  1.5280 -1.6184 -0.7302
 1135TIP3   OH2 3410   5.714   2.270   0.040  0.2979 -0.6550  0.1492
 1135TIP3    H1 3411   5.731   2.353  -0.005  1.7956 -0.9127  0.1728
 1135TIP3    H2 3412   5.675   2.296   0.123  0.5376  0.0196  0.0617
 1136TIP3   OH2 3413   1.630   5.187   2.468 -0.5075  0.1417  0.5044
 1136TIP3    H1 3414   1.645   5.098   2.501 -1.8238 -0.2302  0.1430
 1136TIP3    H2 3415   1.675   5.188   2.383 -0.7540 -0.2795  0.3659
 1137TIP3   OH2 3416   1.886   0.714   0.298 -0.4177 -0.3830 -0.0156
 1137TIP3    H1 3417   1.845   0.660   0.231  1.1095  1.1727 -2.3329
 1137TIP3    H2 3418   1.812   0.758   0.341 -1.3837  1.0140 -2.8712
 1138TIP3   OH2 3419   4.154   0.147   3.952  0.0661  0.3210 -0.0004
 1138TIP3    H1 3420   4.168   0.190   4.036  0.7312  3.4380 -1.5229
 1138TIP3    H2 3421   4.239   0.110   3.928 -0.0483 -0.2972  0.5318
 1139TIP3   OH2 3422   4.622   0.631   4.210 -0.3079  0.5322 -0.1383
 1139TIP3    H1 3423   4.665   0.678   4.138 -0.7542 -1.0500 -1.5118
 1139TIP3    H2 3424   4.540   0.598   4.172  0.8455 -3.0087  0.0354
 1140TIP3   OH2 3425   3.347   5.359   4.780 -0.2999  0.5692 -0.0112
 1140TIP3    H1 3426   3.401   5.400   4.848  0.1306 -1.4212  0.9121
 1140TIP3    H2 3427   3.327   5.272   4.814 -1.7546  0.2336 -1.5911
 1141TIP3   OH2 3428   4.900   1.672   3.533 -0.3604  0.4774  0.6448
 1141TIP3    H1 3429   4.834   1.654   3.600  1.2216 -3.1177  1.4745
 1141TIP3    H2 3430   4.959   1.597   3.536  3.5000  3.1212 -0.4477
 1142TIP3   OH2 3431   0.865   4.083   0.780  0.0211 -0.8825  0.9377
 1142TIP3    H1 3432   0.894   4.081   0.871  2.6710  0.3302  0.2301
 1142TIP3    H2 3433   0.943   4.060   0.730 -1.5204 -2.1155 -1.0433
 1143TIP3   OH2 3434   0.901   5.198   4.798 -0.2925  0.2908 -0.5156
 1143TIP3    H1 3435   0.921   5.179   4.706 -0.8544 -0.0245 -0.5766
 1143TIP3    H2 3436   0.917   5.292   4.807  0.6655  0.1510 -0.6988
 1144TIP3   OH2 3437   0.686   5.688   0.202  0.6179 -0.0394 -0.1552
 1144TIP3    H1 3438   0.686   5.752   0.274  0.0052 -1.5031  1.1984
 1144TIP3    H2 3439   0.737   5.614   0.234 -0.4268 -1.1051 -0.8657
 1145TIP3   OH2 3440   1.485   2.182   3.648 -0.0872 -0.2119  0.1629
 1145TIP3    H1 3441   1.515   2.266   3.615 -2.5559  0.2167 -1.2103
 1145TIP3    H2 3442   1.532   2.117   3.594  0.5640  0.3015  0.0948
 1146TIP3   OH2 3443   4.939   1.355   4.357  0.1265 -0.0966  0.2825
 1146TIP3    H1 3444   4.976   1.378   4.442  1.5698  1.5739 -0.7433
 1146TIP3    H2 3445   4.927   1.260   4.361  1.1960 -0.2013  1.9513
 1147TIP3   OH2 3446   1.638   2.116   4.787 -0.1755 -0.1533  0.6485
 1147TIP3    H1 3447   1.681   2.048   4.737  1.4042  0.4796  1.0880
 1147TIP3    H2 3448   1.666   2.101   4.877  1.4271  1.9043  0.5701
 1148TIP3   OH2 3449   3.784   0.049   3.819 -0.3552  0.2692  0.2709
 1148TIP3    H1 3450   3.694   0.037   3.849  0.0183  1.4985  2.0390
 1148TIP3    H2 3451   3.784   0.135   3.777 -0.4469 -0.6646 -1.8070
 1149TIP3   OH2 3452   2.306   1.111   1.634  0.3925 -0.3346 -0.2263
 1149TIP3    H1 3453   2.315   1.083   1.725  0.3015  0.8183  0.1504
 1149TIP3    H2 3454   2.340   1.038   1.583 -0.7795 -1.5527  0.6765
 1150TIP3   OH2 3455   4.126   0.776   2.685 -0.3133  0.1692 -0.3200
 1150TIP3    H1 3456   4.169   0.848   2.732 -0.5448 -0.4333  0.8311
 1150TIP3    H2 3457   4.161   0.782   2.596  0.2475  1.2361 -0.0475
 1151TIP3   OH2 3458   0.709   3.811   4.991  0.5287 -0.5050  0.0123
 1151TIP3    H1 3459   0.664   3.735   4.955  0.4698  0.0647 -1.1750
 1151TIP3    H2 3460   0.713   3.795   5.085 -0.0252 -1.6784 -0.1503
 1152TIP3   OH2 3461   4.946   0.171   4.480  0.1734  0.5463  0.1489
 1152TIP3    H1 3462   4.924   0.230   4.552  0.4068  0.4231  0.3217
 1152TIP3    H2 3463   4.886   0.196   4.410 -1.3526 -0.5702  1.0026
 1153TIP3   OH2 3464   5.126   4.580   3.574  0.1125  0.2549 -0.1299
 1153TIP3    H1 3465   5.061   4.593   3.643 -0.3101  0.1176 -0.4933
 1153TIP3    H2 3466   5.110   4.652   3.513 -0.4929 -0.4483 -0.8198
 1154TIP3   OH2 3467   2.156   0.223   3.927  0.6222 -0.5698 -0.4343
 1154TIP3    H1 3468   2.149   0.199   4.019  0.8187 -1.2856 -0.6025
 1154TIP3    H2 3469   2.089   0.290   3.915  1.2409  0.2384  0.4587
 1155TIP3   OH2 3470   2.289   2.419   2.749 -0.2447 -0.3502  0.3659
 1155TIP3    H1 3471   2.315   2.382   2.664  0.2769 -1.0413  0.8212
 1155TIP3    H2 3472   2.210   2.371   2.772  0.1328 -0.8098  0.7057
 1156TIP3   OH2 3473   2.176   0.756   1.491  0.5550  0.0799 -0.3401
 1156TIP3    H1 3474   2.147   0.749   1.582 -0.2956  2.7691 -0.3306
 1156TIP3    H2 3475   2.264   0.793   1.497 -0.5484  2.9957 -0.5631
 1157TIP3   OH2 3476   0.153   4.910   3.272 -0.3098  0.3841 -0.0136
 1157TIP3    H1 3477   0.099   4.877   3.200 -0.1085 -0.2796  0.1373
 1157TIP3    H2 3478   0.201   4.834   3.304  0.4579  0.8942  0.0907
 1158TIP3   OH2 3479   2.226   3.788   3.814  0.1031  0.6896 -0.4301
 1158TIP3    H1 3480   2.311   3.802   3.856  0.5104  0.8705 -1.2972
 1158TIP3    H2 3481   2.204   3.697   3.836  0.1674  0.8690  0.4087
 1159TIP3   OH2 3482   4.358   0.689   2.108 -0.3957 -0.2033  0.5385
 1159TIP3    H1 3483   4.299   0.760   2.084 -1.6624 -0.7246  1.9467
 1159TIP3    H2 3484   4.306   0.609   2.096  0.3165 -0.7425  0.9482
 1160TIP3   OH2 3485   4.564   2.020   2.064 -0.0481  0.8415  0.1280
 1160TIP3    H1 3486   4.616   2.087   2.020 -1.1482  1.5295 -0.1752
 1160TIP3    H2 3487   4.541   2.060   2.148  0.0992  0.4633  0.3470
 1161TIP3   OH2 3488   5.283   4.507   1.640 -0.1408  0.4888  0.2756
 1161TIP3    H1 3489   5.275   4.581   1.580 -3.5376  0.5647  0.6138
 1161TIP3    H2 3490   5.248   4.433   1.591 -0.9406  0.0902  1.4166
 1162TIP3   OH2 3491   0.653   1.351   4.908 -0.6253  0.5830 -0.4218
 1162TIP3    H1 3492   0.747   1.365   4.903 -0.2828 -1.5018 -0.6665
 1162TIP3    H2 3493   0.624   1.408   4.979  0.8940  0.9251 -0.0340
 1163TIP3   OH2 3494   1.082   4.428   1.304  0.3751  0.2266  0.3983
 1163TIP3    H1 3495   1.089   4.390   1.217  0.6477 -0.6088  0.7765
 1163TIP3    H2 3496   1.075   4.523   1.289 -2.2447 -0.0714 -0.6537
 1164TIP3   OH2 3497   0.884   3.119   0.008 -0.1054 -0.1639 -0.3440
 1164TIP3    H1 3498   0.974   3.122   0.040  0.0786  1.7975 -0.8918
 1164TIP3    H2 3499   0.830   3.123   0.086  0.3288  1.7877 -0.0945
 1165TIP3   OH2 3500   5.035   0.384   3.508 -0.2397 -0.0468 -0.4681
 1165TIP3    H1 3501   5.048   0.298   3.467  0.3720 -0.4592  0.5690
 1165TIP3    H2 3502   4.959   0.372   3.566  0.6892 -0.2902  0.7288
 1166TIP3   OH2 3503   4.614   1.596   2.451 -0.0285 -0.2035  0.1823
 1166TIP3    H1 3504   4.621   1.622   2.359  0.6194  2.5687  0.9109
 1166TIP3    H2 3505   4.531   1.634   2.480 -0.7521 -1.9745  0.5231
 1167TIP3   OH2 3506   5.686   4.831   1.810 -0.2156 -0.1746 -0.2844
 1167TIP3    H1 3507   5.694   4.753   1.755  1.1307 -0.3347  0.1014
 1167TIP3    H2 3508   5.598   4.825   1.848 -0.3838 -1.1380 -0.7954
 1168TIP3   OH2 3509   3.053   2.049   4.402  1.1265 -0.3717  0.1188
 1168TIP3    H1 3510   2.989   2.042   4.472  1.9166  0.1181  0.9161
 1168TIP3    H2 3511   3.136   2.023   4.442  1.5519 -0.3200 -0.7004
 1169TIP3   OH2 3512   1.592   2.241   3.228  0.6473  0.0694 -0.1435
 1169TIP3    H1 3513   1.626   2.202   3.148  1.2639 -0.7079  0.4707
 1169TIP3    H2 3514   1.503   2.268   3.207  1.4051  1.5453 -1.6182
 1170TIP3   OH2 3515   2.049   1.342   3.035 -0.4301  0.0290  0.7577
 1170TIP3    H1 3516   2.058   1.372   2.945 -3.3303  1.1574  0.7148
 1170TIP3    H2 3517   2.102   1.263   3.041  1.6281  1.1667 -1.2600
 1171TIP3   OH2 3518   0.279   4.727   4.641 -0.3121 -0.5601 -0.4973
 1171TIP3    H1 3519   0.365   4.767   4.649 -1.0525  1.1805 -0.7569
 1171TIP3    H2 3520   0.274   4.666   4.715 -0.2750  2.1366  1.8904
 1172TIP3   OH2 3521   4.697   0.654   1.401  1.0055  0.0972  0.1155
 1172TIP3    H1 3522   4.769   0.715   1.416  0.6204  0.6079 -0.0535
 1172TIP3    H2 3523   4.631   0.677   1.466 -0.1822  1.5513 -1.4882
 1173TIP3   OH2 3524   3.645   4.139   1.810  0.3782 -0.1292  0.3510
 1173TIP3    H1 3525   3.557   4.172   1.797  0.5431 -0.4500 -2.1970
 1173TIP3    H2 3526   3.699   4.217   1.822 -0.0110  0.1687  0.1720
 1174TIP3   OH2 3527   3.430   5.880   3.175 -0.4100 -0.0233  0.5852
 1174TIP3    H1 3528   3.468   5.811   3.121  3.1055  2.7678 -0.8468
 1174TIP3    H2 3529   3.494   5.894   3.245 -1.0905  1.6776  0.9215
 1175TIP3   OH2 3530   0.430   0.266   2.661 -0.1300  0.6337  0.5981
 1175TIP3    H1 3531   0.375   0.345   2.660  2.4014  2.5481  0.9833
 1175TIP3    H2 3532   0.465   0.261   2.572  1.3204  1.2336  1.0987
 1176TIP3   OH2 3533   6.141   4.725   2.165 -0.3787 -0.3373 -0.1175
 1176TIP3    H1 3534   6.113   4.719   2.256  0.9013  0.3403  0.3585
 1176TIP3    H2 3535   6.143   4.819   2.147  1.2309 -0.3571 -0.2029
 1177TIP3   OH2 3536   5.864   2.070   2.265  0.0931  0.6175 -0.9084
 1177TIP3    H1 3537   5.825   1.984   2.249  0.3462  0.3305 -0.0222
 1177TIP3    H2 3538   5.922   2.084   2.189  0.5932 -0.3128 -0.7100
 1178TIP3   OH2 3539   5.385   5.907   4.394 -0.1499 -0.4519 -0.0849
 1178TIP3    H1 3540   5.317   5.974   4.388 -0.5258 -0.9342 -1.8665
 1178TIP3    H2 3541   5.383   5.879   4.486 -0.0075  1.8939  0.6848
 1179TIP3   OH2 3542   4.141   3.822   1.336 -0.1154  0.4693 -0.1319
 1179TIP3    H1 3543   4.161   3.874   1.414  2.5043  0.1392 -0.4755
 1179TIP3    H2 3544   4.216   3.837   1.278  0.6368 -3.3393 -0.4213
 1180TIP3   OH2 3545   3.016   0.311   2.035 -0.2852  0.5444 -0.4244
 1180TIP3    H1 3546   3.099   0.265   2.041 -0.2366  0.6944  0.0935
 1180TIP3    H2 3547   3.030   0.393   2.081 -1.0185  0.1345  0.5621
 1181TIP3   OH2 3548   5.432   0.938   0.335  0.5857 -0.0720  0.4206
 1181TIP3    H1 3549   5.492   0.868   0.310 -0.6695 -2.2933  3.1210
 1181TIP3    H2 3550   5.489   1.013   0.352  2.9608 -2.3709  3.9220
 1182TIP3   OH2 3551   5.972   3.626   0.369 -0.0538 -0.1715 -0.1875
 1182TIP3    H1 3552   5.892   3.598   0.324 -0.6477 -2.2208  1.9319
 1182TIP3    H2 3553   6.042   3.573   0.330  0.1646  1.0255 -1.4700
 1183TIP3   OH2 3554   1.291   2.556   4.407  0.5394 -0.5020 -0.0890
 1183TIP3    H1 3555   1.335   2.610   4.341  0.0880  0.4163  0.3444
 1183TIP3    H2 3556   1.200   2.552   4.378  0.5765 -1.1065 -0.1513
 1184TIP3   OH2 3557   3.288   0.601   1.335  0.1206 -0.0539 -0.8014
 1184TIP3    H1 3558   3.343   0.675   1.310 -1.4671  0.8403 -1.8201
 1184TIP3    H2 3559   3.239   0.581   1.256 -0.7343 -1.0801 -0.0326
 1185TIP3   OH2 3560   6.262   2.328   3.523  0.0917  0.3727  0.4789
 1185TIP3    H1 3561   6.314   2.384   3.464  1.2038  0.6571  1.6889
 1185TIP3    H2 3562   6.172   2.356   3.508  0.5698  2.1808  0.6978
 1186TIP3   OH2 3563   3.965   5.354   0.999 -0.1897 -0.1727 -0.3429
 1186TIP3    H1 3564   3.902   5.303   1.051 -2.1590  1.3122 -1.1380
 1186TIP3    H2 3565   4.021   5.396   1.064 -2.5202  1.5614  0.6856
 1187TIP3   OH2 3566   2.735   1.117   3.804 -0.2781  0.3430  0.8568
 1187TIP3    H1 3567   2.641   1.134   3.818  0.0133  1.9464  1.1433
 1187TIP3    H2 3568   2.776   1.202   3.820  1.1275 -0.0960 -0.3076
 1188TIP3   OH2 3569   3.056   1.205   3.417 -0.0801  0.3554 -0.1163
 1188TIP3    H1 3570   3.057   1.289   3.373  0.2074  0.6502  0.4423
 1188TIP3    H2 3571   2.983   1.157   3.377  1.0940  0.0293 -1.9451
 1189TIP3   OH2 3572   4.673   3.220   3.493  0.7451  0.2421 -0.6112
 1189TIP3    H1 3573   4.689   3.129   3.466 -0.4322 -0.0266 -0.4727
 1189TIP3    H2 3574   4.694   3.272   3.416  1.3691 -0.1499 -0.7146
 1190TIP3   OH2 3575   4.508   1.857   1.572 -0.3825 -0.5131  0.1394
 1190TIP3    H1 3576   4.506   1.894   1.661  1.1562 -1.9299  0.8155
 1190TIP3    H2 3577   4.419   1.868   1.540 -1.6623 -2.1048  2.7801
 1191TIP3   OH2 3578   2.610   4.271   4.905 -0.3443  0.0488 -0.3843
 1191TIP3    H1 3579   2.695   4.229   4.890  0.9340  2.4174 -0.1988
 1191TIP3    H2 3580   2.597   4.266   5.000  0.4652  1.1899 -0.1915
 1192TIP3   OH2 3581   0.013   3.596   3.166 -0.2639  0.8332  0.4244
 1192TIP3    H1 3582   0.096   3.580   3.120  0.3527  0.6162  1.5762
 1192TIP3    H2 3583  -0.019   3.508   3.187 -1.4075  0.8660 -1.0490
 1193TIP3   OH2 3584   0.350   0.256   2.006  0.2530  0.0152 -0.1880
 1193TIP3    H1 3585   0.336   0.217   1.920  0.5667  0.0466 -0.2511
 1193TIP3    H2 3586   0.442   0.241   2.025  0.1215 -0.2467  0.2657
 1194TIP3   OH2 3587   6.190   1.225   0.847  0.0536 -0.4527  0.6934
 1194TIP3    H1 3588   6.168   1.228   0.940 -1.6799 -1.9964  0.3782
 1194TIP3    H2 3589   6.203   1.132   0.828 -0.0882 -0.2058 -0.7236
 1195TIP3   OH2 3590   1.483   1.025   1.012  0.3137  0.2264  0.7753
 1195TIP3    H1 3591   1.480   1.120   1.026  0.4655  0.4290 -0.5163
 1195TIP3    H2 3592   1.542   1.014   0.937  0.2058 -0.8870  0.8494
 1196TIP3   OH2 3593   4.848   4.361   2.330  0.1444  0.2946 -0.3277
 1196TIP3    H1 3594   4.781   4.298   2.303 -1.1640  2.0063 -1.2786
 1196TIP3    H2 3595   4.928   4.309   2.341 -0.3968 -1.2396 -3.0127
 1197TIP3   OH2 3596   1.730   4.692   0.646  0.1954 -0.0249 -0.4315
 1197TIP3    H1 3597   1.655   4.648   0.607 -0.5371  1.5609 -0.8723
 1197TIP3    H2 3598   1.712   4.693   0.739 -1.3485  2.0730 -0.6888
 1198TIP3   OH2 3599   5.698   5.538   0.382  0.0200  0.4070  0.2339
 1198TIP3    H1 3600   5.719   5.447   0.361  1.0114  0.7147 -0.1605
 1198TIP3    H2 3601   5.783   5.579   0.399 -0.3801  1.3756 -0.0547
 1199TIP3   OH2 3602   4.628   0.978   1.265 -0.0113  0.1635  0.0411
 1199TIP3    H1 3603   4.678   1.049   1.305  1.1961 -1.0526  0.7831
 1199TIP3    H2 3604   4.674   0.958   1.184 -0.2920  0.1744 -0.1215
 1200TIP3   OH2 3605   2.091   2.099   1.871  0.3024  0.0835  0.5047
 1200TIP3    H1 3606   2.172   2.072   1.827  0.7419 -0.5470  1.6456
 1200TIP3    H2 3607   2.022   2.080   1.808  0.6431 -3.1736  0.9622
 1201TIP3   OH2 3608   4.321   3.565   1.248  0.4089 -0.2344 -0.7732
 1201TIP3    H1 3609   4.325   3.568   1.344 -0.7539 -1.7902 -0.6426
 1201TIP3    H2 3610   4.413   3.566   1.220  0.8402 -1.5656  0.4559
 1202TIP3   OH2 3611   4.393   4.080   2.094 -0.1260 -0.5959 -0.1902
 1202TIP3    H1 3612   4.365   4.079   2.003  0.2200 -1.1019 -0.2978
 1202TIP3    H2 3613   4.336   4.144   2.136  0.4188  0.4187 -0.9760
 1203TIP3   OH2 3614   2.671   0.689   2.782 -0.2730  0.1157 -0.2998
 1203TIP3    H1 3615   2.583   0.691   2.745 -0.2745 -1.6734 -0.4763
 1203TIP3    H2 3616   2.663   0.736   2.865 -2.0293 -2.0853  0.8927
 1204TIP3   OH2 3617   4.204   3.022   1.247 -0.2280 -0.3475  0.0879
 1204TIP3    H1 3618   4.203   3.091   1.312 -0.2521  0.2648 -0.5509
 1204TIP3    H2 3619   4.241   3.063   1.168 -2.5069 -0.3482 -1.0552
 1205TIP3   OH2 3620   0.522   1.966   1.068  0.3625  0.8462  0.4125
 1205TIP3    H1 3621   0.431   1.947   1.091  0.6529 -0.3441  0.6412
 1205TIP3    H2 3622   0.563   1.880   1.059  0.7040  1.2433 -2.9161
 1206TIP3   OH2 3623   5.825   2.254   0.966 -0.2898  0.2275  0.2572
 1206TIP3    H1 3624   5.899   2.228   1.022 -0.8070  0.3711  1.0190
 1206TIP3    H2 3625   5.783   2.171   0.943  0.0240  0.1552 -0.0638
 1207TIP3   OH2 3626   0.578   5.921   0.483  0.3217 -0.2145 -0.5710
 1207TIP3    H1 3627   0.515   5.919   0.411 -1.1015  1.2783  0.5755
 1207TIP3    H2 3628   0.562   6.004   0.527  2.1019 -0.4679  0.6634
 1208TIP3   OH2 3629   1.720   0.453   5.199 -0.0617 -0.0038  0.8409
 1208TIP3    H1 3630   1.733   0.404   5.118  0.3238  0.4759  0.6086
 1208TIP3    H2 3631   1.697   0.542   5.169 -0.5812  0.0041  1.2543
 1209TIP3   OH2 3632   0.945   2.880   3.011 -0.0888  0.4473  0.0628
 1209TIP3    H1 3633   0.960   2.935   2.934  0.8131  1.0996  0.6734
 1209TIP3    H2 3634   0.908   2.939   3.076  0.6715  0.3054  0.6491
 1210TIP3   OH2 3635   2.775   2.045   3.873 -0.6395  0.2249 -0.3307
 1210TIP3    H1 3636   2.815   2.082   3.951 -2.1195  0.3834  0.3823
 1210TIP3    H2 3637   2.687   2.019   3.900 -0.3321 -2.0950 -1.2893
 1211TIP3   OH2 3638   4.360   3.205   4.707  0.0226  0.2363  0.3097
 1211TIP3    H1 3639   4.332   3.120   4.672 -0.0207  0.9694 -1.5510
 1211TIP3    H2 3640   4.286   3.263   4.690 -0.2861  0.5097  2.3247
 1212TIP3   OH2 3641   5.242   4.295   2.400  0.1251 -0.2756  0.1658
 1212TIP3    H1 3642   5.202   4.365   2.452  0.5413  0.1725 -0.1061
 1212TIP3    H2 3643   5.168   4.242   2.370 -1.0240  3.2912 -4.5437
 1213TIP3   OH2 3644   4.941   0.556   0.522 -0.5019 -0.0222  0.3390
 1213TIP3    H1 3645   4.873   0.533   0.458 -1.3723  0.8400  0.9199
 1213TIP3    H2 3646   4.907   0.521   0.605  0.4424 -0.8086  0.4074
 1214TIP3   OH2 3647   2.931   4.791   3.096 -0.1575 -0.2223  0.5340
 1214TIP3    H1 3648   3.001   4.839   3.139 -1.9552  1.8191  1.3795
 1214TIP3    H2 3649   2.928   4.825   3.007 -0.7499  0.4927  0.8204
 1215TIP3   OH2 3650   1.204   3.830   1.729 -0.3530  0.6092  0.8383
 1215TIP3    H1 3651   1.274   3.769   1.703 -1.1369  0.1256 -0.2240
 1215TIP3    H2 3652   1.208   3.831   1.825  2.7376  2.5484  0.8322
 1216TIP3   OH2 3653   6.180   1.880   3.803 -0.1109  0.1764 -0.0528
 1216TIP3    H1 3654   6.196   1.934   3.726  0.4126 -0.2403 -0.2456
 1216TIP3    H2 3655   6.233   1.802   3.789 -1.0271 -0.5008  0.1074
 1217TIP3   OH2 3656   4.589   5.073   2.629  0.1656 -0.0110  0.0386
 1217TIP3    H1 3657   4.519   5.137   2.619  0.7520  0.2705 -3.2120
 1217TIP3    H2 3658   4.546   4.988   2.621  0.0527  0.1477 -1.2068
 1218TIP3   OH2 3659   3.434   4.495   1.968  0.5287 -0.3076 -0.2346
 1218TIP3    H1 3660   3.444   4.571   2.024 -0.8130  0.3374 -0.8326
 1218TIP3    H2 3661   3.407   4.530   1.883  0.3194 -1.4122 -0.6477
 1219TIP3   OH2 3662   4.308   1.364   5.048 -0.3014 -0.2523 -0.3361
 1219TIP3    H1 3663   4.334   1.434   5.108  1.3855  1.3421 -2.7145
 1219TIP3    H2 3664   4.390   1.320   5.026 -0.5364  0.3474 -2.7114
 1220TIP3   OH2 3665   4.453   3.617   0.391  0.4078 -0.4077 -0.2041
 1220TIP3    H1 3666   4.547   3.616   0.372  0.4010  0.6343 -0.3353
 1220TIP3    H2 3667   4.429   3.524   0.393  1.3968 -0.6877 -0.3584
 1221TIP3   OH2 3668   5.697   4.700   0.893  0.5916  0.0939  0.1247
 1221TIP3    H1 3669   5.682   4.685   0.800  1.4867 -1.1749  0.1637
 1221TIP3    H2 3670   5.732   4.789   0.897 -1.0227  0.8074 -0.5517
 1222TIP3   OH2 3671   2.002   2.115   3.282  0.3739  0.0584 -0.5223
 1222TIP3    H1 3672   1.927   2.056   3.291  0.7949 -0.4333 -0.1664
 1222TIP3    H2 3673   1.993   2.151   3.194  0.2983 -0.8185 -0.8885
 1223TIP3   OH2 3674   0.429   5.781   4.967  0.8072 -0.1181 -0.1336
 1223TIP3    H1 3675   0.493   5.769   4.897 -0.2815  0.5743 -1.2804
 1223TIP3    H2 3676   0.379   5.699   4.968  1.3422 -0.4522  0.4136
 1224TIP3   OH2 3677   1.970   3.132   3.885 -0.2710 -0.6569  0.1012
 1224TIP3    H1 3678   1.951   3.126   3.792  1.6137 -1.9233 -0.2452
 1224TIP3    H2 3679   1.944   3.047   3.921  0.4036 -0.7299  0.4353
 1225TIP3   OH2 3680   0.501   5.055   4.456  0.3860 -0.4766 -0.5618
 1225TIP3    H1 3681   0.589   5.085   4.435 -0.1509  0.4269 -1.6563
 1225TIP3    H2 3682   0.449   5.136   4.461 -0.3652 -0.9860  0.1447
 1226TIP3   OH2 3683   3.158   2.404   3.540 -0.2361  0.1437  0.3129
 1226TIP3    H1 3684   3.165   2.483   3.594  0.5341 -0.0538  0.5086
 1226TIP3    H2 3685   3.075   2.415   3.493 -0.0617  1.1538  0.2106
 1227TIP3   OH2 3686   3.599   5.214   4.598 -0.3655  0.3704 -0.4231
 1227TIP3    H1 3687   3.572   5.235   4.509  0.7226 -0.2721 -0.9152
 1227TIP3    H2 3688   3.540   5.265   4.653 -1.1800  0.6239 -1.4992
 1228TIP3   OH2 3689   2.048   5.453   1.069  0.2378  0.3588  0.1178
 1228TIP3    H1 3690   2.069   5.361   1.054  0.6322 -0.2592  3.5810
 1228TIP3    H2 3691   1.997   5.453   1.150  3.3289  3.3665  2.3715
 1229TIP3   OH2 3692   4.767   4.302   1.283  0.2910 -0.4064 -0.7352
 1229TIP3    H1 3693   4.746   4.209   1.289  2.2227 -0.8731 -0.5401
 1229TIP3    H2 3694   4.808   4.323   1.367 -2.2629  1.2775  0.2201
 1230TIP3   OH2 3695   0.272   0.437   0.346 -0.2942  0.3626  0.1515
 1230TIP3    H1 3696   0.349   0.474   0.389  0.0103  1.4318 -1.2310
 1230TIP3    H2 3697   0.260   0.352   0.388  0.9980  0.6254  1.1349
 1231TIP3   OH2 3698   3.810   2.570   1.204  0.3369  0.3970 -0.0059
 1231TIP3    H1 3699   3.887   2.621   1.181  0.2020  0.4126 -0.4177
 1231TIP3    H2 3700   3.780   2.531   1.122 -0.2627  0.6221  0.0961
 1232TIP3   OH2 3701   1.360   0.156   0.549  0.6081 -0.6193  0.1015
 1232TIP3    H1 3702   1.287   0.139   0.608  1.3405  0.8858  1.5341
 1232TIP3    H2 3703   1.430   0.188   0.607  1.6417  0.0933 -1.4837
 1233TIP3   OH2 3704   5.163   1.957   4.672 -0.4478 -0.4219 -0.5338
 1233TIP3    H1 3705   5.168   1.900   4.749  1.3001  1.9607  1.3048
 1233TIP3    H2 3706   5.075   1.994   4.675 -0.4739 -0.5214  0.2295
 1234TIP3   OH2 3707   2.519   5.046   5.102 -0.1638  0.6100 -0.1658
 1234TIP3    H1 3708   2.505   5.116   5.038 -0.1229  2.5906  1.8574
 1234TIP3    H2 3709   2.593   5.077   5.155  0.7229 -1.6114  0.0169
 1235TIP3   OH2 3710   1.347   4.691   4.183  0.3235  0.2153 -0.1714
 1235TIP3    H1 3711   1.251   4.694   4.183  0.3303  1.1847 -1.4035
 1235TIP3    H2 3712   1.372   4.729   4.099  1.8045  0.3002  0.2845
 1236TIP3   OH2 3713   4.288   1.751   0.245  0.4114 -0.0632 -0.0257
 1236TIP3    H1 3714   4.217   1.806   0.279  0.6111 -0.6831  1.4837
 1236TIP3    H2 3715   4.366   1.782   0.292  0.7205 -0.8814  0.0060
 1237TIP3   OH2 3716   4.329   0.600   3.135  0.0295 -0.2899  0.4725
 1237TIP3    H1 3717   4.267   0.548   3.185 -0.9849 -0.3029 -0.7655
 1237TIP3    H2 3718   4.415   0.577   3.171 -0.6099 -0.9414  1.5974
 1238TIP3   OH2 3719   2.939   0.803   3.077  0.1960 -0.4662  0.2483
 1238TIP3    H1 3720   2.977   0.787   2.991  0.3373  0.7435  0.0649
 1238TIP3    H2 3721   3.007   0.850   3.126 -1.0621  1.9529 -0.1699
 1239TIP3   OH2 3722   4.022   0.753   0.899  0.1923  0.2639  0.5044
 1239TIP3    H1 3723   3.984   0.710   0.822 -0.3772  0.4857  0.6583
 1239TIP3    H2 3724   4.108   0.711   0.910  0.4339  0.4713 -0.4583
 1240TIP3   OH2 3725   2.081   3.314   4.282 -0.1185 -0.3465 -0.1790
 1240TIP3    H1 3726   2.163   3.279   4.247 -0.1741 -1.0668  0.3740
 1240TIP3    H2 3727   2.079   3.283   4.373 -1.3164 -0.9175 -0.3791
 1241TIP3   OH2 3728   3.017   2.722   2.966  0.1322  0.5399  0.4479
 1241TIP3    H1 3729   3.079   2.666   3.013  0.0222  1.1938  1.3933
 1241TIP3    H2 3730   3.043   2.715   2.875 -0.6856 -2.1110  0.3105
 1242TIP3   OH2 3731   0.839   1.575   0.228  0.2297 -0.2907 -0.7002
 1242TIP3    H1 3732   0.808   1.659   0.262 -1.7341 -0.5975 -1.6363
 1242TIP3    H2 3733   0.812   1.511   0.295 -0.9259 -0.5149 -1.3573
 1243TIP3   OH2 3734   2.923   1.758   2.720 -0.8162  0.3873 -0.5120
 1243TIP3    H1 3735   2.833   1.734   2.701 -1.1095 -0.6505  1.8462
 1243TIP3    H2 3736   2.917   1.834   2.777 -0.1457  0.9425 -1.1577
 1244TIP3   OH2 3737   1.683   5.616   3.446 -0.0185 -0.5559 -0.1494
 1244TIP3    H1 3738   1.606   5.658   3.484 -1.1388 -1.2286 -1.6056
 1244TIP3    H2 3739   1.726   5.573   3.520 -1.4121 -0.7531  0.5723
 1245TIP3   OH2 3740   0.837   3.067   1.592 -0.1149 -0.6678  0.2020
 1245TIP3    H1 3741   0.921   3.021   1.596 -0.2576 -0.8684  1.4870
 1245TIP3    H2 3742   0.851   3.147   1.643 -0.8709 -1.0249  0.9990
 1246TIP3   OH2 3743   5.424   4.754   4.827 -1.0089 -0.3027  0.0246
 1246TIP3    H1 3744   5.416   4.844   4.797 -0.5999 -0.2438  0.0844
 1246TIP3    H2 3745   5.335   4.719   4.823 -1.5060  0.6309  1.6720
 1247TIP3   OH2 3746   5.055   2.956   4.525  0.4898 -0.1168  0.1237
 1247TIP3    H1 3747   5.051   2.861   4.534 -2.0765  0.0315  1.6749
 1247TIP3    H2 3748   5.079   2.971   4.433  0.0575 -2.2610 -0.3863
 1248TIP3   OH2 3749   5.649   2.223   3.832  0.3314  0.2778 -0.1933
 1248TIP3    H1 3750   5.612   2.168   3.763 -0.0895  1.3882 -0.8872
 1248TIP3    H2 3751   5.578   2.232   3.895  0.3318  0.1946 -0.1805
 1249TIP3   OH2 3752   4.532   2.842   3.230  0.3149 -0.2257  0.2726
 1249TIP3    H1 3753   4.437   2.830   3.222  0.4463 -1.1700 -0.0876
 1249TIP3    H2 3754   4.569   2.761   3.195  1.2373 -0.3007  1.3753
 1250TIP3   OH2 3755   5.313   1.485   2.438  0.0303 -0.9825 -1.1771
 1250TIP3    H1 3756   5.378   1.438   2.490 -0.0126  0.1446 -0.0336
 1250TIP3    H2 3757   5.242   1.422   2.425  1.1420 -2.0920 -2.0792
 1251TIP3   OH2 3758   2.180   5.602   1.488  0.1233  0.0839 -0.0280
 1251TIP3    H1 3759   2.259   5.650   1.514  1.1683 -1.1692 -0.7280
 1251TIP3    H2 3760   2.209   5.547   1.415 -0.7523 -2.3064  1.3040
 1252TIP3   OH2 3761   3.341   6.006   4.622 -0.3157  0.2523 -0.2747
 1252TIP3    H1 3762   3.378   5.947   4.688 -0.6915  0.1997 -0.1103
 1252TIP3    H2 3763   3.356   5.961   4.539  1.2242  0.8501 -0.3546
 1253TIP3   OH2 3764   4.669   3.397   3.257  0.6288  0.3113  0.3754
 1253TIP3    H1 3765   4.608   3.470   3.248  2.6665  2.2818  1.6180
 1253TIP3    H2 3766   4.754   3.433   3.233  1.4526 -2.2554 -0.9648
 1254TIP3   OH2 3767   5.640   3.434   4.651  0.2223  0.2930 -0.4705
 1254TIP3    H1 3768   5.700   3.467   4.584  1.9309  0.6487  1.1559
 1254TIP3    H2 3769   5.622   3.344   4.625  1.4579  0.1828 -1.0275
 1255TIP3   OH2 3770   5.825   3.539   4.845 -0.3801  0.7117 -0.4230
 1255TIP3    H1 3771   5.736   3.512   4.823 -0.0545 -0.3880 -0.4840
 1255TIP3    H2 3772   5.820   3.633   4.856 -1.7432  0.5514  0.5225
 1256TIP3   OH2 3773   4.292   5.152   2.597  0.1138  0.1226  0.4359
 1256TIP3    H1 3774   4.201   5.167   2.572 -0.7734 -3.0201  1.2627
 1256TIP3    H2 3775   4.297   5.182   2.688 -0.0141  0.5558  0.3025
 1257TIP3   OH2 3776   4.993   5.847   4.525  0.0669 -0.3867 -0.0871
 1257TIP3    H1 3777   5.010   5.763   4.567 -0.6363 -0.1320  0.7631
 1257TIP3    H2 3778   4.898   5.860   4.536 -0.3287 -0.7456 -2.6515
 1258TIP3   OH2 3779   6.099   2.515   4.112  0.4724  1.1951  0.5446
 1258TIP3    H1 3780   6.024   2.571   4.133 -0.5911 -0.1965  0.6823
 1258TIP3    H2 3781   6.115   2.531   4.019 -0.5984  0.8847  0.2823
 1259TIP3   OH2 3782   4.606   5.820   3.472 -0.2219 -0.2224  0.4947
 1259TIP3    H1 3783   4.538   5.861   3.526 -1.0502 -1.5710  0.5341
 1259TIP3    H2 3784   4.677   5.801   3.533 -0.1554  0.4347  0.6256
 1260TIP3   OH2 3785   5.137   5.151   0.880 -0.1232 -0.0171  0.2263
 1260TIP3    H1 3786   5.180   5.236   0.873 -0.3119  0.2261  1.6558
 1260TIP3    H2 3787   5.045   5.173   0.895 -0.3327 -0.4977 -0.3146
 1261TIP3   OH2 3788   2.377   2.938   0.069  0.8500 -0.0775 -0.2608
 1261TIP3    H1 3789   2.313   2.980   0.126  0.1566  0.1840 -1.2125
 1261TIP3    H2 3790   2.339   2.852   0.048  0.6889  0.1597 -0.9940
 1262TIP3   OH2 3791   5.632   4.056   4.802 -0.4336 -0.2410  0.0492
 1262TIP3    H1 3792   5.705   4.097   4.850 -0.1422 -0.4884 -0.1740
 1262TIP3    H2 3793   5.628   4.103   4.720  0.3075 -1.0368 -0.4718
 1263TIP3   OH2 3794   2.112   2.136   3.567  0.1138 -0.0683 -0.2088
 1263TIP3    H1 3795   2.179   2.068   3.568 -1.2569 -1.6423 -2.9795
 1263TIP3    H2 3796   2.055   2.113   3.494 -2.0610  2.5537  0.4701
 1264TIP3   OH2 3797   0.880   3.069   4.613 -0.2850  0.2627  0.1073
 1264TIP3    H1 3798   0.875   3.005   4.684  0.6308 -0.5369 -0.5387
 1264TIP3    H2 3799   0.815   3.040   4.549  0.1198 -0.0109 -0.1790
 1265TIP3   OH2 3800   6.085   3.360   3.059  0.2155  0.2260  0.1449
 1265TIP3    H1 3801   6.179   3.345   3.069  0.2734  0.7516  0.4332
 1265TIP3    H2 3802   6.046   3.273   3.064  0.8449 -0.2422 -1.8707
 1266TIP3   OH2 3803   3.477   3.314   1.634  0.0357  0.2016  0.4900
 1266TIP3    H1 3804   3.541   3.293   1.566  3.0559 -0.4776  3.2703
 1266TIP3    H2 3805   3.393   3.318   1.588  1.7275 -1.0249 -3.0697
 1267TIP3   OH2 3806   3.879   2.983   2.645 -0.1230  0.0205 -0.2453
 1267TIP3    H1 3807   3.951   3.002   2.705  1.6674 -1.3688 -1.8382
 1267TIP3    H2 3808   3.878   3.058   2.585 -0.2962  0.2348  0.0208
 1268TIP3   OH2 3809   5.492   1.465   0.841  0.1726  0.7988  0.1468
 1268TIP3    H1 3810   5.517   1.460   0.749  1.1946 -0.9499  0.4664
 1268TIP3    H2 3811   5.514   1.554   0.867 -0.9248  1.6040 -1.4917
 1269TIP3   OH2 3812   3.685   2.871   0.030  0.1922 -0.7247  0.0180
 1269TIP3    H1 3813   3.699   2.924  -0.049  0.3024  1.8205  1.6155
 1269TIP3    H2 3814   3.593   2.845   0.026  0.1352 -0.4342 -0.8176
 1270TIP3   OH2 3815   6.262   3.582   2.542  0.1095  0.2106  0.8216
 1270TIP3    H1 3816   6.326   3.626   2.598 -0.2433  1.5362  0.2355
 1270TIP3    H2 3817   6.285   3.609   2.453  0.3871 -1.5057  0.3479
 1271TIP3   OH2 3818   1.584   3.224   5.077 -0.0927  0.0839 -0.0472
 1271TIP3    H1 3819   1.599   3.131   5.059 -2.1396 -0.5796  1.3077
 1271TIP3    H2 3820   1.669   3.258   5.103  0.7617 -1.3209 -0.9011
 1272TIP3   OH2 3821   5.055   3.705   0.416 -0.5503 -0.1329  0.2279
 1272TIP3    H1 3822   4.972   3.705   0.369 -0.5638  0.8603  0.2434
 1272TIP3    H2 3823   5.031   3.708   0.508 -0.5112  2.3003  0.2033
 1273TIP3   OH2 3824   3.079   3.052   2.377 -0.2382 -0.5851  0.0291
 1273TIP3    H1 3825   3.079   2.958   2.359 -0.4056 -0.9379  1.7110
 1273TIP3    H2 3826   3.095   3.092   2.292  3.1727 -2.2361 -0.2767
 1274TIP3   OH2 3827   5.019   5.980   1.653 -0.5002  0.0506 -0.6422
 1274TIP3    H1 3828   5.076   5.913   1.616  1.1721  1.9624 -1.7207
 1274TIP3    H2 3829   5.002   5.951   1.743  2.9831 -0.1843  0.0818
 1275TIP3   OH2 3830   5.674   5.555   5.065  0.1660 -0.1368 -0.0869
 1275TIP3    H1 3831   5.737   5.483   5.064  0.4953  0.1143  0.9333
 1275TIP3    H2 3832   5.604   5.527   5.006  1.1145 -0.5228 -1.0516
 1276TIP3   OH2 3833   0.467   4.850   2.323 -0.0309  0.3832  0.5898
 1276TIP3    H1 3834   0.530   4.870   2.255 -0.2895 -1.3061 -0.1933
 1276TIP3    H2 3835   0.417   4.776   2.289 -1.4340  0.7009  1.8221
 1277TIP3   OH2 3836   0.516   5.874   3.650  0.2927 -0.2100 -0.2144
 1277TIP3    H1 3837   0.427   5.846   3.670  1.3322 -2.6095  1.5242
 1277TIP3    H2 3838   0.528   5.850   3.558 -0.5132 -0.9062 -0.1494
 1278TIP3   OH2 3839   3.592   3.761   2.037 -0.0513 -0.0352  0.1661
 1278TIP3    H1 3840   3.660   3.694   2.042  1.3942  1.2264 -1.3228
 1278TIP3    H2 3841   3.606   3.803   1.953 -4.0832 -1.0832 -1.2485
 1279TIP3   OH2 3842   3.544   2.955   0.761  0.4217  0.5344 -0.1381
 1279TIP3    H1 3843   3.594   2.907   0.827 -0.1031 -0.1899 -0.2574
 1279TIP3    H2 3844   3.508   3.030   0.807  1.8359  1.2315 -0.1098
 1280TIP3   OH2 3845   1.529   2.351   2.550  0.6856 -0.6633 -0.6090
 1280TIP3    H1 3846   1.537   2.391   2.463  0.9269  0.4985 -0.0636
 1280TIP3    H2 3847   1.507   2.259   2.532 -0.7093 -0.1142 -1.8809
 1281TIP3   OH2 3848   5.567   3.861   3.985 -0.5546 -0.3147 -0.3667
 1281TIP3    H1 3849   5.659   3.859   4.011 -0.2678 -1.4249 -1.3699
 1281TIP3    H2 3850   5.520   3.874   4.067  0.5062  1.1578  0.0673
 1282TIP3   OH2 3851   5.271   3.960   2.319  0.2175  0.1806 -0.1455
 1282TIP3    H1 3852   5.315   4.016   2.256 -3.0244  3.0990 -0.1203
 1282TIP3    H2 3853   5.222   3.897   2.266  2.3067 -1.5006 -0.2183
 1283TIP3   OH2 3854   5.724   2.638   0.806 -0.1623 -0.3596  0.2720
 1283TIP3    H1 3855   5.689   2.715   0.850 -0.0069 -1.6703  2.8800
 1283TIP3    H2 3856   5.815   2.633   0.834  0.4609 -0.3341 -1.6183
 1284TIP3   OH2 3857   5.697   0.466   2.098 -0.2811 -0.0402  0.3477
 1284TIP3    H1 3858   5.604   0.485   2.097 -0.0606  1.0912  0.5047
 1284TIP3    H2 3859   5.726   0.482   2.008 -0.5153 -1.9538 -0.1147
 1285TIP3   OH2 3860   3.564   4.862   4.043 -0.4022 -0.5297  0.1204
 1285TIP3    H1 3861   3.593   4.872   3.952 -0.8884  0.8220  0.0924
 1285TIP3    H2 3862   3.559   4.767   4.056  1.3291 -0.7699 -0.7144
 1286TIP3   OH2 3863   0.863   3.790   2.838  0.2587 -0.0567 -0.4801
 1286TIP3    H1 3864   0.897   3.705   2.809  1.8841  0.7346 -1.0292
 1286TIP3    H2 3865   0.850   3.840   2.757 -1.0119  0.1345 -0.1886
 1287TIP3   OH2 3866   2.236   2.846   0.831 -0.0390 -0.0166 -0.4767
 1287TIP3    H1 3867   2.268   2.929   0.866  1.4522 -0.6542 -0.2622
 1287TIP3    H2 3868   2.147   2.865   0.800  0.3075  1.6670 -0.4992
 1288TIP3   OH2 3869   2.922   4.013   3.888  0.1897  0.4323  0.0316
 1288TIP3    H1 3870   2.970   4.088   3.852 -1.7282  2.0063  0.5641
 1288TIP3    H2 3871   2.835   4.020   3.850 -0.1486 -1.3814  0.3601
 1289TIP3   OH2 3872   4.060   4.236   1.928  0.0343 -0.2489  0.1228
 1289TIP3    H1 3873   4.153   4.238   1.904 -0.1371  0.1444 -0.5279
 1289TIP3    H2 3874   4.032   4.328   1.927 -0.9897 -0.5125 -2.2663
 1290TIP3   OH2 3875   3.402   5.094   3.215 -0.3924 -0.0622  0.0730
 1290TIP3    H1 3876   3.404   5.168   3.153 -2.5713 -1.4823 -1.8447
 1290TIP3    H2 3877   3.476   5.111   3.273  1.4016  1.7585 -2.4743
 1291TIP3   OH2 3878   5.580   3.920   3.728  0.1669  0.0659  0.1947
 1291TIP3    H1 3879   5.569   3.878   3.813 -0.5029 -0.1543  0.0036
 1291TIP3    H2 3880   5.640   3.863   3.680  0.4275  0.1130  0.4613
 1292TIP3   OH2 3881   0.572   2.224   1.986  0.0584 -0.8803 -0.1423
 1292TIP3    H1 3882   0.527   2.199   1.905 -0.1303 -0.8679 -0.0416
 1292TIP3    H2 3883   0.508   2.279   2.033  1.5832  2.6658 -1.8653
 1293TIP3   OH2 3884   5.552   2.259   2.003  0.3696  0.1003  0.0946
 1293TIP3    H1 3885   5.512   2.283   1.920  0.3307 -0.5285 -0.0737
 1293TIP3    H2 3886   5.644   2.284   1.994  1.3807 -3.5159 -1.7165
 1294TIP3   OH2 3887   2.298   3.506   1.564  0.5425  0.4392  0.0992
 1294TIP3    H1 3888   2.330   3.576   1.507 -0.0999  2.2079  1.7946
 1294TIP3    H2 3889   2.372   3.487   1.623  0.6687 -0.2455 -0.2652
 1295TIP3   OH2 3890   0.306   4.968   4.269  0.4175  0.3055 -0.8286
 1295TIP3    H1 3891   0.337   4.879   4.250  0.1240 -0.2776  1.2517
 1295TIP3    H2 3892   0.385   5.014   4.298  0.1074 -0.0265  0.5741
 1296TIP3   OH2 3893   1.670   0.554   4.828 -0.1731  0.0490  0.2688
 1296TIP3    H1 3894   1.757   0.563   4.789 -0.4875  1.6159 -0.1373
 1296TIP3    H2 3895   1.642   0.465   4.804  1.2392 -0.4238  0.2956
 1297TIP3   OH2 3896   1.712   5.310   4.283 -0.5372 -1.0307 -0.3779
 1297TIP3    H1 3897   1.804   5.333   4.295 -0.5423 -0.0841 -1.8622
 1297TIP3    H2 3898   1.688   5.351   4.200 -1.5203 -3.6421 -1.4928
 1298TIP3   OH2 3899   2.673   2.843   3.983 -0.8439 -0.4344  0.1376
 1298TIP3    H1 3900   2.587   2.820   4.018 -0.4865  0.9050  2.0774
 1298TIP3    H2 3901   2.699   2.921   4.032  1.1096 -0.3001 -0.9985
 1299TIP3   OH2 3902   5.054   3.837   4.278  0.1136  0.0576 -0.2474
 1299TIP3    H1 3903   4.978   3.784   4.255 -1.1322  1.9703 -0.7561
 1299TIP3    H2 3904   5.017   3.916   4.317  1.8435  0.9988 -0.4112
 1300TIP3   OH2 3905   2.441   4.070   1.529  0.1527 -0.3175 -0.3061
 1300TIP3    H1 3906   2.348   4.062   1.549  0.1858 -3.1305 -0.7895
 1300TIP3    H2 3907   2.444   4.106   1.440 -0.4439  0.1740 -0.1306
 1301TIP3   OH2 3908   1.510   0.464   3.817  0.5708  0.2991 -0.3703
 1301TIP3    H1 3909   1.489   0.371   3.807  0.0319  0.2957  0.6910
 1301TIP3    H2 3910   1.425   0.509   3.811  0.8137  0.7271 -0.7614
 1302TIP3   OH2 3911   1.097   2.950   1.607 -0.0418  0.2761 -0.3697
 1302TIP3    H1 3912   1.190   2.950   1.629 -0.3722 -1.5754  1.3894
 1302TIP3    H2 3913   1.077   2.857   1.592 -2.0312  0.3343  1.4908
 1303TIP3   OH2 3914   0.229   2.883   3.215  0.8301 -0.0291  0.2928
 1303TIP3    H1 3915   0.154   2.837   3.253  0.6236  0.0532 -0.0112
 1303TIP3    H2 3916   0.291   2.813   3.192  0.1674 -0.2392 -0.9367
 1304TIP3   OH2 3917   2.239   0.833   4.259  0.1154 -0.1827  0.5536
 1304TIP3    H1 3918   2.303   0.819   4.329  0.8595  0.4396  0.0066
 1304TIP3    H2 3919   2.239   0.750   4.210  0.0453 -0.3992  0.9150
 1305TIP3   OH2 3920   5.445   2.240   1.004  0.1023 -0.1114 -0.0477
 1305TIP3    H1 3921   5.490   2.319   1.034  1.8693 -1.3422  0.7250
 1305TIP3    H2 3922   5.359   2.244   1.045  0.4545  1.0049  0.6167
 1306TIP3   OH2 3923   2.939   0.760   5.104  0.9902  0.1819  0.1672
 1306TIP3    H1 3924   2.984   0.844   5.096 -1.1808  1.5191  1.0421
 1306TIP3    H2 3925   2.972   0.709   5.031  2.8657  1.5257 -0.0241
 1307TIP3   OH2 3926   3.677   3.927   0.103 -0.0869 -0.9920  0.0371
 1307TIP3    H1 3927   3.759   3.915   0.056 -0.0749  2.3318 -1.0293
 1307TIP3    H2 3928   3.698   3.990   0.172 -1.7926  0.3293 -0.5779
 1308TIP3   OH2 3929   3.442   3.183   0.852 -0.2831 -0.5083 -0.0436
 1308TIP3    H1 3930   3.526   3.227   0.846 -0.4246 -0.2046  0.2111
 1308TIP3    H2 3931   3.380   3.251   0.877 -0.1343 -1.2471  2.6898
 1309TIP3   OH2 3932   3.320   3.580   2.231  0.6464  0.4007  0.3065
 1309TIP3    H1 3933   3.345   3.490   2.213 -1.2090  0.1634 -1.4997
 1309TIP3    H2 3934   3.362   3.631   2.162 -1.9482  0.2365 -1.5543
 1310TIP3   OH2 3935   3.204   5.970   3.038  0.2651 -0.2656 -0.0937
 1310TIP3    H1 3936   3.148   6.013   3.103 -1.3028 -1.7745 -0.3598
 1310TIP3    H2 3937   3.278   5.936   3.089 -0.1075 -0.0160  0.6348
 1311TIP3   OH2 3938   5.842   0.227   2.095 -0.3481  0.5241  0.7122
 1311TIP3    H1 3939   5.891   0.256   2.018 -0.4154 -1.4023 -0.1109
 1311TIP3    H2 3940   5.773   0.292   2.105 -1.6884 -0.2670 -2.2337
 1312TIP3   OH2 3941   3.337   3.009   4.069  0.3863 -0.3438  0.1245
 1312TIP3    H1 3942   3.403   3.056   4.121  0.8849 -0.3895 -0.4481
 1312TIP3    H2 3943   3.254   3.031   4.109  0.8007 -0.7869  1.2567
 1313TIP3   OH2 3944   0.387   3.062   4.213 -0.2943  0.5382 -0.0171
 1313TIP3    H1 3945   0.414   3.017   4.293  1.3774  1.9772  0.2919
 1313TIP3    H2 3946   0.445   3.027   4.145 -1.2363 -0.1697 -0.4727
 1314TIP3   OH2 3947   0.674   3.388   3.618 -0.1082 -0.0966 -0.2983
 1314TIP3    H1 3948   0.590   3.345   3.632 -0.2372  0.5140  1.0173
 1314TIP3    H2 3949   0.734   3.342   3.678 -0.1788  1.2826  0.8918
 1315TIP3   OH2 3950   1.240   0.637   0.536  0.1931  0.1213 -0.9234
 1315TIP3    H1 3951   1.167   0.617   0.595  0.5588  0.7046 -0.2531
 1315TIP3    H2 3952   1.225   0.582   0.459  0.3766 -1.6137  0.2192
 1316TIP3   OH2 3953   2.524   5.312   1.935  0.2003 -0.5571 -0.7204
 1316TIP3    H1 3954   2.497   5.365   2.010 -2.8359 -2.3915 -0.3530
 1316TIP3    H2 3955   2.617   5.298   1.947  0.2091  1.0007  1.5105
 1317TIP3   OH2 3956   3.302   0.789   4.689 -0.8230  0.2031  0.2377
 1317TIP3    H1 3957   3.360   0.827   4.624 -1.0738  0.4555  0.1567
 1317TIP3    H2 3958   3.214   0.807   4.656 -0.9689  1.2217  1.1451
 1318TIP3   OH2 3959   4.252   4.717   0.888  0.2515 -0.0990 -0.1612
 1318TIP3    H1 3960   4.275   4.649   0.951  0.3081  1.3958  1.5030
 1318TIP3    H2 3961   4.213   4.669   0.815  2.2202 -2.0918 -0.0174
 1319TIP3   OH2 3962   5.811   0.504   1.845 -0.2476  0.5988 -0.0971
 1319TIP3    H1 3963   5.754   0.544   1.779 -0.6055 -0.2938 -0.3437
 1319TIP3    H2 3964   5.898   0.507   1.807 -0.5522 -0.5302 -0.9187
 1320TIP3   OH2 3965   4.085   5.794   4.246 -0.2817 -0.4069  0.1141
 1320TIP3    H1 3966   4.068   5.857   4.315 -1.2242  0.3208 -0.7618
 1320TIP3    H2 3967   4.037   5.827   4.170 -0.4689 -1.9524 -0.4851
 1321TIP3   OH2 3968   4.785   5.694   0.582  0.2588  0.0934 -0.4025
 1321TIP3    H1 3969   4.762   5.747   0.658 -1.6176 -1.4969  0.2305
 1321TIP3    H2 3970   4.858   5.640   0.612  1.0835  1.1125 -0.5264
 1322TIP3   OH2 3971   1.282   0.673   1.132 -0.1547  0.1023  0.4100
 1322TIP3    H1 3972   1.236   0.628   1.062 -0.3222 -0.0080  0.5915
 1322TIP3    H2 3973   1.270   0.617   1.209 -0.9391  0.7923  0.7987
 1323TIP3   OH2 3974   0.205   1.645   0.888  0.6389 -0.1289  0.7044
 1323TIP3    H1 3975   0.250   1.682   0.812  1.2431  1.5053  1.8117
 1323TIP3    H2 3976   0.183   1.556   0.861 -0.4203  0.8300 -1.8919
 1324TIP3   OH2 3977   3.623   3.878   1.813  0.0430 -0.5693 -0.1661
 1324TIP3    H1 3978   3.547   3.880   1.755  0.1497 -0.6550 -0.3092
 1324TIP3    H2 3979   3.645   3.970   1.828 -0.1901 -0.5428  0.0082
 1325TIP3   OH2 3980   5.746   1.625   5.063  0.2427  0.1502  0.3131
 1325TIP3    H1 3981   5.711   1.586   4.983  1.6264  1.3567 -0.9545
 1325TIP3    H2 3982   5.780   1.551   5.114 -0.6547 -0.6303 -0.1949
 1326TIP3   OH2 3983   4.197   2.033   3.952 -0.2340  0.1852  0.3502
 1326TIP3    H1 3984   4.200   2.121   3.915 -0.8992 -0.0206 -0.2142
 1326TIP3    H2 3985   4.169   1.977   3.879  2.7350 -0.9478 -0.0877
 1327TIP3   OH2 3986   3.030   1.063   1.884  0.7259 -0.3651  0.2796
 1327TIP3    H1 3987   3.044   0.977   1.924  1.2081 -0.2147  0.4435
 1327TIP3    H2 3988   2.974   1.046   1.809  0.3839 -0.7526  0.6140
 1328TIP3   OH2 3989   1.161   0.058   0.782 -0.3227  0.1314  0.6259
 1328TIP3    H1 3990   1.078   0.017   0.758  0.5542 -1.4756  0.2006
 1328TIP3    H2 3991   1.179   0.026   0.871 -0.9489  1.8180  1.4007
 1329TIP3   OH2 3992   2.673   2.162   3.304 -0.0186  0.6983 -0.3684
 1329TIP3    H1 3993   2.678   2.120   3.218 -0.1418  0.7800 -0.4160
 1329TIP3    H2 3994   2.595   2.217   3.299 -1.3072 -0.9601  0.5208
 1330TIP3   OH2 3995   4.224   3.723   3.422  0.3062 -0.1137 -0.0441
 1330TIP3    H1 3996   4.151   3.754   3.369 -0.1828 -0.2141  0.5516
 1330TIP3    H2 3997   4.255   3.802   3.467 -0.4582 -0.3247  0.9001
 1331TIP3   OH2 3998   4.832   5.666   3.528 -0.2430  0.1463 -0.4362
 1331TIP3    H1 3999   4.784   5.596   3.485  0.5733 -0.1563 -0.8753
 1331TIP3    H2 4000   4.924   5.640   3.522 -0.0162  0.6652  0.4647
 1332TIP3   OH2 4001   5.567   4.654   1.242  0.0156 -0.2797 -0.0432
 1332TIP3    H1 4002   5.594   4.598   1.315  1.1025  0.9897  0.5608
 1332TIP3    H2 4003   5.474   4.670   1.259  0.1779 -0.2530  0.8992
 1333TIP3   OH2 4004   2.386   1.690   3.814 -0.6273  0.0906  0.1025
 1333TIP3    H1 4005   2.317   1.740   3.857 -0.7177  1.0944 -1.1380
 1333TIP3    H2 4006   2.348   1.603   3.801 -0.8629  0.0029  1.3390
 1334TIP3   OH2 4007   4.448   3.647   5.155  0.4699 -0.3200  0.4244
 1334TIP3    H1 4008   4.402   3.597   5.088  0.9530 -0.8443  0.4867
 1334TIP3    H2 4009   4.378   3.675   5.215  0.0510  0.0613 -0.2266
 1335TIP3   OH2 4010   4.093   1.496   4.547  0.3558 -0.3970  0.1733
 1335TIP3    H1 4011   4.087   1.585   4.580 -0.4607 -0.2496 -0.3521
 1335TIP3    H2 4012   4.003   1.466   4.541  0.4001 -0.2661 -2.2919
 1336TIP3   OH2 4013   1.292   4.404   3.695 -0.1712 -0.3845 -0.2565
 1336TIP3    H1 4014   1.288   4.446   3.609  0.8859 -1.5862 -0.9302
 1336TIP3    H2 4015   1.248   4.320   3.684  1.2615 -1.1895 -0.0420
 1337TIP3   OH2 4016   4.297   4.414   3.343  0.4214  0.3798  0.1445
 1337TIP3    H1 4017   4.287   4.472   3.418  0.9992 -0.1950  0.6756
 1337TIP3    H2 4018   4.213   4.418   3.298 -0.2729 -0.0283  1.3738
 1338TIP3   OH2 4019   5.099   2.245   2.034 -0.0142  0.0926 -0.2817
 1338TIP3    H1 4020   5.027   2.234   1.972 -0.5230  0.9469  0.1450
 1338TIP3    H2 4021   5.087   2.175   2.098 -0.4588  0.2203 -0.2229
 1339TIP3   OH2 4022   1.281   3.304   2.608  0.4982 -0.9072 -0.1950
 1339TIP3    H1 4023   1.189   3.288   2.586  0.4058  0.2032 -0.6695
 1339TIP3    H2 4024   1.278   3.366   2.681  0.8774 -0.0982 -0.8626
 1340TIP3   OH2 4025   4.504   5.644   0.483  0.0327 -0.5469  0.2033
 1340TIP3    H1 4026   4.580   5.661   0.538 -0.3653  0.6058  0.4191
 1340TIP3    H2 4027   4.443   5.597   0.539  0.2169 -0.6683  0.3022
 1341TIP3   OH2 4028   4.507   3.997   2.379 -0.1118 -0.1577  0.0390
 1341TIP3    H1 4029   4.466   3.994   2.465 -1.5221 -1.2144 -0.6424
 1341TIP3    H2 4030   4.434   4.003   2.317  0.8531  0.0472 -1.1196
 1342TIP3   OH2 4031   4.156   0.154   1.803  0.1087 -0.5126  0.1318
 1342TIP3    H1 4032   4.193   0.242   1.800  0.0587 -0.4397  1.3372
 1342TIP3    H2 4033   4.159   0.124   1.712 -0.8390  1.1278 -0.4843
 1343TIP3   OH2 4034   1.179   3.160   2.016  0.0138  0.1693  0.0745
 1343TIP3    H1 4035   1.245   3.224   2.042  0.1499 -0.2552  0.8060
 1343TIP3    H2 4036   1.216   3.117   1.939 -0.2558  1.2298 -0.6684
 1344TIP3   OH2 4037   1.356   1.425   5.027 -0.0396 -0.5438  0.4973
 1344TIP3    H1 4038   1.420   1.495   5.014 -0.3247 -0.1982  0.8989
 1344TIP3    H2 4039   1.303   1.456   5.100 -2.6564  0.6594 -1.7404
 1345TIP3   OH2 4040   0.828   2.634   1.016  0.1422 -0.1039  0.1370
 1345TIP3    H1 4041   0.802   2.725   1.012  1.7268  0.4212  0.7814
 1345TIP3    H2 4042   0.749   2.586   1.041 -0.6292  1.1151  0.0673
 1346TIP3   OH2 4043   6.250   4.094   3.071 -0.2070  1.1043  0.4216
 1346TIP3    H1 4044   6.278   4.169   3.125 -1.1142  0.7527  1.4096
 1346TIP3    H2 4045   6.272   4.017   3.123  0.4252  0.6763 -0.4514
 1347TIP3   OH2 4046   4.053   4.164   3.024  0.2322 -0.0314  0.3667
 1347TIP3    H1 4047   4.121   4.222   3.061 -0.0456  0.4377  0.1526
 1347TIP3    H2 4048   4.063   4.174   2.929  0.6771 -0.9208  0.3128
 1348TIP3   OH2 4049   2.982   4.363   4.883 -0.1266  0.4902 -0.0703
 1348TIP3    H1 4050   2.913   4.337   4.823 -0.0048  0.3402 -0.1445
 1348TIP3    H2 4051   2.936   4.410   4.953 -0.4185 -0.3876  0.3449
 1349TIP3   OH2 4052   4.971   0.561   1.392  0.2295 -0.2030 -0.3073
 1349TIP3    H1 4053   4.991   0.492   1.329 -0.3724  0.0109 -0.7444
 1349TIP3    H2 4054   4.969   0.642   1.340 -0.8273 -0.0982 -0.1342
 1350TIP3   OH2 4055   5.588   3.535   1.803  0.6006 -0.0595 -0.1107
 1350TIP3    H1 4056   5.536   3.512   1.880 -0.3077  0.0924 -0.6516
 1350TIP3    H2 4057   5.659   3.471   1.801 -1.2695 -2.2609 -1.0050
 1351TIP3   OH2 4058   0.998   2.717   0.409  0.1442  0.1179  0.5134
 1351TIP3    H1 4059   0.919   2.666   0.393 -0.7676  1.4177  0.7241
 1351TIP3    H2 4060   0.991   2.791   0.348  0.9347  0.5317  0.9126
 1352TIP3   OH2 4061   0.546   4.825   1.454  0.0150  0.0440 -0.0818
 1352TIP3    H1 4062   0.592   4.840   1.370  0.6772  0.8521  0.4047
 1352TIP3    H2 4063   0.463   4.870   1.444 -0.3519 -0.7510 -0.6840
 1353TIP3   OH2 4064   6.002   1.147   0.453  0.4733 -0.0784 -0.2133
 1353TIP3    H1 4065   5.972   1.142   0.362  0.1198  0.7357 -0.1512
 1353TIP3    H2 4066   5.977   1.235   0.481  0.6985 -0.2793  0.6326
 1354TIP3   OH2 4067   6.233   5.321   1.485  0.0190 -0.2504  0.1528
 1354TIP3    H1 4068   6.159   5.265   1.463  0.1121 -0.3659  0.1289
 1354TIP3    H2 4069   6.206   5.409   1.458 -1.2033  0.2222  2.6775
 1355TIP3   OH2 4070   2.377   5.901   0.214 -0.0643  0.3544 -0.1520
 1355TIP3    H1 4071   2.408   5.958   0.144 -0.8373  1.6458  0.5356
 1355TIP3    H2 4072   2.409   5.941   0.294  0.1196 -0.6707  0.3037
 1356TIP3   OH2 4073   1.045   2.300   0.203  0.2306  0.0994 -0.6868
 1356TIP3    H1 4074   1.133   2.310   0.165  0.3494  1.8080 -0.0833
 1356TIP3    H2 4075   0.990   2.358   0.150 -0.4050 -0.4676 -0.6536
 1357TIP3   OH2 4076   1.338   1.837   3.541 -0.1886 -0.2350  0.3991
 1357TIP3    H1 4077   1.365   1.904   3.478 -1.0628  1.1275  1.4217
 1357TIP3    H2 4078   1.314   1.762   3.487  0.7264  0.2956 -0.7871
 1358TIP3   OH2 4079   0.153   3.440   0.465 -0.1589  0.2680  0.3665
 1358TIP3    H1 4080   0.099   3.490   0.404  1.5316  1.6213 -0.0895
 1358TIP3    H2 4081   0.101   3.436   0.545 -1.5772  0.1733 -0.5159
 1359TIP3   OH2 4082   1.491   2.389   4.950 -0.4668  0.1824  0.2058
 1359TIP3    H1 4083   1.434   2.377   4.874  0.5175  1.3959 -0.7663
 1359TIP3    H2 4084   1.495   2.302   4.990 -0.4524 -0.6817 -1.5335
 1360TIP3   OH2 4085   2.320   2.529   4.394  0.1649 -0.7982 -0.3786
 1360TIP3    H1 4086   2.244   2.477   4.419 -0.1797 -1.6457 -2.8837
 1360TIP3    H2 4087   2.361   2.479   4.323  1.9067  0.6335 -0.4589
 1361TIP3   OH2 4088   3.532   1.150   5.096 -0.1001 -0.4539  0.3596
 1361TIP3    H1 4089   3.493   1.206   5.163 -2.3678 -0.1562 -1.0770
 1361TIP3    H2 4090   3.622   1.137   5.124 -0.0685  2.2532  1.8157
 1362TIP3   OH2 4091   5.105   3.170   1.196  0.0191  0.7732  0.1790
 1362TIP3    H1 4092   5.102   3.219   1.278 -0.2889  0.3703  0.4092
 1362TIP3    H2 4093   5.176   3.211   1.146  2.1448 -0.7057  1.7724
 1363TIP3   OH2 4094   1.594   3.208   4.285  0.7090 -0.2409 -0.1446
 1363TIP3    H1 4095   1.533   3.228   4.356  0.8227 -1.2774  0.2645
 1363TIP3    H2 4096   1.681   3.220   4.324  0.8228  1.8168 -0.8904
 1364TIP3   OH2 4097   3.225   1.803   3.712 -0.2655 -0.2776  0.7493
 1364TIP3    H1 4098   3.137   1.840   3.708 -1.0149 -2.0888 -1.4017
 1364TIP3    H2 4099   3.217   1.730   3.774 -0.1677 -0.1932  0.8617
 1365TIP3   OH2 4100   1.139   0.009   0.068  0.3597 -0.2009  0.0356
 1365TIP3    H1 4101   1.205  -0.011   0.134  0.4280 -0.1721 -0.0241
 1365TIP3    H2 4102   1.152   0.101   0.047 -1.2690  0.5000  1.7988
 1366TIP3   OH2 4103   4.276   5.442   4.617  0.5159 -0.3726 -0.1825
 1366TIP3    H1 4104   4.365   5.453   4.651 -0.0082 -0.1445  1.2018
 1366TIP3    H2 4105   4.230   5.393   4.685 -0.6931  0.4182 -0.3814
 1367TIP3   OH2 4106   5.543   2.726   1.751  0.2144 -0.3374  0.3974
 1367TIP3    H1 4107   5.557   2.729   1.846  1.0755 -1.5667  0.3341
 1367TIP3    H2 4108   5.613   2.670   1.718 -0.6469 -0.7265 -0.8562
 1368TIP3   OH2 4109   0.319   0.725   3.597 -0.5896 -0.2417  0.0979
 1368TIP3    H1 4110   0.313   0.764   3.684  1.7413 -1.2009  0.7989
 1368TIP3    H2 4111   0.279   0.638   3.607  1.5130 -1.1964  0.8889
 1369TIP3   OH2 4112   0.264   3.747   3.638  0.5221  0.0392  0.7081
 1369TIP3    H1 4113   0.225   3.665   3.669  0.6203 -0.9858 -1.6986
 1369TIP3    H2 4114   0.349   3.720   3.602 -0.0540  0.9507 -1.4102
 1370TIP3   OH2 4115   2.308   3.794   4.385  0.1155 -0.8313 -0.1146
 1370TIP3    H1 4116   2.244   3.728   4.360  0.1797 -0.8840 -0.1396
 1370TIP3    H2 4117   2.266   3.878   4.363  0.9606 -0.9184 -2.3209
 1371TIP3   OH2 4118   2.895   1.636   1.954 -0.1863  0.0865 -0.4584
 1371TIP3    H1 4119   2.990   1.643   1.964 -0.2420  1.5486 -0.7710
 1371TIP3    H2 4120   2.865   1.726   1.947 -1.2884 -0.3884 -3.1083
 1372TIP3   OH2 4121   2.142   2.149   1.567 -0.8109 -0.0587 -0.1114
 1372TIP3    H1 4122   2.153   2.111   1.480 -1.3946  0.1794 -0.2898
 1372TIP3    H2 4123   2.225   2.130   1.612 -0.6416 -0.4872 -0.5971
 1373TIP3   OH2 4124   5.265   3.234   3.015 -0.1307  0.0358  0.2100
 1373TIP3    H1 4125   5.220   3.154   2.989 -0.8040 -0.4252  2.5503
 1373TIP3    H2 4126   5.358   3.212   3.010 -0.3138 -1.0411  1.1770
 1374TIP3   OH2 4127   4.392   4.004   2.646  0.1475  0.3359 -0.1812
 1374TIP3    H1 4128   4.386   3.909   2.654 -0.6021  0.2675 -1.3544
 1374TIP3    H2 4129   4.322   4.037   2.703 -2.2970  0.0072 -2.7833
 1375TIP3   OH2 4130   4.223   2.734   4.575  0.0536 -0.2770 -0.5107
 1375TIP3    H1 4131   4.144   2.682   4.560  0.2830 -0.8995  0.3391
 1375TIP3    H2 4132   4.295   2.673   4.560  0.4964  0.7422 -3.1236
 1376TIP3   OH2 4133   1.707   3.783   3.727 -0.1734  0.8059  0.2145
 1376TIP3    H1 4134   1.636   3.844   3.749 -1.1885  0.7044 -2.3263
 1376TIP3    H2 4135   1.679   3.699   3.764 -0.4572  1.1612  0.8251
 1377TIP3   OH2 4136   5.493   2.819   1.002 -0.2783  0.5213 -0.1178
 1377TIP3    H1 4137   5.470   2.832   1.094  0.6201 -0.1384  0.2120
 1377TIP3    H2 4138   5.484   2.725   0.989  1.6781  0.3009 -0.1065
 1378TIP3   OH2 4139   3.958   1.015   2.530  0.5833  0.2097 -0.1299
 1378TIP3    H1 4140   3.910   1.091   2.498  0.0121 -0.2944 -0.4839
 1378TIP3    H2 4141   4.047   1.047   2.545  0.5623  0.7430 -1.1085
 1379TIP3   OH2 4142   4.917   4.452   2.668 -0.2164 -0.0947  0.2275
 1379TIP3    H1 4143   4.929   4.537   2.712 -1.2809 -0.8744  2.1455
 1379TIP3    H2 4144   4.823   4.449   2.649 -0.1939 -0.8681  0.2323
 1380TIP3   OH2 4145   3.015   1.470   3.705 -0.0056 -0.3308 -0.3346
 1380TIP3    H1 4146   3.096   1.419   3.701 -0.5433 -1.1463 -2.4038
 1380TIP3    H2 4147   2.956   1.419   3.760  0.4500 -0.4160  0.0740
 1381TIP3   OH2 4148   1.289   2.151   1.343 -0.1672  0.0943 -0.0601
 1381TIP3    H1 4149   1.360   2.214   1.359 -1.4006  1.5981 -0.2696
 1381TIP3    H2 4150   1.227   2.199   1.289 -0.3079 -1.9353 -1.7951
 1382TIP3   OH2 4151   2.461   0.196   3.698 -0.2132  0.1566  0.4196
 1382TIP3    H1 4152   2.402   0.270   3.684 -0.7690 -0.3482  0.0535
 1382TIP3    H2 4153   2.434   0.131   3.633  1.4122  0.2995 -0.4583
 1383TIP3   OH2 4154   1.596   1.588   0.308 -0.1176 -0.2532 -0.0017
 1383TIP3    H1 4155   1.609   1.623   0.220  0.9308  1.8076  0.8947
 1383TIP3    H2 4156   1.558   1.502   0.295 -0.2824  0.1352 -2.4556
 1384TIP3   OH2 4157   4.527   0.266   3.977  0.3490  0.1107  0.0764
 1384TIP3    H1 4158   4.485   0.349   3.954  0.6845  0.5634  0.9931
 1384TIP3    H2 4159   4.517   0.211   3.900  0.7715  1.2711 -0.8409
 1385TIP3   OH2 4160   3.089   4.330   3.601  0.5375 -0.5566 -0.2121
 1385TIP3    H1 4161   3.135   4.246   3.592  1.9145  0.3071 -1.8322
 1385TIP3    H2 4162   3.045   4.324   3.686  0.5271 -2.9328 -0.3085
 1386TIP3   OH2 4163   3.751   1.786   3.404  0.1220 -0.0530  0.0878
 1386TIP3    H1 4164   3.668   1.833   3.409  0.0290 -0.1729 -0.2851
 1386TIP3    H2 4165   3.813   1.851   3.370  0.1849  0.0407  0.3805
 1387TIP3   OH2 4166   2.811   2.142   0.162 -0.2092  0.0389  0.2615
 1387TIP3    H1 4167   2.730   2.179   0.127 -0.6950  0.3645  1.6870
 1387TIP3    H2 4168   2.852   2.100   0.086 -2.2374 -1.1310 -0.2634
 1388TIP3   OH2 4169   5.440   0.923   3.417 -0.2017  0.0351 -0.3826
 1388TIP3    H1 4170   5.392   0.998   3.381  0.6166  0.1606 -1.2585
 1388TIP3    H2 4171   5.376   0.852   3.419 -0.6457  0.4202 -0.7257
 1389TIP3   OH2 4172   4.792   4.613   1.608  0.2773 -0.3890  0.4480
 1389TIP3    H1 4173   4.716   4.581   1.656 -0.0519  1.3547  1.1389
 1389TIP3    H2 4174   4.767   4.607   1.516  0.4752 -2.6420  0.4911
 1390TIP3   OH2 4175   2.456   1.722   0.532 -0.0394 -0.1822  0.2358
 1390TIP3    H1 4176   2.379   1.778   0.537 -1.2518 -1.7615 -0.1444
 1390TIP3    H2 4177   2.445   1.658   0.603  1.5469  0.2779  0.9601
 1391TIP3   OH2 4178   5.188   1.138   3.822  0.4895 -0.1596 -0.8016
 1391TIP3    H1 4179   5.272   1.113   3.860  0.8084  1.6087 -0.2412
 1391TIP3    H2 4180   5.155   1.206   3.881 -0.7598  0.0353 -1.6892
 1392TIP3   OH2 4181   2.928   4.326   4.108  0.5176  0.2530 -0.3301
 1392TIP3    H1 4182   2.976   4.291   4.183  2.5890  0.3753 -1.5369
 1392TIP3    H2 4183   2.876   4.398   4.144  0.2170 -0.7101  1.2410
 1393TIP3   OH2 4184   1.510   0.879   2.013 -0.3807 -0.0197 -0.3960
 1393TIP3    H1 4185   1.495   0.878   2.107  0.1105 -2.0185 -0.3030
 1393TIP3    H2 4186   1.492   0.790   1.984 -0.2512  0.4795 -2.1607
 1394TIP3   OH2 4187   0.838   2.512   2.616 -0.0948  0.3894 -0.4189
 1394TIP3    H1 4188   0.873   2.598   2.640  0.3795 -0.3480  1.6984
 1394TIP3    H2 4189   0.812   2.472   2.699 -1.3289 -1.1010 -1.4647
 1395TIP3   OH2 4190   0.581   5.824   0.000 -0.3615 -0.3652  0.0871
 1395TIP3    H1 4191   0.618   5.777   0.075  0.3292 -0.5428 -0.3548
 1395TIP3    H2 4192   0.494   5.785  -0.011 -0.4447 -0.3867  0.7436
 1396TIP3   OH2 4193   5.862   0.415   5.097  0.3824  0.4105  0.4307
 1396TIP3    H1 4194   5.938   0.383   5.049 -0.5814  0.6452 -1.3231
 1396TIP3    H2 4195   5.824   0.337   5.137 -0.0599 -0.1655 -1.0591
 1397TIP3   OH2 4196   3.000   2.636   2.057  0.1383 -0.8290  0.4238
 1397TIP3    H1 4197   3.085   2.678   2.067 -0.1101 -0.3120  0.3585
 1397TIP3    H2 4198   3.013   2.548   2.093  0.3491 -0.3364  1.6210
 1398TIP3   OH2 4199   2.382   1.997   3.789 -0.1191 -0.2153  0.0476
 1398TIP3    H1 4200   2.385   2.087   3.820  3.0129  0.1794 -1.0157
 1398TIP3    H2 4201   2.452   1.953   3.838 -0.0867 -1.4497 -1.0609
 1399TIP3   OH2 4202   5.701   3.643   1.381  0.6808  0.1971 -0.0321
 1399TIP3    H1 4203   5.615   3.619   1.415 -1.1064  2.8733 -2.2163
 1399TIP3    H2 4204   5.750   3.673   1.458 -1.4298  1.4112  0.9078
 1400TIP3   OH2 4205   5.632   4.387   4.135 -0.0737  0.3239 -0.1441
 1400TIP3    H1 4206   5.612   4.429   4.219  0.8855  0.4774  0.0238
 1400TIP3    H2 4207   5.709   4.333   4.153 -1.4568 -1.7700 -0.2988
 1401TIP3   OH2 4208   0.471   4.928   2.580 -0.2950 -0.6153  0.5749
 1401TIP3    H1 4209   0.562   4.911   2.605 -0.0898  1.2345  1.2220
 1401TIP3    H2 4210   0.464   4.894   2.491  0.7221 -1.7080  0.8820
 1402TIP3   OH2 4211   5.162   4.717   1.441 -0.1876  0.0449  0.2863
 1402TIP3    H1 4212   5.112   4.795   1.467 -0.4588  0.4791 -1.4529
 1402TIP3    H2 4213   5.100   4.666   1.390  0.5267 -0.4459 -0.0976
 1403TIP3   OH2 4214   2.674   3.689   3.771  0.7368 -0.2902  0.4863
 1403TIP3    H1 4215   2.734   3.699   3.697  1.2153  0.4173  0.9583
 1403TIP3    H2 4216   2.605   3.753   3.754 -1.0458 -2.4729 -1.1169
 1404TIP3   OH2 4217   6.280   4.540   3.396  0.2567 -0.3655 -0.1131
 1404TIP3    H1 4218   6.229   4.465   3.366  0.1761 -0.4885  0.3197
 1404TIP3    H2 4219   6.224   4.616   3.382 -0.0569 -0.5007  0.3705
 1405TIP3   OH2 4220   4.802   4.258   3.233  0.3265 -0.2891 -0.4134
 1405TIP3    H1 4221   4.856   4.181   3.252 -0.1202 -0.3399  0.7137
 1405TIP3    H2 4222   4.842   4.328   3.284  0.6846  0.2342 -1.3793
 1406TIP3   OH2 4223   6.023   2.395   3.442 -0.3472 -0.1624 -0.0120
 1406TIP3    H1 4224   6.058   2.400   3.353 -0.9958  0.8962 -0.2259
 1406TIP3    H2 4225   5.991   2.483   3.460  0.8927 -0.0326  1.7592
 1407TIP3   OH2 4226   4.180   5.448   3.440  0.1402 -0.9222 -0.0930
 1407TIP3    H1 4227   4.192   5.448   3.534  1.3157  0.7445 -0.1839
 1407TIP3    H2 4228   4.204   5.537   3.413 -0.8529 -1.1414 -1.8791
 1408TIP3   OH2 4229   0.875  -0.012   4.306 -0.5543 -0.0372  0.1707
 1408TIP3    H1 4230   0.848  -0.037   4.394 -3.5688  1.5203 -0.1973
 1408TIP3    H2 4231   0.907   0.077   4.315  1.1849 -0.6054 -0.0272
 1409TIP3   OH2 4232   4.438   4.793   3.772 -0.1961  0.3360 -0.2233
 1409TIP3    H1 4233   4.426   4.714   3.826  1.8134  0.2989  0.2468
 1409TIP3    H2 4234   4.446   4.759   3.683 -1.4974  0.2282 -0.3245
 1410TIP3   OH2 4235   1.299   2.284   0.691 -0.0865 -0.1404 -0.0436
 1410TIP3    H1 4236   1.227   2.299   0.629 -0.2937  0.1801  0.2706
 1410TIP3    H2 4237   1.256   2.282   0.777 -0.2737 -3.6090 -0.0702
 1411TIP3   OH2 4238   5.450   1.925   4.844  0.0772  0.0806  0.6595
 1411TIP3    H1 4239   5.468   2.011   4.805  0.3794  0.5293  1.7582
 1411TIP3    H2 4240   5.528   1.906   4.896  0.3088 -1.1876 -0.1290
 1412TIP3   OH2 4241   1.334   2.309   2.178 -0.2008 -0.5148  0.3073
 1412TIP3    H1 4242   1.322   2.403   2.175 -0.4793 -0.4585  2.3509
 1412TIP3    H2 4243   1.422   2.297   2.214 -0.7809 -1.0146  1.6192
 1413TIP3   OH2 4244   2.431   2.049   4.274 -0.1877 -0.4504 -0.0370
 1413TIP3    H1 4245   2.507   2.103   4.254 -0.5294  0.2549  0.5257
 1413TIP3    H2 4246   2.414   2.065   4.367 -0.5528 -1.2000  0.0327
 1414TIP3   OH2 4247   3.192   3.398   4.887 -0.8134  0.3146 -0.2664
 1414TIP3    H1 4248   3.135   3.400   4.810 -0.4613  0.3203 -0.5316
 1414TIP3    H2 4249   3.269   3.350   4.858 -0.9360 -0.2136  0.2688
 1415TIP3   OH2 4250   0.040   5.710   1.557  0.0738 -0.0143 -0.0294
 1415TIP3    H1 4251   0.088   5.646   1.505  0.2859  0.2799 -0.2041
 1415TIP3    H2 4252   0.003   5.770   1.491  1.1342  0.9200  0.1887
 1416TIP3   OH2 4253   3.316   5.151   0.996 -0.1276 -0.4732 -0.3498
 1416TIP3    H1 4254   3.242   5.193   1.039 -0.7102 -0.5922 -1.1988
 1416TIP3    H2 4255   3.313   5.060   1.025 -0.6085 -0.5887 -0.7371
 1417TIP3   OH2 4256   5.090   3.567   1.102 -0.1833 -0.1359  0.0503
 1417TIP3    H1 4257   5.174   3.548   1.061  0.4280 -0.9661  1.6183
 1417TIP3    H2 4258   5.027   3.517   1.050  0.3019  0.2457 -0.9444
 1418TIP3   OH2 4259   3.909   2.518   3.712 -0.0091  0.0469 -0.5557
 1418TIP3    H1 4260   3.815   2.523   3.729  0.2590  0.2587  1.0791
 1418TIP3    H2 4261   3.920   2.556   3.625 -1.3495  0.7053 -0.4709
 1419TIP3   OH2 4262   5.962   0.789   0.874  0.4197  0.5485  0.7028
 1419TIP3    H1 4263   5.885   0.838   0.900 -0.8480 -1.0352  0.1358
 1419TIP3    H2 4264   5.975   0.726   0.945 -2.3125 -2.9534 -1.5348
 1420TIP3   OH2 4265   5.247   5.001   3.155 -0.9260  0.3367 -0.6395
 1420TIP3    H1 4266   5.233   4.910   3.129 -2.2022 -0.0919  1.3199
 1420TIP3    H2 4267   5.296   5.040   3.082 -0.8014 -1.7636 -1.7496
 1421TIP3   OH2 4268   0.101   5.433   3.782 -0.1854  0.2169  0.9039
 1421TIP3    H1 4269   0.192   5.426   3.753 -0.6590 -0.4996 -0.5143
 1421TIP3    H2 4270   0.065   5.346   3.767 -0.7553  0.1072  2.7726
 1422TIP3   OH2 4271   4.214   1.105   4.515  0.0058 -0.2220 -0.1061
 1422TIP3    H1 4272   4.308   1.120   4.523 -0.2003  0.1891  2.0280
 1422TIP3    H2 4273   4.174   1.185   4.550 -1.1305 -1.0418  0.5425
 1423TIP3   OH2 4274   2.335   1.167   2.544  0.1737 -0.1526  0.0184
 1423TIP3    H1 4275   2.339   1.244   2.600 -2.7525  0.5989 -0.6203
 1423TIP3    H2 4276   2.351   1.199   2.456  0.9162 -0.6536 -0.0405
 1424TIP3   OH2 4277   1.176   4.187   4.058  0.0357 -0.6581 -0.7499
 1424TIP3    H1 4278   1.097   4.219   4.013  0.6779  2.1148 -0.1390
 1424TIP3    H2 4279   1.173   4.231   4.143  0.9965 -2.4866  0.2748
 1425TIP3   OH2 4280   3.344   5.253   2.254  0.1743 -0.4449  0.1501
 1425TIP3    H1 4281   3.268   5.287   2.302 -0.0588  2.8491 -2.2042
 1425TIP3    H2 4282   3.419   5.297   2.293  0.3342 -0.2416 -0.3712
 1426TIP3   OH2 4283   5.524   0.699   2.147  0.4639  0.2225  0.0860
 1426TIP3    H1 4284   5.430   0.697   2.166  0.4648 -2.8105  0.3270
 1426TIP3    H2 4285   5.528   0.717   2.053 -0.2769  1.4388  0.2680
 1427TIP3   OH2 4286   5.235   0.889   3.159  0.2036 -0.1100 -0.5011
 1427TIP3    H1 4287   5.325   0.872   3.129  1.0884 -0.8052  2.2308
 1427TIP3    H2 4288   5.199   0.803   3.176 -0.7885  0.1995 -0.9932
 1428TIP3   OH2 4289   0.305   5.544   5.019 -0.6057 -0.0776 -0.0410
 1428TIP3    H1 4290   0.298   5.459   4.976  3.0057 -0.2818 -0.5279
 1428TIP3    H2 4291   0.272   5.529   5.108 -3.9517 -0.7986 -1.2704
 1429TIP3   OH2 4292   5.290   3.072   2.181  0.2235 -1.1131  0.0747
 1429TIP3    H1 4293   5.256   3.159   2.203  1.1270 -0.7960  0.2809
 1429TIP3    H2 4294   5.240   3.012   2.237  0.6170 -0.5747  1.0318
 1430TIP3   OH2 4295   4.637   2.207   1.511  0.1073 -0.8482  0.6044
 1430TIP3    H1 4296   4.714   2.151   1.522  0.2867 -0.3455  2.1374
 1430TIP3    H2 4297   4.663   2.291   1.548 -0.3116  0.1416 -1.2694
 1431TIP3   OH2 4298   0.403   4.285   2.821 -0.5451 -0.0813 -0.2916
 1431TIP3    H1 4299   0.332   4.288   2.757  0.7003 -0.5183 -1.7906
 1431TIP3    H2 4300   0.439   4.196   2.812  0.1113  0.0899  0.5028
 1432TIP3   OH2 4301   0.526   4.464   3.624  0.3669  0.6802 -0.2304
 1432TIP3    H1 4302   0.591   4.451   3.556 -0.5282  0.5398 -1.0838
 1432TIP3    H2 4303   0.452   4.504   3.579 -0.1888  0.7228  0.6915
 1433TIP3   OH2 4304  -0.016   3.100   4.491  0.2134 -0.2833  0.3466
 1433TIP3    H1 4305  -0.005   3.190   4.462 -0.1307 -0.7875 -1.4363
 1433TIP3    H2 4306   0.073   3.071   4.511  0.4781  0.0544 -0.3155
 1434TIP3   OH2 4307   5.952   1.565   4.247 -0.0300  0.4355 -0.3649
 1434TIP3    H1 4308   5.931   1.473   4.232  1.4979 -0.1376  0.8202
 1434TIP3    H2 4309   6.047   1.570   4.240 -0.1344  2.0918 -1.1893
 1435TIP3   OH2 4310   2.255   5.787   2.405  0.2090 -0.5695 -0.4539
 1435TIP3    H1 4311   2.180   5.793   2.463 -1.1833 -0.3077 -2.2104
 1435TIP3    H2 4312   2.235   5.847   2.333  1.2643 -1.8370 -1.8610
 1436TIP3   OH2 4313   0.094   4.181   3.944 -0.1563 -0.4753  0.0044
 1436TIP3    H1 4314   0.155   4.201   4.015 -2.8448 -0.2788  2.4640
 1436TIP3    H2 4315   0.106   4.087   3.927  1.2120 -0.3098  0.0023
 1437TIP3   OH2 4316   5.030   4.139   2.382 -0.4698  0.3270  0.1178
 1437TIP3    H1 4317   5.057   4.056   2.343 -1.5765  0.1042 -0.2046
 1437TIP3    H2 4318   5.005   4.117   2.472 -2.0630  0.0474 -0.3736
 1438TIP3   OH2 4319   2.049   2.249   3.813 -0.2038 -0.2893  0.6381
 1438TIP3    H1 4320   1.953   2.244   3.815 -0.2199 -0.1109  0.2751
 1438TIP3    H2 4321   2.074   2.194   3.739 -0.0729  0.3796  0.1857
 1439TIP3   OH2 4322   2.765   1.330   1.667 -0.3038 -0.5610  0.2522
 1439TIP3    H1 4323   2.774   1.344   1.573  0.2896 -0.0425  0.3795
 1439TIP3    H2 4324   2.830   1.388   1.706 -2.8036  1.8053  1.1606
 1440TIP3   OH2 4325   3.554   1.572   1.499  0.1175 -0.2121 -0.1780
 1440TIP3    H1 4326   3.503   1.653   1.507 -2.6157 -1.6492 -1.5152
 1440TIP3    H2 4327   3.622   1.593   1.435 -0.0227  1.2322  0.1118
 1441TIP3   OH2 4328   3.126   0.802   1.057  0.1220 -0.2009 -0.4905
 1441TIP3    H1 4329   3.121   0.852   1.138 -0.9737 -0.2122 -0.5394
 1441TIP3    H2 4330   3.062   0.732   1.068  1.8879 -1.8700 -0.2531
 1442TIP3   OH2 4331   0.502   3.022   2.569 -0.0051 -0.2986  0.1045
 1442TIP3    H1 4332   0.502   2.939   2.616 -2.4629 -1.0096 -0.9778
 1442TIP3    H2 4333   0.531   3.000   2.480 -0.1407  0.0937 -0.0417
 1443TIP3   OH2 4334   4.273   0.624   1.714 -0.0811 -0.2563 -0.3731
 1443TIP3    H1 4335   4.203   0.580   1.667 -2.4812  1.3320  1.4740
 1443TIP3    H2 4336   4.317   0.555   1.764 -3.0827 -0.8717  1.6655
 1444TIP3   OH2 4337   5.527   5.662   2.076  0.0035  0.7516  0.6567
 1444TIP3    H1 4338   5.485   5.577   2.064 -0.0814  0.8889 -0.0190
 1444TIP3    H2 4339   5.617   5.641   2.101  0.5943  0.4310 -1.5273
 1445TIP3   OH2 4340   0.779   5.000   0.763 -0.3607 -0.5821  0.2752
 1445TIP3    H1 4341   0.705   4.974   0.709 -0.8371 -2.9733  1.9067
 1445TIP3    H2 4342   0.745   5.067   0.822 -0.5180  0.1409 -0.6196
 1446TIP3   OH2 4343   3.453   5.481   5.040  0.4719  0.4068 -0.1739
 1446TIP3    H1 4344   3.495   5.566   5.027  0.1777  1.0106  2.2064
 1446TIP3    H2 4345   3.443   5.474   5.135 -1.8735 -1.1389 -0.4356
 1447TIP3   OH2 4346   6.202   2.172   0.319  0.4556 -0.3653  0.4279
 1447TIP3    H1 4347   6.240   2.190   0.233 -1.5822  1.5002 -0.1698
 1447TIP3    H2 4348   6.217   2.253   0.368 -0.2749 -0.6390  1.1141
 1448TIP3   OH2 4349   3.499   1.728   4.408  0.4200  0.1744 -0.0582
 1448TIP3    H1 4350   3.491   1.823   4.420 -1.3948  0.2699 -1.4638
 1448TIP3    H2 4351   3.439   1.692   4.473 -0.0909  0.0875 -0.5710
 1449TIP3   OH2 4352   6.228   5.898   4.075  0.1207 -0.4405 -0.3172
 1449TIP3    H1 4353   6.291   5.862   4.138  1.1464  0.4404 -0.7965
 1449TIP3    H2 4354   6.234   5.840   3.999  0.6154 -0.1745 -0.4880
 1450TIP3   OH2 4355   3.939   3.078   0.199 -0.2516  0.2682  0.0798
 1450TIP3    H1 4356   3.899   2.992   0.215 -0.8764  0.4068 -0.6592
 1450TIP3    H2 4357   3.865   3.134   0.174  0.2545  0.8186 -0.1958
 1451TIP3   OH2 4358   3.796   5.635   0.889  0.3836  0.4457 -0.2146
 1451TIP3    H1 4359   3.737   5.582   0.835  1.9373 -1.4694 -0.1272
 1451TIP3    H2 4360   3.806   5.585   0.970  0.1155  2.0273  0.8483
 1452TIP3   OH2 4361   2.614   0.700   3.241  0.1332 -0.3125  0.2969
 1452TIP3    H1 4362   2.537   0.660   3.282  0.4623  0.8401  2.1704
 1452TIP3    H2 4363   2.679   0.703   3.311  1.5734 -0.3875 -0.9932
 1453TIP3   OH2 4364   4.964   5.277   5.009 -0.1186  0.0339  0.7426
 1453TIP3    H1 4365   5.025   5.206   4.990 -0.9013 -0.9704  1.8067
 1453TIP3    H2 4366   4.996   5.316   5.090 -0.0972  0.4259  0.5478
 1454TIP3   OH2 4367   6.100   0.283   5.016 -0.0540  0.3205  0.3641
 1454TIP3    H1 4368   6.042   0.227   4.966  0.2576 -0.8539  1.2823
 1454TIP3    H2 4369   6.075   0.270   5.108  1.2708  0.2045  0.7393
 1455TIP3   OH2 4370   1.591   1.305   1.024 -0.2291 -0.6403 -0.2146
 1455TIP3    H1 4371   1.595   1.373   1.091 -0.4518 -0.4357 -0.4067
 1455TIP3    H2 4372   1.543   1.345   0.952 -2.3072 -1.7094  0.5040
 1456TIP3   OH2 4373   0.254   1.757   1.915 -0.0944  0.4616 -0.3762
 1456TIP3    H1 4374   0.251   1.663   1.899 -0.2142  0.0100  2.0379
 1456TIP3    H2 4375   0.194   1.794   1.850 -1.0899 -1.2635 -0.4913
 1457TIP3   OH2 4376   4.082   3.141   3.392  0.2313 -0.3226  0.2142
 1457TIP3    H1 4377   4.102   3.069   3.333 -0.6271  0.5512 -1.2077
 1457TIP3    H2 4378   4.152   3.138   3.458 -0.1268 -2.7831  0.5685
 1458TIP3   OH2 4379   0.890   2.320   2.419  0.1033 -0.3979 -0.1029
 1458TIP3    H1 4380   0.890   2.384   2.490  1.2796 -0.5152  0.0227
 1458TIP3    H2 4381   0.814   2.266   2.436  0.5510 -0.6388  1.2832
 1459TIP3   OH2 4382   0.357   3.883   0.501  0.0449 -0.4820  0.0833
 1459TIP3    H1 4383   0.361   3.848   0.412  0.0406  0.2497 -0.2075
 1459TIP3    H2 4384   0.332   3.975   0.490 -1.6419 -0.7999  0.9218
 1460TIP3   OH2 4385   0.962   4.303   3.956  0.9010 -0.5323 -0.0823
 1460TIP3    H1 4386   0.936   4.288   3.865  2.3028  1.8363 -0.9652
 1460TIP3    H2 4387   0.880   4.298   4.005 -0.5788  1.9506 -2.0630
 1461TIP3   OH2 4388   3.439   1.131   1.721 -0.1380 -0.7199 -0.1041
 1461TIP3    H1 4389   3.525   1.094   1.744  0.5703  0.8734 -0.0944
 1461TIP3    H2 4390   3.458   1.193   1.651 -1.5108 -1.4135 -1.1307
 1462TIP3   OH2 4391   0.620   0.787   2.751  0.0809  0.0251  0.5291
 1462TIP3    H1 4392   0.704   0.825   2.725 -0.1410 -0.1666 -0.5196
 1462TIP3    H2 4393   0.642   0.702   2.788  0.2106 -1.3695 -2.4348
 1463TIP3   OH2 4394   2.253   4.854   0.845 -0.7801  0.2670 -0.0719
 1463TIP3    H1 4395   2.182   4.791   0.861 -0.5928 -0.0574 -0.5140
 1463TIP3    H2 4396   2.320   4.830   0.910  0.3626 -1.6367 -1.8295
 1464TIP3   OH2 4397   2.417   3.089   0.879  0.6252  0.2600 -0.0223
 1464TIP3    H1 4398   2.406   3.045   0.963  0.0428  0.6161  0.0910
 1464TIP3    H2 4399   2.473   3.164   0.898  2.8646 -1.1762 -0.4760
 1465TIP3   OH2 4400   0.192   0.135   0.129  0.1934 -0.2239 -0.2512
 1465TIP3    H1 4401   0.263   0.077   0.156 -0.3331 -0.1934  1.3470
 1465TIP3    H2 4402   0.145   0.154   0.211 -1.3225  0.1959 -1.1843
 1466TIP3   OH2 4403   0.182   0.853   1.042 -0.0270  0.0206  0.1259
 1466TIP3    H1 4404   0.153   0.915   0.975 -1.5289 -1.4480 -0.6845
 1466TIP3    H2 4405   0.221   0.907   1.110 -1.5412  1.8723 -0.3894
 1467TIP3   OH2 4406   5.868   2.399   0.721 -0.2967  0.2037  0.1545
 1467TIP3    H1 4407   5.818   2.377   0.799 -0.0840  0.4622  0.3651
 1467TIP3    H2 4408   5.884   2.493   0.727  0.5583  0.0589  0.3014
 1468TIP3   OH2 4409   2.381   5.934   4.709  0.2356 -0.1021  0.3271
 1468TIP3    H1 4410   2.424   6.017   4.731 -0.1227  0.0276  0.5332
 1468TIP3    H2 4411   2.317   5.920   4.779  0.9744 -1.0506  0.8413
 1469TIP3   OH2 4412   2.500   1.618   0.260  0.5193 -0.2946 -0.1453
 1469TIP3    H1 4413   2.543   1.546   0.215  1.4714 -0.3406  0.8070
 1469TIP3    H2 4414   2.550   1.696   0.235  0.9805 -0.3039  0.7064
 1470TIP3   OH2 4415   2.839   2.112   4.605  0.1045 -0.5024  0.2540
 1470TIP3    H1 4416   2.777   2.120   4.533  1.1564  0.1556 -0.6131
 1470TIP3    H2 4417   2.804   2.041   4.659 -1.0645 -0.5541 -0.5320
 1471TIP3   OH2 4418   2.205   3.266   1.182  0.6406  0.3679  0.5584
 1471TIP3    H1 4419   2.124   3.307   1.151  1.1590  0.1864 -1.1272
 1471TIP3    H2 4420   2.176   3.183   1.221  0.1975 -1.2288 -2.8344
 1472TIP3   OH2 4421   0.312   1.662   2.239 -0.4743  0.5515 -0.2290
 1472TIP3    H1 4422   0.303   1.580   2.288 -1.4360 -0.7537 -2.4318
 1472TIP3    H2 4423   0.285   1.640   2.150  1.3202  2.7628 -1.4195
 1473TIP3   OH2 4424   2.081   3.066   2.602  0.4448 -0.3637 -0.2335
 1473TIP3    H1 4425   2.176   3.067   2.614  0.3554 -0.6717  0.4981
 1473TIP3    H2 4426   2.059   2.974   2.590  0.5268 -0.1277 -2.8908
 1474TIP3   OH2 4427   5.421   3.118   2.447 -0.4066  0.2395 -0.4563
 1474TIP3    H1 4428   5.364   3.085   2.379 -1.7012 -0.7167  1.0313
 1474TIP3    H2 4429   5.362   3.156   2.513  0.8695  2.7348 -0.6044
 1475TIP3   OH2 4430   2.789   3.148   5.065  0.6401  0.4674  0.0625
 1475TIP3    H1 4431   2.754   3.183   4.983 -1.2600  1.8336  1.3566
 1475TIP3    H2 4432   2.842   3.073   5.039 -2.1764 -0.9275 -2.2305
 1476TIP3   OH2 4433   4.719   2.803   3.609  0.4404  0.1941  0.3540
 1476TIP3    H1 4434   4.730   2.849   3.525 -0.1981 -0.4786 -0.1050
 1476TIP3    H2 4435   4.808   2.773   3.631  0.4392 -0.5724 -0.6362
 1477TIP3   OH2 4436   2.855   2.366   3.987  0.1377  0.8087 -0.8771
 1477TIP3    H1 4437   2.767   2.404   3.979 -1.2121 -1.8316  0.3891
 1477TIP3    H2 4438   2.858   2.331   4.075  3.0934  2.0910 -0.3579
 1478TIP3   OH2 4439   3.816   3.073   1.933  0.0930 -0.2074 -0.4918
 1478TIP3    H1 4440   3.767   3.153   1.913 -1.9466 -0.7769  1.7206
 1478TIP3    H2 4441   3.772   3.005   1.881 -1.5424 -0.6950  1.3957
 1479TIP3   OH2 4442   5.272   0.535   0.603 -0.3251  0.0588  0.3184
 1479TIP3    H1 4443   5.364   0.545   0.578 -0.8517  1.2391 -1.3029
 1479TIP3    H2 4444   5.228   0.610   0.563 -1.7550  0.4389  2.4295
 1480TIP3   OH2 4445   5.898   5.783   3.009 -0.4857  0.0935  0.6094
 1480TIP3    H1 4446   5.852   5.722   2.953  1.1958  0.2011 -0.9850
 1480TIP3    H2 4447   5.830   5.839   3.046 -1.8500 -1.4902  0.5814
 1481TIP3   OH2 4448   2.549   5.513   5.121 -0.8571  0.4527 -0.1298
 1481TIP3    H1 4449   2.504   5.556   5.048  1.2621  0.6919 -1.3454
 1481TIP3    H2 4450   2.478   5.494   5.184 -2.2958  3.1696 -0.7498
 1482TIP3   OH2 4451   6.045   3.477   4.998  0.8065 -0.0201 -0.2188
 1482TIP3    H1 4452   6.012   3.396   5.035 -0.7207  0.7219  0.1266
 1482TIP3    H2 4453   5.978   3.505   4.936  0.4672  1.8126  0.8955
 1483TIP3   OH2 4454   1.837   3.496   1.068  0.1609 -0.2054 -0.3925
 1483TIP3    H1 4455   1.835   3.460   0.980  2.0864  0.2593 -0.6603
 1483TIP3    H2 4456   1.929   3.516   1.084 -0.4388  1.8130  0.8742
 1484TIP3   OH2 4457   1.506   3.563   3.109  0.0035 -0.2298  0.0855
 1484TIP3    H1 4458   1.486   3.487   3.055  1.2469 -0.2396 -0.4009
 1484TIP3    H2 4459   1.591   3.544   3.148  0.0959  0.6833  0.3686
 1485TIP3   OH2 4460   1.919   1.071   3.302  0.5030 -0.1706 -0.2128
 1485TIP3    H1 4461   1.884   1.154   3.271  0.6720 -0.1869 -0.4549
 1485TIP3    H2 4462   2.010   1.090   3.324  0.3201 -0.1045  0.5115
 1486TIP3   OH2 4463   3.979   3.767   3.280  0.2641  0.3079  0.3808
 1486TIP3    H1 4464   3.890   3.754   3.248  0.8684 -0.9800 -0.9094
 1486TIP3    H2 4465   4.027   3.802   3.205  1.2379 -0.7934  0.4468
 1487TIP3   OH2 4466   2.704   1.369   2.445  0.1565  0.0509 -0.2777
 1487TIP3    H1 4467   2.770   1.342   2.509  0.3042 -0.4398 -0.6283
 1487TIP3    H2 4468   2.750   1.428   2.385 -0.0502  0.7284  0.2204
 1488TIP3   OH2 4469   0.239   0.714   2.878 -0.6119 -0.5849  0.6610
 1488TIP3    H1 4470   0.272   0.746   2.962  0.7366 -0.8063  0.2378
 1488TIP3    H2 4471   0.255   0.786   2.817  0.6190 -1.2781  0.1180
 1489TIP3   OH2 4472   1.332   1.558   1.354  0.1280 -0.4163  0.0269
 1489TIP3    H1 4473   1.320   1.576   1.261 -1.7133 -0.7192  0.1618
 1489TIP3    H2 4474   1.282   1.477   1.369  2.0371 -1.4832  0.9028
 1490TIP3   OH2 4475   3.597   2.612   4.316  0.1405  0.1894 -0.1556
 1490TIP3    H1 4476   3.537   2.557   4.367  1.1748 -1.1075 -0.2676
 1490TIP3    H2 4477   3.550   2.628   4.233  0.0055 -0.9678 -0.3253
 1491TIP3   OH2 4478   2.948   2.388   0.090  0.2446  0.2009  0.0508
 1491TIP3    H1 4479   2.922   2.312   0.142 -0.6950  0.7053  0.3361
 1491TIP3    H2 4480   3.024   2.424   0.136  1.4048 -1.1915 -0.6931
 1492TIP3   OH2 4481   6.105   4.857   3.954 -0.1268  0.1225  0.7626
 1492TIP3    H1 4482   6.068   4.794   3.892 -0.5721  0.2807  0.8660
 1492TIP3    H2 4483   6.191   4.822   3.975  0.6345  0.7867 -1.0500
 1493TIP3   OH2 4484   6.026   4.524   1.927 -0.3375 -0.3750 -0.5605
 1493TIP3    H1 4485   5.986   4.448   1.883 -0.7558  0.0214 -0.8827
 1493TIP3    H2 4486   6.086   4.561   1.862 -0.9386  0.1985 -0.8058
 1494TIP3   OH2 4487   5.542   1.705   0.986 -0.0920  0.2043 -0.0454
 1494TIP3    H1 4488   5.573   1.693   1.076  0.3377  0.1839 -0.1942
 1494TIP3    H2 4489   5.535   1.800   0.976 -2.6300  0.1862  0.8403
 1495TIP3   OH2 4490   1.813   5.751   4.432 -0.4755  0.8365 -0.0400
 1495TIP3    H1 4491   1.778   5.833   4.465  1.7220  1.5322  0.7675
 1495TIP3    H2 4492   1.882   5.727   4.494 -1.4390 -1.9636  0.0768
 1496TIP3   OH2 4493   6.271   4.797   3.120 -0.0889  0.1068 -0.4320
 1496TIP3    H1 4494   6.227   4.734   3.178 -0.4323 -0.5820 -1.4182
 1496TIP3    H2 4495   6.206   4.867   3.108  0.2987  0.6885  0.6759
 1497TIP3   OH2 4496   1.693   5.690   4.044 -0.3939 -0.3370 -0.0105
 1497TIP3    H1 4497   1.726   5.600   4.046  0.3150 -0.0739  1.4303
 1497TIP3    H2 4498   1.712   5.721   3.955 -3.1142 -2.4445 -1.5006
 1498TIP3   OH2 4499   3.730   1.310   2.852  0.2250  0.4438  0.5364
 1498TIP3    H1 4500   3.795   1.241   2.864 -0.3026  0.1831  2.1572
 1498TIP3    H2 4501   3.671   1.301   2.927 -0.5959  1.8603  0.1059
 1499TIP3   OH2 4502   2.447   4.873   1.035  0.3543 -0.5135  0.1144
 1499TIP3    H1 4503   2.530   4.886   0.988  0.1081 -0.0257 -0.1966
 1499TIP3    H2 4504   2.458   4.920   1.117  1.0471 -1.9451  0.8851
 1500TIP3   OH2 4505   5.765   3.684   0.827 -0.6202  0.1514 -0.7176
 1500TIP3    H1 4506   5.780   3.778   0.823 -1.9294  0.3497 -1.9388
 1500TIP3    H2 4507   5.817   3.648   0.755 -1.3788  0.1459 -1.2710
 1501TIP3   OH2 4508   6.146   2.978   3.965 -0.2242 -0.1972  0.0338
 1501TIP3    H1 4509   6.195   3.042   4.017  2.9274  0.3744 -3.1927
 1501TIP3    H2 4510   6.063   3.021   3.945  0.9568  2.0859 -0.3236
 1502TIP3   OH2 4511   0.913   5.063   3.793 -0.7243 -0.0016  0.0386
 1502TIP3    H1 4512   0.892   5.147   3.751  0.5903  0.3078 -0.0626
 1502TIP3    H2 4513   0.982   5.026   3.738  0.0674 -0.2329  1.1536
 1503TIP3   OH2 4514   2.494   0.855   0.576 -0.0402 -0.4323 -0.5736
 1503TIP3    H1 4515   2.476   0.785   0.639 -1.8203 -0.6635 -1.2525
 1503TIP3    H2 4516   2.559   0.817   0.516 -0.2053 -1.1346 -0.3209
 1504TIP3   OH2 4517   1.581   2.256   1.052  0.3068  0.1328 -0.4460
 1504TIP3    H1 4518   1.506   2.201   1.031  0.4131 -0.1210 -0.1582
 1504TIP3    H2 4519   1.618   2.217   1.130 -0.5845  1.5417  0.7312
 1505TIP3   OH2 4520   3.201   5.918   2.342  0.0690  0.8300  0.5802
 1505TIP3    H1 4521   3.186   5.824   2.327 -0.5049  1.1084 -0.6698
 1505TIP3    H2 4522   3.166   5.934   2.429 -0.3276 -0.0112  0.5879
 1506TIP3   OH2 4523   4.883   5.623   4.284 -0.4993 -0.3313  0.0074
 1506TIP3    H1 4524   4.961   5.590   4.240  1.1478  1.8780  1.0945
 1506TIP3    H2 4525   4.860   5.703   4.237 -2.3874 -1.1167 -0.5207
 1507TIP3   OH2 4526   5.008   5.312   3.851  0.6626 -0.3458  0.0151
 1507TIP3    H1 4527   4.949   5.240   3.876  0.1832 -0.4459 -1.3374
 1507TIP3    H2 4528   5.036   5.290   3.762 -1.5452  2.4281 -1.4834
 1508TIP3   OH2 4529   6.045   4.464   4.074  0.2642  0.2075 -0.4393
 1508TIP3    H1 4530   6.053   4.545   4.124  1.7620 -0.6667  0.8387
 1508TIP3    H2 4531   6.129   4.455   4.028 -0.4055  0.0666 -1.6744
 1509TIP3   OH2 4532   3.058   4.146   4.277  0.3844  0.0085  0.2556
 1509TIP3    H1 4533   3.067   4.075   4.213  1.2367  0.7236 -0.4387
 1509TIP3    H2 4534   2.984   4.119   4.332 -0.0839 -0.8313 -0.7486
 1510TIP3   OH2 4535  -0.025   2.701   1.580  0.7037 -0.2572 -0.1657
 1510TIP3    H1 4536   0.047   2.764   1.583 -0.0274  0.6168 -0.4868
 1510TIP3    H2 4537  -0.014   2.649   1.659 -0.1644  1.9866  1.5440
 1511TIP3   OH2 4538   3.865   1.109   5.128  0.2780  0.0524  0.2391
 1511TIP3    H1 4539   3.832   1.197   5.110 -1.4456 -0.6192 -0.1003
 1511TIP3    H2 4540   3.939   1.122   5.188 -0.4022  1.6749  0.7673
 1512TIP3   OH2 4541   3.016   5.967   0.088 -0.2052  0.1228 -0.6776
 1512TIP3    H1 4542   3.108   5.958   0.112 -0.1143  1.6986 -0.2962
 1512TIP3    H2 4543   2.982   5.878   0.090  1.0554 -0.3758  0.2020
 1513TIP3   OH2 4544   4.771   0.399   4.044 -0.1809  0.6531 -0.2256
 1513TIP3    H1 4545   4.729   0.470   3.996 -0.7218  0.4825 -0.0115
 1513TIP3    H2 4546   4.718   0.322   4.025 -1.1261  0.7970  1.5375
 1514TIP3   OH2 4547   4.856   3.099   4.274  0.0111  0.0542  0.1645
 1514TIP3    H1 4548   4.881   3.008   4.286 -0.7546 -0.1563  0.2125
 1514TIP3    H2 4549   4.839   3.108   4.181 -1.9846 -0.4246  0.4284
 1515TIP3   OH2 4550   4.635   2.862   4.504 -0.0411  0.2332  0.4406
 1515TIP3    H1 4551   4.704   2.806   4.540  0.1432 -0.2967 -0.6959
 1515TIP3    H2 4552   4.650   2.860   4.409 -2.6504 -1.3120 -0.0279
 1516TIP3   OH2 4553   0.378   5.052   4.802 -0.9433  0.5935 -0.0917
 1516TIP3    H1 4554   0.438   4.978   4.812  0.6114  1.5183 -1.8249
 1516TIP3    H2 4555   0.346   5.045   4.712 -3.7617 -0.0286  0.8550
 1517TIP3   OH2 4556   4.557   2.498   3.408  0.1425 -0.0841 -0.2101
 1517TIP3    H1 4557   4.534   2.493   3.315  2.7823 -1.8722 -0.8569
 1517TIP3    H2 4558   4.595   2.586   3.418  1.0150 -0.3363 -1.1497
 1518TIP3   OH2 4559   3.088   2.114   2.865  0.6849  0.5354  0.0999
 1518TIP3    H1 4560   3.121   2.067   2.789  2.4023  1.9973 -0.0993
 1518TIP3    H2 4561   3.150   2.093   2.935  0.0265  0.4967  0.6876
 1519TIP3   OH2 4562   2.293   1.923   2.505 -0.6961 -0.3416  0.1917
 1519TIP3    H1 4563   2.347   1.917   2.584  0.0085 -0.4064 -0.2911
 1519TIP3    H2 4564   2.340   1.984   2.448 -1.4495  0.0821  0.0141
 1520TIP3   OH2 4565   2.599   3.438   2.804  0.3024 -0.0187 -0.1469
 1520TIP3    H1 4566   2.573   3.495   2.877  1.6806  0.7640 -0.2385
 1520TIP3    H2 4567   2.609   3.498   2.730  0.7199 -0.5360 -0.5158
 1521TIP3   OH2 4568   0.103   5.306   1.662 -0.5328 -0.2423  0.0617
 1521TIP3    H1 4569   0.029   5.306   1.602  0.1661  0.5333 -0.8431
 1521TIP3    H2 4570   0.067   5.335   1.745 -1.0356  1.2562 -0.6545
 1522TIP3   OH2 4571   1.873   5.333   3.103 -0.2022 -0.2971  0.0117
 1522TIP3    H1 4572   1.828   5.268   3.050 -0.5365 -0.6507  0.7118
 1522TIP3    H2 4573   1.804   5.373   3.156 -0.0078  0.6782 -0.4608
 1523TIP3   OH2 4574   0.250   2.295   0.097 -0.0564  0.0659  0.4925
 1523TIP3    H1 4575   0.271   2.266   0.008 -0.1695 -1.1166  0.8466
 1523TIP3    H2 4576   0.233   2.389   0.087 -0.5116 -0.1290 -0.8109
 1524TIP3   OH2 4577   1.374   1.085   1.895  0.1967 -0.3368 -0.2415
 1524TIP3    H1 4578   1.429   1.025   1.944  0.2181  0.6718  1.0054
 1524TIP3    H2 4579   1.420   1.097   1.812  0.0984 -2.1581 -0.6177
 1525TIP3   OH2 4580   4.293   5.484   2.342 -0.1752 -0.6327  1.0302
 1525TIP3    H1 4581   4.200   5.463   2.352 -0.4953  0.1177 -0.1486
 1525TIP3    H2 4582   4.299   5.577   2.364 -0.0078 -0.2683 -0.4293
 1526TIP3   OH2 4583   0.796   3.491   2.476 -0.3908 -0.3076  0.0143
 1526TIP3    H1 4584   0.760   3.403   2.476 -0.9830 -0.1513  2.5240
 1526TIP3    H2 4585   0.734   3.542   2.528  1.1729  1.0162  0.6535
 1527TIP3   OH2 4586   2.569   1.462   4.496  0.0519 -1.0454  0.3681
 1527TIP3    H1 4587   2.634   1.494   4.558  0.1615 -0.4659 -0.0312
 1527TIP3    H2 4588   2.490   1.448   4.549 -0.0003 -0.0886  0.5670
 1528TIP3   OH2 4589   1.021   0.640   3.757 -0.6151 -0.4173  0.0290
 1528TIP3    H1 4590   1.017   0.702   3.830  0.3629  0.8319 -0.9373
 1528TIP3    H2 4591   0.936   0.595   3.759 -0.2926 -1.0832  2.4547
 1529TIP3   OH2 4592   3.663   4.579   1.384  0.6447 -0.2718  0.0298
 1529TIP3    H1 4593   3.714   4.651   1.420  0.1385  0.3465 -0.4569
 1529TIP3    H2 4594   3.572   4.611   1.387  0.4449 -0.7906 -0.4131
 1530TIP3   OH2 4595   0.280   0.123   4.773 -0.2067 -0.3967 -0.0136
 1530TIP3    H1 4596   0.306   0.146   4.862  0.6142 -2.7929  0.4317
 1530TIP3    H2 4597   0.188   0.097   4.781 -0.7306  1.2509 -0.2770
 1531TIP3   OH2 4598   5.799   0.242   0.940  0.0770 -0.1863 -0.0332
 1531TIP3    H1 4599   5.742   0.307   0.981  0.0452 -0.6277  0.6249
 1531TIP3    H2 4600   5.807   0.172   1.005  2.4437  0.4618  0.4758
 1532TIP3   OH2 4601   2.249   5.210   1.938 -0.0972  0.0336 -0.1318
 1532TIP3    H1 4602   2.330   5.229   1.891 -0.1976  1.8163  0.3593
 1532TIP3    H2 4603   2.187   5.277   1.909 -1.3700 -1.1566 -0.3386
 1533TIP3   OH2 4604   5.643   4.771   0.619 -0.0826  0.6615 -0.4150
 1533TIP3    H1 4605   5.557   4.811   0.634 -1.1901 -1.7560  0.1661
 1533TIP3    H2 4606   5.647   4.759   0.524 -1.9523 -2.1750 -0.2686
 1534TIP3   OH2 4607   1.148   3.492   4.442  0.3048  0.7987 -0.1121
 1534TIP3    H1 4608   1.105   3.578   4.438  0.2588  0.7684 -0.3150
 1534TIP3    H2 4609   1.225   3.506   4.497 -0.2002  0.7490  0.6120
 1535TIP3   OH2 4610   4.108   2.367   1.238 -0.1103  0.0263 -0.2535
 1535TIP3    H1 4611   4.121   2.419   1.317  1.5874  0.0186 -0.4995
 1535TIP3    H2 4612   4.112   2.431   1.166  2.6462 -0.4346 -0.6072
 1536TIP3   OH2 4613   2.708   3.817   0.464 -0.4000 -0.7572  0.7130
 1536TIP3    H1 4614   2.789   3.802   0.415 -0.2172 -0.7821  1.0189
 1536TIP3    H2 4615   2.640   3.773   0.413 -0.8384  2.0546 -1.4235
 1537TIP3   OH2 4616   5.559   1.618   4.857  0.3259  0.0185  0.3866
 1537TIP3    H1 4617   5.629   1.572   4.810 -0.1923 -0.2577 -0.1336
 1537TIP3    H2 4618   5.554   1.704   4.816  1.2876  0.5628  1.3521
 1538TIP3   OH2 4619   5.510   2.563   3.939 -0.0299 -0.6985 -0.3464
 1538TIP3    H1 4620   5.578   2.511   3.982  0.6888  2.1803  2.3869
 1538TIP3    H2 4621   5.433   2.507   3.940  0.9943 -2.1806  1.2928
 1539TIP3   OH2 4622   2.296   5.778   2.907 -0.6286 -0.1797  0.0417
 1539TIP3    H1 4623   2.344   5.762   2.988  0.1676 -0.2425 -0.4326
 1539TIP3    H2 4624   2.258   5.693   2.885  0.4310 -0.5385 -0.4559
 1540TIP3   OH2 4625   5.923   3.381   0.040  1.0001 -0.1320 -0.0144
 1540TIP3    H1 4626   5.984   3.311   0.017 -0.4040 -1.3953 -0.0443
 1540TIP3    H2 4627   5.837   3.341   0.032  0.1779  1.4659  0.4917
 1541TIP3   OH2 4628   3.576   5.328   3.745 -0.4911 -0.1422 -0.4725
 1541TIP3    H1 4629   3.647   5.393   3.748 -0.7420  0.1301 -0.3641
 1541TIP3    H2 4630   3.617   5.249   3.710  0.1489 -0.3524  0.7257
 1542TIP3   OH2 4631   3.210   4.717   0.577  0.6137 -0.2130 -0.4735
 1542TIP3    H1 4632   3.147   4.670   0.522 -0.4965  1.2132 -0.4960
 1542TIP3    H2 4633   3.221   4.802   0.534  0.2950  0.6592  1.0532
 1543TIP3   OH2 4634   5.416   3.072   0.875  0.0703  0.3031  0.5628
 1543TIP3    H1 4635   5.501   3.083   0.833 -0.5522  0.7592 -0.6463
 1543TIP3    H2 4636   5.422   2.988   0.921 -0.0209 -1.6169 -2.6104
 1544TIP3   OH2 4637   0.829   0.367   3.347  0.0678 -0.2209 -0.2310
 1544TIP3    H1 4638   0.910   0.418   3.356 -0.0123  0.1023 -1.1817
 1544TIP3    H2 4639   0.805   0.344   3.437  0.4125  0.9459  0.1885
 1545TIP3   OH2 4640   6.297   2.353   4.526  0.6969 -0.3430 -0.2085
 1545TIP3    H1 4641   6.350   2.275   4.544  0.5542 -0.2181  0.8156
 1545TIP3    H2 4642   6.249   2.368   4.608  0.2190  0.4231 -0.6263
 1546TIP3   OH2 4643   4.381   1.077   0.564 -0.4564  0.1945  0.5734
 1546TIP3    H1 4644   4.455   1.129   0.595  0.3873 -1.2252  1.0462
 1546TIP3    H2 4645   4.319   1.077   0.637 -0.8711  1.2617  0.2339
 1547TIP3   OH2 4646   5.338   5.656   3.130 -0.6425  0.6690 -0.1076
 1547TIP3    H1 4647   5.400   5.721   3.095 -0.2701 -0.1636 -1.0505
 1547TIP3    H2 4648   5.264   5.708   3.160  0.3997  1.6650  0.8132
 1548TIP3   OH2 4649   4.668   2.361   3.827  0.1641 -0.1282  0.4955
 1548TIP3    H1 4650   4.610   2.381   3.754 -1.1133 -1.5556  1.0705
 1548TIP3    H2 4651   4.709   2.278   3.802 -0.3202 -0.6523  1.4002
 1549TIP3   OH2 4652   4.272   2.976   5.134  0.2553 -0.1421 -0.0083
 1549TIP3    H1 4653   4.228   3.053   5.097  0.2044  0.4926  1.3217
 1549TIP3    H2 4654   4.212   2.903   5.115  0.3600  0.0995 -1.3790
 1550TIP3   OH2 4655   1.007   1.258   5.096 -0.2097  0.4562  0.0272
 1550TIP3    H1 4656   1.102   1.267   5.083  0.0329  1.4446  2.0912
 1550TIP3    H2 4657   0.975   1.225   5.013  2.2159 -1.8337 -0.1353
 1551TIP3   OH2 4658   5.601   5.735   1.093  0.5195  0.0731 -0.2807
 1551TIP3    H1 4659   5.560   5.680   1.159  0.9150 -0.5521 -0.5526
 1551TIP3    H2 4660   5.681   5.767   1.133  1.2396 -1.0657 -0.7753
 1552TIP3   OH2 4661   5.363   5.945   1.328  0.0792 -0.1106  0.0538
 1552TIP3    H1 4662   5.283   5.902   1.300  0.8506 -1.4736 -0.1191
 1552TIP3    H2 4663   5.334   6.031   1.359 -1.3373 -0.2785 -0.7275
 1553TIP3   OH2 4664   0.355   5.327   1.568  0.0528  0.0240  0.1379
 1553TIP3    H1 4665   0.263   5.321   1.592 -0.0588  1.2210  0.0401
 1553TIP3    H2 4666   0.402   5.281   1.638 -0.4881  0.9301  1.1210
 1554TIP3   OH2 4667   1.369   3.575   4.626  0.0405  0.6214 -0.0649
 1554TIP3    H1 4668   1.389   3.574   4.720  0.7855 -0.7639 -0.2038
 1554TIP3    H2 4669   1.403   3.658   4.594 -1.0483  1.5337  1.0433
 1555TIP3   OH2 4670   0.241   2.172   4.529 -0.2190 -0.5478 -0.8566
 1555TIP3    H1 4671   0.307   2.237   4.552  0.5347 -1.5483 -0.0966
 1555TIP3    H2 4672   0.230   2.182   4.434 -0.6803  1.1612 -0.6641
 1556TIP3   OH2 4673   2.421   3.888   4.855 -0.0255  0.2493  0.3246
 1556TIP3    H1 4674   2.410   3.795   4.872 -2.9347  0.1945 -1.1747
 1556TIP3    H2 4675   2.333   3.925   4.866  1.2562  3.1493  2.3233
 1557TIP3   OH2 4676   0.762   0.652   2.951  0.6684 -0.3391 -0.0664
 1557TIP3    H1 4677   0.803   0.708   3.016  0.5007 -0.2263 -0.0591
 1557TIP3    H2 4678   0.778   0.563   2.982  0.6564 -0.2870  0.0866
 1558TIP3   OH2 4679   4.533   1.013   2.524  0.3617 -0.7828 -0.3145
 1558TIP3    H1 4680   4.531   0.920   2.543 -1.9583 -0.7249  0.0033
 1558TIP3    H2 4681   4.538   1.055   2.610 -0.0433 -0.6124 -0.3714
 1559TIP3   OH2 4682   4.343   4.563   1.108  0.0903 -0.8211 -0.4663
 1559TIP3    H1 4683   4.388   4.647   1.107 -0.2983 -0.5645 -2.9632
 1559TIP3    H2 4684   4.407   4.501   1.072 -0.6264 -0.9628 -1.5466
 1560TIP3   OH2 4685   2.858   5.495   0.710 -0.4825 -0.4322  0.1616
 1560TIP3    H1 4686   2.795   5.433   0.672 -1.0898  1.2841 -1.7788
 1560TIP3    H2 4687   2.941   5.476   0.666 -0.8472  0.5739 -1.0245
 1561TIP3   OH2 4688   5.224   0.615   1.890  0.7360 -0.0406  0.1120
 1561TIP3    H1 4689   5.318   0.622   1.906  1.2678 -0.9869 -2.2317
 1561TIP3    H2 4690   5.204   0.688   1.831  0.4622 -1.0702 -1.1010
 1562TIP3   OH2 4691  -0.010   3.849   1.236 -0.3047 -0.2454  0.1180
 1562TIP3    H1 4692   0.084   3.864   1.243 -0.3304  0.3785 -0.7021
 1562TIP3    H2 4693  -0.032   3.876   1.147 -1.3338  0.0097  0.4366
 1563TIP3   OH2 4694   4.487   4.500   0.198 -0.2974  0.6548 -0.0111
 1563TIP3    H1 4695   4.434   4.518   0.277 -1.3578  1.3011 -0.8439
 1563TIP3    H2 4696   4.450   4.558   0.131  0.2856 -0.2217 -1.1102
 1564TIP3   OH2 4697   3.643   3.451   5.077  0.3450  0.5635 -0.1094
 1564TIP3    H1 4698   3.648   3.546   5.074 -1.1564  0.6612 -0.4962
 1564TIP3    H2 4699   3.553   3.433   5.103  0.8852 -0.7531  0.9602
 1565TIP3   OH2 4700   0.337   0.184   5.061  0.4026  0.2547 -0.2329
 1565TIP3    H1 4701   0.357   0.277   5.072  1.2222  0.2337 -1.3529
 1565TIP3    H2 4702   0.402   0.139   5.115  1.2693  0.2962 -1.2008
 1566TIP3   OH2 4703   2.929   0.395   5.044 -0.3274  0.4022 -0.4937
 1566TIP3    H1 4704   2.922   0.329   5.114  0.8844 -0.6479 -1.3074
 1566TIP3    H2 4705   2.839   0.426   5.032 -0.6480  0.2328  1.1590
 1567TIP3   OH2 4706   1.590   4.562   2.133  0.4749  0.0475 -0.5195
 1567TIP3    H1 4707   1.667   4.539   2.081  1.6484 -0.6503  1.4117
 1567TIP3    H2 4708   1.546   4.479   2.150 -0.4114  0.3801 -1.1604
 1568TIP3   OH2 4709   2.402   4.561   3.633  0.4195 -0.7281  0.0707
 1568TIP3    H1 4710   2.417   4.653   3.653 -0.8074 -0.5990  0.4830
 1568TIP3    H2 4711   2.389   4.558   3.538  2.1472 -0.7505 -0.2094
 1569TIP3   OH2 4712   3.468   3.476   0.662  0.2987  0.3318  0.1829
 1569TIP3    H1 4713   3.528   3.427   0.718  2.0150  0.9624 -0.9928
 1569TIP3    H2 4714   3.509   3.562   0.653 -0.8342  0.8195 -0.6071
 1570TIP3   OH2 4715   0.996   1.344   2.219 -0.3916  0.1355  0.3110
 1570TIP3    H1 4716   0.984   1.437   2.199  0.0937  0.2720  0.6429
 1570TIP3    H2 4717   0.907   1.309   2.223 -0.5844  0.6136  0.3196
 1571TIP3   OH2 4718   5.887   1.402   1.197 -0.5031  0.5998  0.4002
 1571TIP3    H1 4719   5.821   1.399   1.127  0.3435  1.6742 -0.4761
 1571TIP3    H2 4720   5.967   1.368   1.156 -0.4620 -0.5981  1.4217
 1572TIP3   OH2 4721   4.803   1.841   4.760  0.2051 -0.0113 -0.0751
 1572TIP3    H1 4722   4.785   1.926   4.719  0.5292  0.4642  0.7406
 1572TIP3    H2 4723   4.794   1.857   4.854  0.1272 -0.9190  0.0779
 1573TIP3   OH2 4724   3.200   1.869   3.073  0.2590  0.1135 -0.3115
 1573TIP3    H1 4725   3.276   1.821   3.106  0.9554  1.1213 -0.3806
 1573TIP3    H2 4726   3.221   1.961   3.091  0.3715  0.6830 -2.9188
 1574TIP3   OH2 4727   3.027   0.230   3.560  0.0034 -0.4594 -0.2840
 1574TIP3    H1 4728   3.013   0.223   3.466 -0.1640  2.1380 -0.5261
 1574TIP3    H2 4729   2.939   0.230   3.597  0.0743 -1.6543 -0.0811
 1575TIP3   OH2 4730   1.351   0.627   2.459 -0.2243 -0.1532 -0.6721
 1575TIP3    H1 4731   1.425   0.687   2.462  0.3091 -0.7648 -1.2445
 1575TIP3    H2 4732   1.277   0.681   2.434 -0.1897  0.6572  0.8441
 1576TIP3   OH2 4733   1.007   2.782   4.535  0.5780 -0.1666 -0.2955
 1576TIP3    H1 4734   1.066   2.762   4.607  0.0233 -0.2254  0.1502
 1576TIP3    H2 4735   0.921   2.792   4.576  0.6146  2.0640 -0.6218
 1577TIP3   OH2 4736   2.980   4.753   2.765  0.7071  0.1096 -1.1787
 1577TIP3    H1 4737   2.891   4.771   2.795  0.6871  0.5312 -1.4824
 1577TIP3    H2 4738   3.007   4.676   2.815  1.5059  2.0190  1.5722
 1578TIP3   OH2 4739   1.910   2.591   0.569  0.8014 -0.5064  0.4584
 1578TIP3    H1 4740   1.819   2.620   0.560  0.7785 -0.6977  0.0596
 1578TIP3    H2 4741   1.958   2.642   0.505  1.0005 -0.3124  0.7588
 1579TIP3   OH2 4742   2.331   4.946   3.869 -0.0408 -0.4032  0.1672
 1579TIP3    H1 4743   2.239   4.942   3.843 -0.4470  0.8979  1.2684
 1579TIP3    H2 4744   2.329   4.941   3.965  1.1350 -1.4656  0.1726
 1580TIP3   OH2 4745   4.576   1.352   3.338  0.5004  0.0431 -0.1242
 1580TIP3    H1 4746   4.645   1.346   3.273  0.7479 -0.1885  0.1545
 1580TIP3    H2 4747   4.520   1.423   3.308  1.6631  1.2388  0.4008
 1581TIP3   OH2 4748   2.969   5.625   2.506  0.0721  0.4329 -0.2781
 1581TIP3    H1 4749   3.004   5.713   2.516 -1.0258  0.9884 -1.0652
 1581TIP3    H2 4750   3.037   5.577   2.459  0.3682  1.0654 -0.5000
 1582TIP3   OH2 4751   4.021   1.728   4.257 -0.1777 -0.4709 -0.4176
 1582TIP3    H1 4752   4.002   1.676   4.179 -2.5031 -0.2044 -0.0956
 1582TIP3    H2 4753   3.941   1.725   4.308  0.3228  1.7236  0.6216
 1583TIP3   OH2 4754   2.779   5.726   1.570  0.2757  0.8696  0.1657
 1583TIP3    H1 4755   2.798   5.818   1.590  0.2374  0.7778  0.6448
 1583TIP3    H2 4756   2.815   5.677   1.644 -1.1906  0.6353  0.7695
 1584TIP3   OH2 4757   5.770   1.589   1.736  1.4738 -0.2053 -0.2018
 1584TIP3    H1 4758   5.840   1.650   1.757  3.2983 -1.6686 -1.7008
 1584TIP3    H2 4759   5.810   1.525   1.677 -0.8617 -1.7153 -0.2954
 1585TIP3   OH2 4760   6.079   4.697   4.209  0.1944  0.1410  0.0133
 1585TIP3    H1 4761   5.998   4.731   4.248 -0.1274  0.6364 -1.0511
 1585TIP3    H2 4762   6.106   4.766   4.148 -0.5946 -1.5484 -2.3954
 1586TIP3   OH2 4763   2.810   4.761   4.898  0.4556  0.2442 -0.1058
 1586TIP3    H1 4764   2.787   4.675   4.863  0.7059  0.2174 -0.2056
 1586TIP3    H2 4765   2.826   4.746   4.991  1.5425 -0.0202 -0.3189
 1587TIP3   OH2 4766   6.252   5.788   5.155  0.3449 -0.1541  0.1686
 1587TIP3    H1 4767   6.256   5.773   5.061  1.7173  1.8221 -0.1434
 1587TIP3    H2 4768   6.173   5.842   5.167  0.3916 -0.0684  0.0930
 1588TIP3   OH2 4769   0.923   1.274   0.682 -0.2321  0.7472  0.2682
 1588TIP3    H1 4770   0.988   1.311   0.622  1.3268  0.4560  1.7023
 1588TIP3    H2 4771   0.950   1.183   0.694 -0.2971  0.8930  1.6618
 1589TIP3   OH2 4772   6.307   1.237   2.722  0.5204 -0.1123 -0.0971
 1589TIP3    H1 4773   6.285   1.154   2.764 -0.1718  0.8888  1.6352
 1589TIP3    H2 4774   6.223   1.278   2.702  0.8312  0.6517  0.1071
 1590TIP3   OH2 4775   1.562   4.720   3.252 -0.5166  0.4634 -0.3132
 1590TIP3    H1 4776   1.538   4.809   3.276 -1.4729  0.2767 -0.5427
 1590TIP3    H2 4777   1.549   4.716   3.157 -2.3875 -0.4676 -0.0498
 1591TIP3   OH2 4778   1.709   0.698   5.042 -0.2910 -0.5571  0.0013
 1591TIP3    H1 4779   1.803   0.711   5.049 -0.4915  1.2157 -0.1056
 1591TIP3    H2 4780   1.698   0.644   4.964  0.6780 -1.7839  0.6791
 1592TIP3   OH2 4781   4.686   4.766   0.468  0.2767 -0.0684 -0.0390
 1592TIP3    H1 4782   4.602   4.738   0.505 -0.4008  2.2599  0.3189
 1592TIP3    H2 4783   4.715   4.836   0.525 -0.3202  3.0271 -3.2110
 1593TIP3   OH2 4784   0.786   0.969   2.257 -0.5926 -0.1438  0.3973
 1593TIP3    H1 4785   0.857   0.983   2.319 -0.0589  1.2513 -0.4816
 1593TIP3    H2 4786   0.708   1.000   2.303 -0.3729 -0.1720  0.7886
 1594TIP3   OH2 4787   3.080   3.558   4.327 -0.0153  0.4645  0.5910
 1594TIP3    H1 4788   3.077   3.467   4.295 -0.0588  0.0858  1.6356
 1594TIP3    H2 4789   2.989   3.587   4.321  0.1432  0.7875 -0.6545
 1595TIP3   OH2 4790   3.022   4.953   0.064  0.5133 -0.4535 -0.2853
 1595TIP3    H1 4791   3.052   4.929  -0.024 -1.0810  1.6884 -1.5135
 1595TIP3    H2 4792   2.942   4.902   0.077 -0.1624  0.4435 -0.8147
 1596TIP3   OH2 4793   5.916   1.820   2.904 -0.6443  0.0716  0.0211
 1596TIP3    H1 4794   5.941   1.885   2.970 -1.7177  0.7101 -0.1767
 1596TIP3    H2 4795   5.861   1.868   2.842 -0.0232 -0.6235 -1.1057
 1597TIP3   OH2 4796   3.988   1.738   1.673  0.4317 -0.3462 -0.0085
 1597TIP3    H1 4797   4.067   1.778   1.708  0.0881 -0.2476  0.6686
 1597TIP3    H2 4798   3.947   1.806   1.620  0.6282 -0.2979 -0.1006
 1598TIP3   OH2 4799   3.169   1.950   2.678  0.2326 -0.0861  0.6916
 1598TIP3    H1 4800   3.182   1.861   2.711 -0.6776 -0.3428  0.3905
 1598TIP3    H2 4801   3.225   1.956   2.601 -0.0265 -0.5471  0.4651
 1599TIP3   OH2 4802   4.381   4.028   3.023  0.3443  0.0741  0.3353
 1599TIP3    H1 4803   4.329   4.109   3.025  2.3509  1.4599 -0.7181
 1599TIP3    H2 4804   4.469   4.055   3.048  1.1208 -1.7538 -0.2987
 1600TIP3   OH2 4805   2.276   5.905   1.357  0.4321 -0.0782  0.1163
 1600TIP3    H1 4806   2.347   5.884   1.417 -0.6590 -0.8772  1.1943
 1600TIP3    H2 4807   2.312   5.972   1.298  1.9501 -0.2456  0.8179
 1601TIP3   OH2 4808   5.299   4.960   5.089  0.0105 -0.3344 -0.5573
 1601TIP3    H1 4809   5.266   4.980   5.001 -0.6408  1.8796  0.1188
 1601TIP3    H2 4810   5.386   4.999   5.091 -0.4019  0.5813  0.0954
 1602TIP3   OH2 4811   0.317   0.944   1.255  0.2446  0.4211 -0.4222
 1602TIP3    H1 4812   0.239   0.916   1.304 -0.3293  1.5917 -0.6084
 1602TIP3    H2 4813   0.346   1.023   1.301  3.4206 -1.7922  1.7399
 1603TIP3   OH2 4814   0.525   2.724   1.155  0.1213  0.0267  0.6238
 1603TIP3    H1 4815   0.482   2.696   1.075 -0.6862 -0.5830  1.2508
 1603TIP3    H2 4816   0.587   2.792   1.127 -1.2000  0.8898 -0.3086
 1604TIP3   OH2 4817   0.377   5.050   3.105  0.0169  0.1724  0.3139
 1604TIP3    H1 4818   0.333   5.135   3.109  2.4692  1.6292 -0.8293
 1604TIP3    H2 4819   0.358   5.017   3.018  0.2665  0.2830  0.2155
 1605TIP3   OH2 4820   0.781   3.735   3.101  0.1152  0.2089 -0.2577
 1605TIP3    H1 4821   0.789   3.806   3.037  2.6191  0.9468  0.7622
 1605TIP3    H2 4822   0.738   3.776   3.176  0.9578  0.4901  0.0798
 1606TIP3   OH2 4823   1.490   4.417   4.411 -0.1546 -0.6234 -0.3969
 1606TIP3    H1 4824   1.500   4.357   4.486  0.8977 -1.4448 -1.1665
 1606TIP3    H2 4825   1.534   4.373   4.339  1.1357  1.3392 -0.8750
 1607TIP3   OH2 4826   6.006   3.745   4.746  0.1210 -0.4608  0.4260
 1607TIP3    H1 4827   5.912   3.731   4.750  0.3156 -1.9226  0.1483
 1607TIP3    H2 4828   6.015   3.837   4.720 -1.2053  0.0104  1.5017
 1608TIP3   OH2 4829   0.072   1.143   3.889  0.2411 -0.4711 -0.4116
 1608TIP3    H1 4830  -0.005   1.101   3.849  0.0336 -0.1776 -0.3292
 1608TIP3    H2 4831   0.074   1.230   3.848  1.3117 -0.9385 -1.4151
 1609TIP3   OH2 4832   3.460   3.031   1.139 -0.0187  0.5966 -0.5625
 1609TIP3    H1 4833   3.512   3.023   1.059 -0.8954  0.4154 -1.1246
 1609TIP3    H2 4834   3.373   3.000   1.114  0.2319 -1.5256  1.0251
 1610TIP3   OH2 4835   1.816   0.370   4.054  0.1815  0.3358  0.0911
 1610TIP3    H1 4836   1.771   0.316   3.989  1.2712  0.0744 -0.4511
 1610TIP3    H2 4837   1.885   0.314   4.088 -0.5761  0.3352  1.7556
 1611TIP3   OH2 4838   1.216   1.170   2.277 -0.1157 -0.0070 -0.6005
 1611TIP3    H1 4839   1.227   1.165   2.372  0.7444 -0.7442 -0.7261
 1611TIP3    H2 4840   1.147   1.235   2.264  0.9068  1.3511  0.4648
 1612TIP3   OH2 4841   1.678   1.909   3.689  0.2154  0.5567 -0.4464
 1612TIP3    H1 4842   1.687   1.815   3.701  0.7850  0.5182 -1.1052
 1612TIP3    H2 4843   1.609   1.919   3.624 -0.1088  0.6170 -0.1003
 1613TIP3   OH2 4844   4.522   2.642   1.989  0.1171  0.4210 -0.6095
 1613TIP3    H1 4845   4.428   2.653   1.975 -0.0948  3.0914  1.9689
 1613TIP3    H2 4846   4.562   2.707   1.932  0.5853 -1.4187 -2.5033
 1614TIP3   OH2 4847   4.094   1.036   1.504 -0.4628 -0.0380  0.3201
 1614TIP3    H1 4848   4.061   1.072   1.422  0.3025 -1.1803 -0.5103
 1614TIP3    H2 4849   4.063   1.098   1.571  0.3460  1.8532 -0.9752
 1615TIP3   OH2 4850   2.428   0.906   2.208 -0.3068 -0.4476  0.0721
 1615TIP3    H1 4851   2.461   0.817   2.203  0.9254 -0.1601  1.9969
 1615TIP3    H2 4852   2.414   0.922   2.301  0.7653  1.7680 -0.0797
 1616TIP3   OH2 4853   5.413   2.683   2.964 -0.0547 -0.1681 -0.6222
 1616TIP3    H1 4854   5.417   2.752   3.031 -0.0543 -0.7029 -0.0710
 1616TIP3    H2 4855   5.339   2.628   2.990 -1.0355  0.4826 -1.9071
 1617TIP3   OH2 4856   3.406   2.348   0.637 -0.3661  0.4035  0.3542
 1617TIP3    H1 4857   3.441   2.437   0.632  1.3802 -0.2964 -1.4266
 1617TIP3    H2 4858   3.451   2.309   0.712 -0.1980  0.6718  0.3948
 1618TIP3   OH2 4859   5.583   1.413   2.583  0.2898 -0.4192  0.0717
 1618TIP3    H1 4860   5.607   1.418   2.491 -0.1448  1.0963  0.0098
 1618TIP3    H2 4861   5.659   1.448   2.629 -0.5185  1.4534  0.0741
 1619TIP3   OH2 4862   2.974   4.099   3.336  0.0698  0.4033 -0.3012
 1619TIP3    H1 4863   3.051   4.090   3.391 -0.1488  0.8867  0.0997
 1619TIP3    H2 4864   2.976   4.023   3.278 -0.6111 -1.0632  1.5036
 1620TIP3   OH2 4865   0.024   1.567   0.585  0.2875 -0.2430  0.0189
 1620TIP3    H1 4866   0.102   1.619   0.568  0.2382 -0.0978  0.2273
 1620TIP3    H2 4867   0.057   1.477   0.597  0.7711  0.1780  2.6536
 1621TIP3   OH2 4868   0.707   0.714   4.395 -0.2354 -0.0740 -0.1223
 1621TIP3    H1 4869   0.753   0.793   4.423  1.8457 -1.4460  0.5874
 1621TIP3    H2 4870   0.711   0.656   4.471  0.1105 -1.6057 -1.2604
 1622TIP3   OH2 4871   5.496   2.773   2.013  0.0953 -0.0309 -0.1734
 1622TIP3    H1 4872   5.552   2.835   2.060 -0.1345 -0.3696  0.5591
 1622TIP3    H2 4873   5.493   2.695   2.069  0.5847 -0.8111 -1.2010
 1623TIP3   OH2 4874   4.185   4.947   3.692  0.0320  0.4486  0.3654
 1623TIP3    H1 4875   4.271   4.930   3.730  0.7401 -0.2598 -1.4384
 1623TIP3    H2 4876   4.182   5.042   3.682 -0.0990  0.6350  1.9490
 1624TIP3   OH2 4877   2.897   5.180   5.094  0.4406 -0.4573  0.2161
 1624TIP3    H1 4878   2.886   5.251   5.157 -1.5735 -0.6964  0.1695
 1624TIP3    H2 4879   2.992   5.166   5.092  0.7775  1.2892  1.2399
 1625TIP3   OH2 4880   3.328   4.966   2.397  0.0303  0.2609 -0.3191
 1625TIP3    H1 4881   3.303   4.930   2.482  0.5277  1.3214  0.2915
 1625TIP3    H2 4882   3.345   4.889   2.342 -0.4555 -0.4297  0.4879
 1626TIP3   OH2 4883   5.143   2.945   4.167 -0.2862 -0.3068 -0.3891
 1626TIP3    H1 4884   5.154   3.040   4.167 -0.3630 -0.2905  0.4900
 1626TIP3    H2 4885   5.152   2.920   4.075 -0.7762  0.6101 -0.6991
 1627TIP3   OH2 4886   2.618   5.116   3.131  0.2389  0.2254 -0.2066
 1627TIP3    H1 4887   2.650   5.195   3.088  2.5245 -0.9004 -0.7430
 1627TIP3    H2 4888   2.547   5.146   3.188  1.1818  2.6695 -0.2157
 1628TIP3   OH2 4889   5.164   5.968   2.241  0.0209 -0.1019  0.1455
 1628TIP3    H1 4890   5.242   5.915   2.259  2.2902  2.9487  0.1541
 1628TIP3    H2 4891   5.093   5.924   2.289  2.1494 -1.9582  1.8139
 1629TIP3   OH2 4892   5.396   2.499   2.438  0.0128 -0.5455 -0.0852
 1629TIP3    H1 4893   5.415   2.591   2.422  0.3797 -0.5120  0.4928
 1629TIP3    H2 4894   5.392   2.459   2.351 -0.2107  0.0238 -0.3424
 1630TIP3   OH2 4895   6.047   5.024   0.077  0.0574 -0.4960 -0.2032
 1630TIP3    H1 4896   6.017   5.115   0.080  1.2630 -0.1005  0.7485
 1630TIP3    H2 4897   6.007   4.988  -0.002  1.4054  1.5567 -1.9380
 1631TIP3   OH2 4898   5.980   3.824   3.468 -0.3983  0.0915  0.0819
 1631TIP3    H1 4899   5.911   3.839   3.404 -0.9113  0.0724  0.6216
 1631TIP3    H2 4900   6.002   3.732   3.460  0.5490  0.3946 -1.0533
 1632TIP3   OH2 4901   3.792   1.615   5.031 -0.6681 -0.1729  0.3955
 1632TIP3    H1 4902   3.859   1.568   4.983 -1.4899 -0.7445 -0.2153
 1632TIP3    H2 4903   3.742   1.547   5.076 -1.8608  0.0782 -0.4885
 1633TIP3   OH2 4904   4.893   1.019   1.552 -0.1540  0.6896 -0.0003
 1633TIP3    H1 4905   4.802   0.997   1.568  0.3447 -2.3828 -0.7842
 1633TIP3    H2 4906   4.942   0.963   1.612  1.2417  1.2150 -0.6120
 1634TIP3   OH2 4907   6.195   1.212   4.161 -0.2152 -0.1960 -1.0263
 1634TIP3    H1 4908   6.156   1.219   4.074 -1.3169  1.1287 -0.4530
 1634TIP3    H2 4909   6.121   1.194   4.219  0.4911 -0.9591 -0.3360
 1635TIP3   OH2 4910   3.950   4.008   2.048  0.4876  0.0289 -0.3577
 1635TIP3    H1 4911   3.990   3.929   2.011  0.1209  0.8216 -2.6032
 1635TIP3    H2 4912   3.993   4.080   2.002  0.4555  1.1390  1.2888
 1636TIP3   OH2 4913   6.039   3.609   2.698  0.3533  0.8012  0.1115
 1636TIP3    H1 4914   6.134   3.622   2.704  0.5073  0.2762 -0.8998
 1636TIP3    H2 4915   6.004   3.694   2.672  0.7914  0.5395 -1.4926
 1637TIP3   OH2 4916   1.694   3.877   1.206  0.0950  0.2847  0.0676
 1637TIP3    H1 4917   1.644   3.799   1.183  0.3405 -0.5069  2.0357
 1637TIP3    H2 4918   1.629   3.935   1.246  0.1270  0.6447 -0.3944
 1638TIP3   OH2 4919   0.621   0.221   1.664 -0.0264  0.5486  0.0328
 1638TIP3    H1 4920   0.659   0.285   1.724 -1.4498 -0.2328  1.8596
 1638TIP3    H2 4921   0.690   0.156   1.650  0.3909  0.8490  0.6937
 1639TIP3   OH2 4922   0.343   0.378   1.273  0.0545 -0.0357 -0.3980
 1639TIP3    H1 4923   0.333   0.324   1.194  0.1050  0.3542 -0.6740
 1639TIP3    H2 4924   0.315   0.321   1.345  1.1959 -0.8166 -0.5546
 1640TIP3   OH2 4925   0.615   1.276   0.352 -0.3522  0.8465 -0.0874
 1640TIP3    H1 4926   0.710   1.260   0.344  0.0337  2.5022  0.7780
 1640TIP3    H2 4927   0.576   1.188   0.347  1.2467  0.0919 -0.0919
 1641TIP3   OH2 4928   0.216   2.011   2.032 -0.2759  0.0244 -0.4759
 1641TIP3    H1 4929   0.220   1.916   2.043 -3.4197 -0.3305 -1.4887
 1641TIP3    H2 4930   0.245   2.025   1.942 -0.9324 -0.1163 -0.7124
 1642TIP3   OH2 4931   2.156   3.101   2.314  0.0496 -0.3678  0.0442
 1642TIP3    H1 4932   2.129   3.095   2.405  0.5504 -2.3136  0.1110
 1642TIP3    H2 4933   2.252   3.097   2.317  0.1451  0.8080 -0.5274
 1643TIP3   OH2 4934   2.021   0.197   4.189  0.0405 -0.3669 -0.1121
 1643TIP3    H1 4935   1.995   0.198   4.282 -0.1075  1.5163 -0.1340
 1643TIP3    H2 4936   1.986   0.114   4.156 -0.4316 -0.8033  1.3711
 1644TIP3   OH2 4937   1.205   2.971   4.934  0.5092 -0.2937  0.1599
 1644TIP3    H1 4938   1.260   3.041   4.967  1.1416 -1.7079  2.3396
 1644TIP3    H2 4939   1.116   3.007   4.937  0.9108  0.7030  0.4118
 1645TIP3   OH2 4940   2.337   0.296   1.237 -0.3572 -0.8300  0.3272
 1645TIP3    H1 4941   2.371   0.232   1.299 -0.0341 -1.3090 -0.3327
 1645TIP3    H2 4942   2.324   0.246   1.156 -2.4241 -0.6281  0.4814
 1646TIP3   OH2 4943   0.742   2.931   4.870 -0.5586  0.3922  0.5670
 1646TIP3    H1 4944   0.787   2.847   4.879  0.8348  0.7764 -2.0278
 1646TIP3    H2 4945   0.650   2.911   4.891 -0.3331 -1.8453 -0.2906
 1647TIP3   OH2 4946   2.572   5.201   4.714  0.2239 -0.5998 -0.2972
 1647TIP3    H1 4947   2.497   5.226   4.659  0.2129 -0.4893 -0.2309
 1647TIP3    H2 4948   2.648   5.230   4.664  0.2170 -0.5721 -0.2913
 1648TIP3   OH2 4949   5.173   1.909   0.406  0.2481  0.2238  0.2808
 1648TIP3    H1 4950   5.247   1.850   0.417 -0.1156 -0.2122  0.4257
 1648TIP3    H2 4951   5.198   1.967   0.335  0.5120 -0.2615 -0.0264
 1649TIP3   OH2 4952   6.207   5.804   1.063  0.1301 -0.6412 -0.3841
 1649TIP3    H1 4953   6.172   5.819   1.151  0.1325  0.8452 -0.6191
 1649TIP3    H2 4954   6.261   5.725   1.072  0.3507 -0.3604  1.0070
 1650TIP3   OH2 4955   5.908   4.449   4.550 -0.6372  0.2002  0.2401
 1650TIP3    H1 4956   5.942   4.361   4.535 -0.2805  0.1623  1.1893
 1650TIP3    H2 4957   5.985   4.506   4.542 -1.0338  0.5636 -1.3690
 1651TIP3   OH2 4958   3.049   2.152   3.331  0.0216 -0.3481 -0.8523
 1651TIP3    H1 4959   3.052   2.068   3.377 -3.9910  0.2755  1.0782
 1651TIP3    H2 4960   3.132   2.195   3.353  1.6375 -3.2392 -0.8850
 1652TIP3   OH2 4961   1.069   4.951   4.991  0.6860 -0.3618  0.3011
 1652TIP3    H1 4962   1.102   5.002   4.917 -0.6498  0.1520  0.0243
 1652TIP3    H2 4963   1.143   4.944   5.051  1.8585 -0.9818 -1.1663
 1653TIP3   OH2 4964   4.355   4.924   1.456 -0.1105 -0.0204 -0.4882
 1653TIP3    H1 4965   4.286   4.926   1.390 -0.8850  0.9978  0.3116
 1653TIP3    H2 4966   4.386   4.834   1.456  0.4928  0.1230 -2.8074
 1654TIP3   OH2 4967   2.963   4.850   2.056 -0.1113  0.0662  0.8002
 1654TIP3    H1 4968   2.924   4.922   2.006 -0.0894 -0.5902 -0.2123
 1654TIP3    H2 4969   3.022   4.892   2.118  0.2647  0.9103 -0.0990
 1655TIP3   OH2 4970   5.570   5.940   0.239 -0.0449  0.4832  0.3935
 1655TIP3    H1 4971   5.654   5.963   0.198 -0.0807  0.6910  0.4390
 1655TIP3    H2 4972   5.594   5.913   0.328 -0.0801  1.0171  0.5665
 1656TIP3   OH2 4973   0.577   0.940   2.046  0.2847  0.3143  0.5495
 1656TIP3    H1 4974   0.648   0.960   2.107  0.3563  1.4451  0.1256
 1656TIP3    H2 4975   0.557   0.847   2.061  3.1822 -0.6113 -0.6703
 1657TIP3   OH2 4976   4.854   2.531   0.673  0.5334  0.0264  0.0506
 1657TIP3    H1 4977   4.806   2.545   0.754  0.5354 -0.8739  0.2184
 1657TIP3    H2 4978   4.887   2.441   0.680 -0.2071 -0.3753 -1.3192
 1658TIP3   OH2 4979   3.006   2.379   2.087  0.4466  0.7837 -0.0993
 1658TIP3    H1 4980   3.069   2.336   2.143  4.0281  2.4916 -2.4568
 1658TIP3    H2 4981   2.963   2.308   2.039  0.9093 -0.4045  1.2000
 1659TIP3   OH2 4982   1.055   5.644   4.582  0.4172 -0.6830  0.5524
 1659TIP3    H1 4983   0.989   5.712   4.590  2.1934  1.2834 -0.5207
 1659TIP3    H2 4984   1.137   5.687   4.606  1.5093 -2.6594  0.5557
 1660TIP3   OH2 4985   0.509   1.451   1.305 -0.1879  0.1882 -0.1957
 1660TIP3    H1 4986   0.516   1.545   1.325 -0.6808  0.5417 -1.5797
 1660TIP3    H2 4987   0.449   1.447   1.230 -0.4615 -1.2704  0.0738
 1661TIP3   OH2 4988   5.805   3.324   2.470 -1.1138  0.0613  0.3260
 1661TIP3    H1 4989   5.764   3.391   2.524  0.2821  1.3599 -0.1397
 1661TIP3    H2 4990   5.862   3.276   2.530  1.4035  2.3022 -0.0688
 1662TIP3   OH2 4991   5.468   2.993   4.882  0.3631  0.1431 -0.3447
 1662TIP3    H1 4992   5.391   2.936   4.889 -0.0386  0.7481  0.4840
 1662TIP3    H2 4993   5.540   2.942   4.919  0.3387 -0.3946 -1.0378
 1663TIP3   OH2 4994   2.976   2.766   3.966 -0.2220  0.1326  0.2037
 1663TIP3    H1 4995   2.923   2.698   3.923  0.7761 -1.2339  1.0437
 1663TIP3    H2 4996   3.001   2.826   3.896 -1.2553 -0.2758 -0.5376
 1664TIP3   OH2 4997   2.456   3.798   2.801 -0.0438  0.1556  0.3695
 1664TIP3    H1 4998   2.512   3.743   2.746  0.1164  0.3917  0.2995
 1664TIP3    H2 4999   2.465   3.886   2.765  0.4836  0.4079  1.0999
 1665TIP3   OH2 5000   5.838   5.649   1.325  0.5869 -0.0016 -0.0500
 1665TIP3    H1 5001   5.876   5.659   1.412  2.1464 -1.4372 -0.5058
 1665TIP3    H2 5002   5.781   5.572   1.334 -0.9327  1.1025  0.1862
 1666TIP3   OH2 5003   4.768   5.506   4.521  0.6072  0.1981 -0.1856
 1666TIP3    H1 5004   4.817   5.551   4.589  1.4292 -0.0545 -0.5963
 1666TIP3    H2 5005   4.767   5.569   4.448  0.2237  0.2441 -0.1423
 1667TIP3   OH2 5006   4.824   3.643   4.194 -0.4851 -0.4461 -0.1798
 1667TIP3    H1 5007   4.748   3.646   4.252 -1.3714  0.7962 -1.3703
 1667TIP3    H2 5008   4.830   3.551   4.168 -0.5718 -0.8668  1.1969
 1668TIP3   OH2 5009   3.254   2.178   4.212  0.1001 -0.4183  0.5009
 1668TIP3    H1 5010   3.191   2.133   4.268 -1.5849 -0.4643 -1.3121
 1668TIP3    H2 5011   3.232   2.271   4.221  0.3609 -0.3612  0.5498
 1669TIP3   OH2 5012   4.452   3.940   4.053  0.6348 -0.4029  0.4139
 1669TIP3    H1 5013   4.473   3.851   4.081  1.9094 -0.1222  0.4503
 1669TIP3    H2 5014   4.397   3.929   3.976 -1.0057 -1.1937  1.6420
 1670TIP3   OH2 5015   4.719   2.979   3.385  0.0779  1.0064  0.0114
 1670TIP3    H1 5016   4.658   2.939   3.322  0.4038 -0.3823  0.5313
 1670TIP3    H2 5017   4.784   3.022   3.330 -0.5092  1.1760 -0.5712
 1671TIP3   OH2 5018   2.064   3.528   3.372 -0.2919  0.1337 -0.0007
 1671TIP3    H1 5019   2.089   3.529   3.464 -0.6373 -1.0627  0.1266
 1671TIP3    H2 5020   1.975   3.491   3.371  0.0588 -0.7568 -0.8627
 1672TIP3   OH2 5021   0.949   5.469   3.893  0.1987 -0.2680 -0.2723
 1672TIP3    H1 5022   0.934   5.419   3.973  0.5639  0.0981  0.0271
 1672TIP3    H2 5023   1.029   5.519   3.910 -0.1578  0.4182 -0.5663
 1673TIP3   OH2 5024   3.668   0.273   0.702  0.7673 -0.3574 -0.2249
 1673TIP3    H1 5025   3.625   0.246   0.783  1.5540 -1.1589 -0.0616
 1673TIP3    H2 5026   3.650   0.367   0.695 -1.6607 -0.7944 -0.5795
 1674TIP3   OH2 5027   3.623   2.140   1.115  0.0874 -0.4998  0.5447
 1674TIP3    H1 5028   3.693   2.076   1.103  1.0642  0.8964 -1.8132
 1674TIP3    H2 5029   3.668   2.223   1.126 -1.1529  0.4268 -0.9433
 1675TIP3   OH2 5030   3.868   2.288   0.164  0.2993 -0.3696 -0.2484
 1675TIP3    H1 5031   3.882   2.202   0.204 -0.7961 -0.4487  0.0170
 1675TIP3    H2 5032   3.950   2.335   0.177  0.1142 -0.5218  1.7548
 1676TIP3   OH2 5033   3.908   1.707   0.487  0.7939 -0.2892 -0.1020
 1676TIP3    H1 5034   3.985   1.650   0.488  0.7849 -0.2998  1.5169
 1676TIP3    H2 5035   3.862   1.687   0.569 -0.0422  0.9324 -0.2548
 1677TIP3   OH2 5036   0.633   0.255   2.001 -0.3580  0.1774 -0.0891
 1677TIP3    H1 5037   0.686   0.279   2.077 -2.6092  3.1874  0.6902
 1677TIP3    H2 5038   0.652   0.323   1.937 -1.4394 -0.1005 -0.7197
 1678TIP3   OH2 5039   3.312   5.111   2.795  0.0802 -0.5048 -0.2269
 1678TIP3    H1 5040   3.276   5.057   2.724  0.4143 -0.7238 -0.2323
 1678TIP3    H2 5041   3.320   5.051   2.869 -0.0306 -0.3362 -0.0794
 1679TIP3   OH2 5042   4.845   5.062   4.536  0.0949 -0.3193 -0.5074
 1679TIP3    H1 5043   4.855   5.122   4.462 -1.3552  0.7842  0.1587
 1679TIP3    H2 5044   4.784   4.995   4.505 -0.9380  0.4424 -0.1551
 1680TIP3   OH2 5045   4.804   4.011   3.390  0.5207 -0.1123 -0.3915
 1680TIP3    H1 5046   4.773   3.922   3.376  0.2114 -0.2091  0.8013
 1680TIP3    H2 5047   4.725   4.064   3.394  0.5887 -0.0555  0.6063
 1681TIP3   OH2 5048   3.811   3.429   4.613 -0.1927  0.3270  0.2515
 1681TIP3    H1 5049   3.860   3.414   4.693  0.9722 -0.0494 -0.5031
 1681TIP3    H2 5050   3.730   3.473   4.641 -0.8845 -1.8174  1.8843
 1682TIP3   OH2 5051   4.801   3.848   3.974 -0.6860  0.8137  0.3692
 1682TIP3    H1 5052   4.780   3.927   4.023  0.8831  1.1841  0.4848
 1682TIP3    H2 5053   4.805   3.778   4.040  0.8504  1.2027  0.7087
 1683TIP3   OH2 5054   2.217   0.899   0.524  0.1842 -0.0249 -0.3098
 1683TIP3    H1 5055   2.246   0.935   0.440  0.7227 -0.1088 -0.1655
 1683TIP3    H2 5056   2.298   0.875   0.569 -0.1609 -1.7431 -0.5271
 1684TIP3   OH2 5057   4.031   1.874   0.074 -0.0991  0.1027  0.3969
 1684TIP3    H1 5058   3.976   1.831   0.139  1.0848  0.2478  1.5391
 1684TIP3    H2 5059   4.100   1.917   0.125  0.3029  1.0622 -0.8933
 1685TIP3   OH2 5060   5.604   0.261   1.234  0.0166 -0.1088 -0.3038
 1685TIP3    H1 5061   5.636   0.261   1.324 -0.5620 -0.6416 -0.0903
 1685TIP3    H2 5062   5.537   0.329   1.232  0.0431 -0.0836 -0.3410
 1686TIP3   OH2 5063   4.488   3.140   1.516 -0.2032  0.3889 -0.2369
 1686TIP3    H1 5064   4.538   3.212   1.478 -0.7541  0.7140 -0.3609
 1686TIP3    H2 5065   4.397   3.161   1.496 -0.3738 -0.3220 -0.2290
 1687TIP3   OH2 5066   1.771   3.317   4.466 -0.7576 -0.0619  0.3320
 1687TIP3    H1 5067   1.742   3.351   4.551  1.3246 -0.6240  1.3419
 1687TIP3    H2 5068   1.864   3.296   4.479 -0.4874 -0.5884 -1.9708
 1688TIP3   OH2 5069   5.879   0.307   3.700  0.0137  0.0304 -0.4819
 1688TIP3    H1 5070   5.941   0.236   3.681  0.0504 -0.1144  0.1571
 1688TIP3    H2 5071   5.935   0.381   3.724 -0.0579 -0.3987  1.1241
 1689TIP3   OH2 5072   3.558   3.836   1.063  0.6670 -0.1283  0.0584
 1689TIP3    H1 5073   3.611   3.834   0.983  1.0352 -0.6836  0.3097
 1689TIP3    H2 5074   3.472   3.866   1.033  0.8543 -0.1484 -0.5173
 1690TIP3   OH2 5075   0.220   5.461   2.037 -0.0204  0.0029  0.3402
 1690TIP3    H1 5076   0.218   5.451   2.132 -0.5215 -1.6028  0.1951
 1690TIP3    H2 5077   0.242   5.373   2.004 -1.0922  0.2163 -1.0579
 1691TIP3   OH2 5078   4.576   3.561   1.106  0.4955  0.6986  0.1940
 1691TIP3    H1 5079   4.664   3.545   1.139  0.7575 -1.2147 -1.2628
 1691TIP3    H2 5080   4.544   3.474   1.081 -1.1562  1.5767 -0.8964
 1692TIP3   OH2 5081   3.215   4.409   4.262  0.1026 -0.0918  0.1330
 1692TIP3    H1 5082   3.230   4.500   4.286  0.3125 -0.2635  0.6565
 1692TIP3    H2 5083   3.160   4.375   4.332 -0.9461 -0.0585 -0.6457
 1693TIP3   OH2 5084   0.654   2.591   1.966 -0.0510 -0.1119 -0.4124
 1693TIP3    H1 5085   0.730   2.601   2.022 -0.6165  1.1865  0.1685
 1693TIP3    H2 5086   0.685   2.539   1.892  1.1442 -0.4020  0.2677
 1694TIP3   OH2 5087   2.857   4.369   0.484  0.2783 -0.2150 -0.0099
 1694TIP3    H1 5088   2.910   4.323   0.549  1.2073 -0.6568 -1.0657
 1694TIP3    H2 5089   2.784   4.309   0.467 -0.6521  0.4178  1.4815
 1695TIP3   OH2 5090   2.825   5.658   0.082  0.2116  0.2401 -0.4484
 1695TIP3    H1 5091   2.821   5.563   0.086  1.4597  0.1636 -0.8413
 1695TIP3    H2 5092   2.841   5.686   0.172 -3.3248  0.3117  0.3207
 1696TIP3   OH2 5093   5.903   2.568   0.087  0.3546 -0.2372  0.2586
 1696TIP3    H1 5094   5.931   2.548  -0.002  1.6622  0.7378  0.4266
 1696TIP3    H2 5095   5.916   2.486   0.136 -3.5674 -1.9276 -1.0531
 1697TIP3   OH2 5096   1.873   4.964   2.739 -0.3844  0.4260 -0.3071
 1697TIP3    H1 5097   1.962   4.975   2.706  0.3003 -1.9797  0.4950
 1697TIP3    H2 5098   1.822   4.934   2.664  0.2927 -1.4012 -0.0696
 1698TIP3   OH2 5099   2.358   2.820   4.991  0.2177 -0.4195 -0.7397
 1698TIP3    H1 5100   2.366   2.860   4.905 -0.6309  0.0821 -0.6049
 1698TIP3    H2 5101   2.441   2.840   5.035 -0.1091  1.1009 -0.7370
 1699TIP3   OH2 5102   2.753   3.794   3.272  0.0523  0.1553  0.2699
 1699TIP3    H1 5103   2.725   3.775   3.182 -0.8717  0.0683  0.5683
 1699TIP3    H2 5104   2.811   3.721   3.295 -0.9979 -0.6873  0.3096
 1700TIP3   OH2 5105   0.816   2.339   3.804 -0.2171  0.3079 -0.4442
 1700TIP3    H1 5106   0.900   2.376   3.776 -0.6282  0.5982 -1.3165
 1700TIP3    H2 5107   0.817   2.348   3.899  0.6539  0.4947 -0.4590
 1701TIP3   OH2 5108   3.351   3.491   5.118 -0.3584 -0.4804 -0.2538
 1701TIP3    H1 5109   3.333   3.583   5.135  1.2527 -0.1181 -0.4136
 1701TIP3    H2 5110   3.276   3.462   5.065  0.2203  1.3467 -2.1995
 1702TIP3   OH2 5111   5.986   4.220   1.902  0.1293 -0.1588  0.2792
 1702TIP3    H1 5112   6.036   4.204   1.982  0.7399 -1.1520 -0.2845
 1702TIP3    H2 5113   6.047   4.203   1.831  0.3424  3.1164 -0.4618
 1703TIP3   OH2 5114   2.254   4.832   0.563 -0.2116 -0.1896  0.5192
 1703TIP3    H1 5115   2.299   4.856   0.643  0.6979  0.8817 -0.2785
 1703TIP3    H2 5116   2.161   4.833   0.586  0.0672 -0.4867  1.6938
 1704TIP3   OH2 5117   4.630   0.320   2.657 -0.9249  0.6366 -0.1679
 1704TIP3    H1 5118   4.574   0.270   2.597 -0.3496  0.3677 -0.4890
 1704TIP3    H2 5119   4.710   0.268   2.664 -0.4429  1.3511 -0.2509
 1705TIP3   OH2 5120   1.333   2.937   3.345 -0.0801  0.3867 -0.2026
 1705TIP3    H1 5121   1.270   2.999   3.380 -0.3665  0.2963 -0.5471
 1705TIP3    H2 5122   1.380   2.986   3.277 -0.3592  0.2087 -0.5278
 1706TIP3   OH2 5123   5.864   4.317   4.246  0.1892  0.0065  0.0355
 1706TIP3    H1 5124   5.930   4.386   4.240  1.7288 -1.3598  0.6694
 1706TIP3    H2 5125   5.896   4.258   4.314 -2.3579 -0.0429  1.3036
 1707TIP3   OH2 5126   4.500   1.249   3.885 -0.1576  0.4457 -0.0782
 1707TIP3    H1 5127   4.413   1.248   3.927 -0.5167 -0.1633 -0.8189
 1707TIP3    H2 5128   4.509   1.163   3.846  0.8881  0.4318  0.1696
 1708TIP3   OH2 5129   2.939   5.646   3.541  0.3292  0.0124  0.2855
 1708TIP3    H1 5130   2.904   5.602   3.463  1.6681 -0.3413 -0.1517
 1708TIP3    H2 5131   3.019   5.689   3.509  0.2274  0.9027  1.2022
 1709TIP3   OH2 5132   5.139   4.377   3.830 -0.4435  0.0582  0.5637
 1709TIP3    H1 5133   5.046   4.387   3.809 -0.1110  1.1694 -0.4612
 1709TIP3    H2 5134   5.184   4.388   3.747  0.5158 -2.9550  0.5798
 1710TIP3   OH2 5135   5.211   4.263   3.267  0.1454  0.8697  0.0950
 1710TIP3    H1 5136   5.220   4.251   3.361  1.0502 -3.3934 -0.3281
 1710TIP3    H2 5137   5.140   4.204   3.242  1.6351 -0.0971 -2.1372
 1711TIP3   OH2 5138   3.854   1.371   0.149  0.0124  0.6208  0.0654
 1711TIP3    H1 5139   3.889   1.411   0.070  0.0817  0.1514 -0.1450
 1711TIP3    H2 5140   3.759   1.383   0.142 -0.1130 -0.6684 -0.7995
 1712TIP3   OH2 5141   0.018   4.149   4.362  0.3600  0.0388 -0.0709
 1712TIP3    H1 5142  -0.053   4.150   4.298  0.1344 -0.0466  0.1731
 1712TIP3    H2 5143   0.080   4.214   4.330 -0.3612  0.9319  0.3012
 1713TIP3   OH2 5144   5.704   3.975   1.972  0.0113  0.0789 -0.4449
 1713TIP3    H1 5145   5.730   4.024   1.894 -0.4309  0.5103 -0.3292
 1713TIP3    H2 5146   5.783   3.970   2.025  0.8008 -1.7437 -1.6898
 1714TIP3   OH2 5147   6.241   3.606   0.524  0.1469  0.2344 -0.2988
 1714TIP3    H1 5148   6.268   3.656   0.601 -2.5036  0.1294  0.8184
 1714TIP3    H2 5149   6.222   3.518   0.558 -1.0287  0.1760 -1.0394
 1715TIP3   OH2 5150   6.182   4.378   4.724 -0.2431 -0.1688 -0.1150
 1715TIP3    H1 5151   6.255   4.430   4.692 -1.3976  0.5340 -1.6847
 1715TIP3    H2 5152   6.201   4.289   4.695  0.1640 -0.0577 -0.1857
 1716TIP3   OH2 5153   1.209   2.567   0.322 -0.2424 -0.3128  0.2437
 1716TIP3    H1 5154   1.133   2.624   0.333 -0.7313 -1.0814  0.8937
 1716TIP3    H2 5155   1.246   2.593   0.238  0.2852  1.8432  1.0787
 1717TIP3   OH2 5156   1.379   5.272   2.915 -0.0340  0.4049  0.6041
 1717TIP3    H1 5157   1.293   5.313   2.921 -0.2345 -0.1031  1.3373
 1717TIP3    H2 5158   1.382   5.235   2.826 -0.3231  0.9386  0.3672
 1718TIP3   OH2 5159   2.396   1.535   1.059 -0.6803 -0.2385  0.2186
 1718TIP3    H1 5160   2.480   1.580   1.046 -0.1107 -0.7337  1.8398
 1718TIP3    H2 5161   2.343   1.560   0.984  0.8952  0.1596 -0.8115
 1719TIP3   OH2 5162   5.125   4.771   0.761 -0.6167 -0.2615  0.1731
 1719TIP3    H1 5163   5.156   4.740   0.846 -2.2786 -0.8255  0.6098
 1719TIP3    H2 5164   5.052   4.713   0.740 -1.0691  0.7030 -1.0269
 1720TIP3   OH2 5165   1.271   0.687   1.468  0.3694  0.0604 -0.6213
 1720TIP3    H1 5166   1.239   0.718   1.553  0.7360 -0.8408 -0.1469
 1720TIP3    H2 5167   1.360   0.722   1.462  0.4112 -0.0357 -0.5539
 1721TIP3   OH2 5168   1.256   2.210   4.921 -0.9300 -0.0150  0.3665
 1721TIP3    H1 5169   1.307   2.233   4.843 -1.7989  1.7691  0.2853
 1721TIP3    H2 5170   1.322   2.198   4.990 -0.3158  1.2680  0.0244
 1722TIP3   OH2 5171   5.067   4.525   4.397  0.1524  0.0432 -0.3694
 1722TIP3    H1 5172   5.010   4.490   4.328  0.3039 -1.4338  0.2255
 1722TIP3    H2 5173   5.140   4.566   4.349  0.3974 -1.2016 -1.0926
 1723TIP3   OH2 5174   2.692   3.102   1.279 -0.5718  0.5399  0.3563
 1723TIP3    H1 5175   2.712   3.043   1.207  1.2252  1.5885 -0.0903
 1723TIP3    H2 5176   2.677   3.045   1.354  1.3236 -0.5156 -0.0053
 1724TIP3   OH2 5177   4.231   5.562   0.070 -0.3857  0.1110 -0.4714
 1724TIP3    H1 5178   4.316   5.559   0.115 -1.5442  0.7626  1.9117
 1724TIP3    H2 5179   4.226   5.651   0.035  0.2649 -0.2089 -1.4217
 1725TIP3   OH2 5180   1.492   2.846   4.738  0.2487 -0.4246 -0.4932
 1725TIP3    H1 5181   1.511   2.774   4.678  2.6837  1.3374 -2.0615
 1725TIP3    H2 5182   1.411   2.884   4.705 -0.0867 -1.3228 -0.7431
 1726TIP3   OH2 5183   1.623   3.012   0.960  0.2814  0.0331  0.6627
 1726TIP3    H1 5184   1.642   2.965   0.879  3.0976  2.5434 -0.3127
 1726TIP3    H2 5185   1.607   3.102   0.933 -1.6054  0.4264  2.7213
 1727TIP3   OH2 5186   3.285   1.057   3.425  0.1013 -0.3758 -0.8929
 1727TIP3    H1 5187   3.349   1.103   3.480  0.0620 -1.4376  0.0712
 1727TIP3    H2 5188   3.202   1.102   3.441  0.4521  0.5972 -1.6572
 1728TIP3   OH2 5189   4.767   3.927   2.408 -0.6974 -0.3634  0.0220
 1728TIP3    H1 5190   4.674   3.944   2.393 -0.8680  0.7924  2.0228
 1728TIP3    H2 5191   4.795   3.877   2.331 -3.1793 -1.5924 -0.1835
 1729TIP3   OH2 5192   5.357   0.957   2.816  0.4860  0.3497 -0.3328
 1729TIP3    H1 5193   5.335   0.990   2.903 -0.8076  1.2015 -0.9532
 1729TIP3    H2 5194   5.356   1.035   2.760  1.0394 -0.2235 -1.1545
 1730TIP3   OH2 5195   4.293   1.479   0.205  0.4017 -0.3165 -0.2337
 1730TIP3    H1 5196   4.288   1.574   0.217  0.1914 -0.3042 -0.4129
 1730TIP3    H2 5197   4.311   1.445   0.292  1.8979 -0.0145 -0.3862
 1731TIP3   OH2 5198   5.086   2.662   2.532 -0.5856 -0.0582 -0.1746
 1731TIP3    H1 5199   5.144   2.603   2.581 -0.1865  0.1872 -0.3440
 1731TIP3    H2 5200   5.099   2.636   2.440  1.7019  2.0463 -0.5720
 1732TIP3   OH2 5201   1.491   2.335   1.399 -0.4097  0.3555  0.1058
 1732TIP3    H1 5202   1.469   2.395   1.328  2.0070 -1.0254 -1.9798
 1732TIP3    H2 5203   1.507   2.391   1.474  0.2707  2.2243 -1.3598
 1733TIP3   OH2 5204   1.822   2.395   2.399  0.6450 -0.5477 -0.2400
 1733TIP3    H1 5205   1.819   2.474   2.345 -0.3235 -0.2018  0.2847
 1733TIP3    H2 5206   1.913   2.367   2.397  0.9044  0.3126 -0.8290
 1734TIP3   OH2 5207   3.471   0.747   4.107 -0.0740  0.3255 -0.5589
 1734TIP3    H1 5208   3.512   0.730   4.192  0.4087  1.4753 -0.5449
 1734TIP3    H2 5209   3.394   0.691   4.106  1.8088 -2.4628 -0.8706
 1735TIP3   OH2 5210   5.188   1.604   0.295  0.5562  0.0771  0.1218
 1735TIP3    H1 5211   5.162   1.665   0.227 -2.3981  1.7394  2.4770
 1735TIP3    H2 5212   5.216   1.525   0.248 -1.4345  1.0584 -2.9887
 1736TIP3   OH2 5213   4.583   2.327   0.855 -0.2150 -0.0696  0.2959
 1736TIP3    H1 5214   4.647   2.258   0.876 -0.0960 -0.1850 -0.4296
 1736TIP3    H2 5215   4.622   2.407   0.891  0.0684 -0.2328  0.3570
 1737TIP3   OH2 5216   4.757   0.330   0.596  0.3158 -0.1928  0.3444
 1737TIP3    H1 5217   4.795   0.267   0.534 -1.0652 -3.0920  2.1986
 1737TIP3    H2 5218   4.820   0.335   0.667  0.8252  1.2879 -0.1866
 1738TIP3   OH2 5219   6.329   0.818   4.554  0.2048 -0.5014  0.3590
 1738TIP3    H1 5220   6.237   0.841   4.565  0.6086  1.3170  0.2250
 1738TIP3    H2 5221   6.335   0.728   4.587 -1.4153 -0.3114  1.2954
 1739TIP3   OH2 5222   6.309   3.091   1.414 -0.2149 -0.2324  0.1018
 1739TIP3    H1 5223   6.359   3.013   1.439 -0.7774  0.0141  2.2422
 1739TIP3    H2 5224   6.219   3.060   1.406 -0.1329 -0.1793 -1.1369
 1740TIP3   OH2 5225   2.324   4.067   2.958 -0.1405 -0.0040  0.1893
 1740TIP3    H1 5226   2.256   4.121   2.918 -0.5995 -0.6011  0.1584
 1740TIP3    H2 5227   2.326   4.093   3.050  0.9452  1.4050 -0.1859
 1741TIP3   OH2 5228   3.370   3.288   3.948 -0.4372 -0.1030  0.0754
 1741TIP3    H1 5229   3.354   3.193   3.947  0.3875 -0.2789 -2.1216
 1741TIP3    H2 5230   3.304   3.324   3.890  0.8787  0.2966 -1.2465
 1742TIP3   OH2 5231   3.760   5.657   2.167  0.1176  0.0925 -0.1293
 1742TIP3    H1 5232   3.763   5.645   2.073  1.4482  1.2744 -0.2720
 1742TIP3    H2 5233   3.746   5.751   2.178  0.1074 -0.0131  0.8504
 1743TIP3   OH2 5234   0.012   0.280   1.335 -0.4829  0.2939  0.1944
 1743TIP3    H1 5235   0.058   0.270   1.252 -1.4393 -1.8179 -0.1285
 1743TIP3    H2 5236  -0.018   0.192   1.357  0.2827  0.6402  3.1168
 1744TIP3   OH2 5237   1.868   3.313   0.578  0.0252  0.0114  0.1754
 1744TIP3    H1 5238   1.836   3.276   0.496 -0.7450  2.5367 -0.7401
 1744TIP3    H2 5239   1.947   3.361   0.554  0.9945 -0.9206  1.3274
 1745TIP3   OH2 5240   2.885   3.223   1.027  0.2422  0.7116 -0.0915
 1745TIP3    H1 5241   2.949   3.166   1.070 -0.0915  0.0051 -0.5102
 1745TIP3    H2 5242   2.920   3.311   1.038  1.5686  0.2971 -0.7506
 1746TIP3   OH2 5243   1.771   2.337   4.465 -0.2713  0.4546 -0.4204
 1746TIP3    H1 5244   1.682   2.320   4.436 -0.2139 -1.3439  0.3417
 1746TIP3    H2 5245   1.788   2.428   4.439 -1.4760  0.0989 -2.6694
 1747TIP3   OH2 5246   3.101   0.074   2.891 -0.2103  0.4998  0.3083
 1747TIP3    H1 5247   3.167   0.138   2.861 -0.4444  0.7739  0.3712
 1747TIP3    H2 5248   3.098   0.009   2.821 -1.3638  1.5800 -0.6890
 1748TIP3   OH2 5249   2.430   4.517   4.522  0.1208  0.0097 -0.5279
 1748TIP3    H1 5250   2.394   4.523   4.434 -0.2305  1.9093 -0.2923
 1748TIP3    H2 5251   2.452   4.424   4.533 -2.7294 -0.8791 -1.4506
 1749TIP3   OH2 5252   3.512   3.660   4.521  0.3998 -0.2154 -0.2725
 1749TIP3    H1 5253   3.559   3.735   4.558 -0.1792  0.3657 -0.6969
 1749TIP3    H2 5254   3.499   3.601   4.595  0.4156  0.3313  0.1718
 1750TIP3   OH2 5255   4.149   4.088   4.297  0.4821  0.1375 -0.3797
 1750TIP3    H1 5256   4.238   4.115   4.318  0.9296 -0.9747 -0.8264
 1750TIP3    H2 5257   4.099   4.105   4.377  0.8524  1.7125 -0.4417
 1751TIP3   OH2 5258   5.351   5.411   1.913  0.1195 -0.2184 -0.2989
 1751TIP3    H1 5259   5.378   5.390   2.002 -0.5646  0.1621  0.0113
 1751TIP3    H2 5260   5.339   5.326   1.871 -0.5787 -0.4304  0.2985
 1752TIP3   OH2 5261   5.842   1.198   4.912  0.4608  0.4495 -0.5011
 1752TIP3    H1 5262   5.828   1.269   4.973 -0.2516 -0.5135  0.4950
 1752TIP3    H2 5263   5.873   1.125   4.966 -1.3455 -0.7969 -1.0446
 1753TIP3   OH2 5264   4.904   4.407   4.703  0.2855 -0.2982  0.1292
 1753TIP3    H1 5265   4.986   4.382   4.660  0.3224  0.5070 -0.2800
 1753TIP3    H2 5266   4.911   4.370   4.791  1.6546  0.8557  0.5221
 1754TIP3   OH2 5267   3.445   2.413   4.436 -0.0120 -0.0479  0.6176
 1754TIP3    H1 5268   3.378   2.407   4.368 -0.3960 -0.2648  1.0109
 1754TIP3    H2 5269   3.419   2.347   4.501  0.6526 -0.2294  0.7094
 1755TIP3   OH2 5270   1.214   1.092   1.618  0.2626  0.1818 -0.2702
 1755TIP3    H1 5271   1.306   1.073   1.637  0.3071  0.5209 -0.1439
 1755TIP3    H2 5272   1.184   1.144   1.692 -0.3006 -0.7169  0.1591
 1756TIP3   OH2 5273   3.693   3.227   0.095 -0.2192  0.3200  0.6160
 1756TIP3    H1 5274   3.727   3.314   0.074 -0.2132  0.8565  2.6793
 1756TIP3    H2 5275   3.683   3.184   0.010 -0.3059  2.3606 -0.4529
 1757TIP3   OH2 5276   0.047   2.524   3.371  0.6511  0.2939  0.2262
 1757TIP3    H1 5277   0.136   2.550   3.393  0.5822  3.2024 -2.2516
 1757TIP3    H2 5278   0.058   2.444   3.319  1.7410  0.1186  0.7098
 1758TIP3   OH2 5279   4.479   5.739   2.245  0.0244  0.6934 -0.4934
 1758TIP3    H1 5280   4.527   5.725   2.327 -0.7863  0.8479  0.0142
 1758TIP3    H2 5281   4.468   5.652   2.208  1.1950  0.6992 -0.9192
 1759TIP3   OH2 5282   4.032   0.249   2.884  0.0858  0.1580  0.1338
 1759TIP3    H1 5283   3.956   0.273   2.832 -1.1375 -0.7011  1.4678
 1759TIP3    H2 5284   4.104   0.300   2.846 -0.9150  0.1935 -1.8182
 1760TIP3   OH2 5285   4.231   4.940   1.210 -0.0993  0.0470  0.2824
 1760TIP3    H1 5286   4.221   5.030   1.180 -1.8404  0.0559  0.7610
 1760TIP3    H2 5287   4.281   4.897   1.141 -1.9378  0.6336 -1.5104
 1761TIP3   OH2 5288   0.591   0.702   3.203 -0.3375 -0.0363 -0.4822
 1761TIP3    H1 5289   0.624   0.751   3.128 -0.4292  0.7329 -0.0362
 1761TIP3    H2 5290   0.600   0.610   3.178  1.9389  0.1222 -0.4809
 1762TIP3   OH2 5291   5.952   0.545   0.748 -0.0373 -0.3110  0.1079
 1762TIP3    H1 5292   5.967   0.481   0.818  1.1143 -0.6029 -0.3857
 1762TIP3    H2 5293   5.953   0.630   0.793  0.8294 -0.4870  0.4376
 1763TIP3   OH2 5294   3.439   0.702   2.025 -0.2537  0.4991  0.3972
 1763TIP3    H1 5295   3.481   0.788   2.022 -1.0779  0.8958 -0.1689
 1763TIP3    H2 5296   3.463   0.667   2.111  0.2768  1.1958  0.5477
 1764TIP3   OH2 5297   5.713   2.260   4.946 -0.2951 -0.0391  0.1027
 1764TIP3    H1 5298   5.748   2.339   4.988  0.1176  0.1867 -0.6371
 1764TIP3    H2 5299   5.775   2.241   4.876 -1.1349 -0.2178 -0.6093
 1765TIP3   OH2 5300   3.885   5.603   0.148  0.5086 -0.5503  0.5058
 1765TIP3    H1 5301   3.841   5.525   0.117  2.0099 -1.1443 -0.2610
 1765TIP3    H2 5302   3.918   5.645   0.069  0.7257  0.2322  0.9957
 1766TIP3   OH2 5303   3.964   1.642   1.170 -0.0694  0.2576 -0.3315
 1766TIP3    H1 5304   4.001   1.726   1.197  0.5141  0.2305 -1.0220
 1766TIP3    H2 5305   4.037   1.580   1.176 -0.1061  0.1070 -1.2306
 1767TIP3   OH2 5306   4.834   3.002   1.710 -0.4653 -0.5171 -0.0339
 1767TIP3    H1 5307   4.907   2.957   1.668 -0.8088  0.1374 -1.3798
 1767TIP3    H2 5308   4.874   3.051   1.782  0.3777 -0.4077 -0.5666
 1768TIP3   OH2 5309   1.806   2.355   2.873 -0.1635 -0.3707 -0.0327
 1768TIP3    H1 5310   1.754   2.276   2.883  0.6149 -1.2334 -2.1170
 1768TIP3    H2 5311   1.743   2.422   2.845 -0.7633 -0.3296  1.3699
 1769TIP3   OH2 5312   0.493   3.952   3.586 -0.4752 -0.4754  0.1211
 1769TIP3    H1 5313   0.534   3.992   3.663 -0.6958  0.8689 -0.4348
 1769TIP3    H2 5314   0.496   3.858   3.604  2.0519 -0.3814  0.4742
 1770TIP3   OH2 5315   2.573   5.183   2.778  0.1516  0.0779  0.5317
 1770TIP3    H1 5316   2.549   5.263   2.825  0.5197  0.1747  0.5578
 1770TIP3    H2 5317   2.556   5.113   2.840  2.8456  0.3606  1.7037
 1771TIP3   OH2 5318   0.683   3.237   4.818  0.5126  0.3668  0.4711
 1771TIP3    H1 5319   0.700   3.150   4.782 -2.6794  0.0452 -0.5426
 1771TIP3    H2 5320   0.698   3.297   4.745  1.8499  0.6200  0.9270
 1772TIP3   OH2 5321   3.162   5.649   2.281 -0.1736 -0.6171  0.2496
 1772TIP3    H1 5322   3.156   5.707   2.205 -2.6768  0.8900  1.4720
 1772TIP3    H2 5323   3.127   5.565   2.250 -1.5299  0.0871 -0.1730
 1773TIP3   OH2 5324   5.453   5.219   5.166 -1.0610  0.1768 -0.1201
 1773TIP3    H1 5325   5.544   5.231   5.190 -0.9424  0.8361 -0.8824
 1773TIP3    H2 5326   5.437   5.283   5.097 -2.1913  0.3031  0.2354
 1774TIP3   OH2 5327   0.297   3.722   2.190  0.0309 -0.3425  0.1752
 1774TIP3    H1 5328   0.270   3.781   2.261 -1.0068 -0.0347 -0.4442
 1774TIP3    H2 5329   0.361   3.664   2.230  0.1566  0.4192  1.1232
 1775TIP3   OH2 5330   3.651   4.003   3.513 -0.0567  0.0260  0.1183
 1775TIP3    H1 5331   3.571   3.953   3.498 -1.4365  1.2870  2.6919
 1775TIP3    H2 5332   3.714   3.939   3.546 -0.1755 -0.8452 -1.2546
 1776TIP3   OH2 5333   3.776   4.248   3.085 -0.3501  0.2815  0.0407
 1776TIP3    H1 5334   3.781   4.244   3.181  0.6745  1.1201  0.0340
 1776TIP3    H2 5335   3.842   4.186   3.055 -0.3950  0.3105 -0.1194
 1777TIP3   OH2 5336   2.295   2.566   0.886 -0.0517 -0.0699  0.1121
 1777TIP3    H1 5337   2.205   2.548   0.859 -0.1981 -0.0393  0.5781
 1777TIP3    H2 5338   2.297   2.660   0.903  0.0163 -0.1037  0.2945
 1778TIP3   OH2 5339   0.370   3.391   3.141  0.0019  0.0824 -0.2065
 1778TIP3    H1 5340   0.464   3.389   3.159  0.3631  0.0101 -1.9333
 1778TIP3    H2 5341   0.343   3.299   3.143 -0.0969  0.1222  0.5401
 1779TIP3   OH2 5342   1.883   3.367   4.094 -0.1658 -0.1964  0.1425
 1779TIP3    H1 5343   1.910   3.305   4.027  0.0872  1.1550 -1.0700
 1779TIP3    H2 5344   1.939   3.347   4.170 -0.4164 -1.7033 -0.0402
 1780TIP3   OH2 5345   2.935   1.731   4.706  0.4548  0.2372  0.3725
 1780TIP3    H1 5346   2.851   1.705   4.744  0.9866 -0.8193  0.8611
 1780TIP3    H2 5347   2.983   1.769   4.779  0.7860 -0.1169  0.3423
 1781TIP3   OH2 5348   3.435   5.280   2.995 -0.0713  0.1398 -0.0017
 1781TIP3    H1 5349   3.415   5.226   2.919 -0.6302 -0.4322  0.5377
 1781TIP3    H2 5350   3.398   5.366   2.973 -2.3205 -0.6270  0.5474
 1782TIP3   OH2 5351   2.324   2.279   3.844  0.5432 -0.4105 -0.0926
 1782TIP3    H1 5352   2.235   2.262   3.812  0.8137 -2.0051 -0.0825
 1782TIP3    H2 5353   2.313   2.296   3.938  0.0946  1.0709 -0.3890
 1783TIP3   OH2 5354   2.559   0.766   3.792  0.2335  0.1930  0.5995
 1783TIP3    H1 5355   2.643   0.812   3.787  1.1670 -1.2985  1.5959
 1783TIP3    H2 5356   2.581   0.673   3.782 -0.8340 -0.5516  3.7057
 1784TIP3   OH2 5357   5.188   4.573   5.004  0.3384  0.2357  0.0226
 1784TIP3    H1 5358   5.143   4.584   5.088 -0.5960  0.8020 -0.5346
 1784TIP3    H2 5359   5.171   4.654   4.957  1.2145  0.0967 -0.5624
 1785TIP3   OH2 5360   2.553   5.764  -0.009 -0.2067  0.2371  0.4850
 1785TIP3    H1 5361   2.496   5.812   0.051  1.2763 -0.8391  2.9341
 1785TIP3    H2 5362   2.628   5.738   0.045  0.1854 -2.7787 -1.2684
 1786TIP3   OH2 5363   4.020   1.383   1.990  0.2460 -0.0840 -0.1819
 1786TIP3    H1 5364   4.102   1.341   1.965 -0.1043 -1.3727  0.7215
 1786TIP3    H2 5365   3.954   1.341   1.935  0.2279  1.4028 -1.3707
 1787TIP3   OH2 5366   1.823   0.154   3.839  0.1101  0.6320 -0.0051
 1787TIP3    H1 5367   1.752   0.106   3.796  0.6734 -0.0462 -0.1842
 1787TIP3    H2 5368   1.894   0.091   3.847  0.7191  1.3192  0.1263
 1788TIP3   OH2 5369   3.327   3.087   2.031 -0.2095  0.5716 -0.0121
 1788TIP3    H1 5370   3.371   3.009   1.996  1.2486  1.1316  0.4755
 1788TIP3    H2 5371   3.275   3.120   1.958  1.1004  0.5277 -0.9985
 1789TIP3   OH2 5372   2.298   5.121   0.797 -0.5386 -0.3084  0.3419
 1789TIP3    H1 5373   2.320   5.129   0.705  0.9392  1.5050  0.7949
 1789TIP3    H2 5374   2.292   5.026   0.812 -1.2830 -0.6267 -1.6782
 1790TIP3   OH2 5375   3.171   4.264   1.745  0.1771 -0.4174 -0.1922
 1790TIP3    H1 5376   3.228   4.232   1.675 -0.0725 -1.3791  0.0196
 1790TIP3    H2 5377   3.085   4.228   1.724 -0.2344  0.5418 -0.1988
 1791TIP3   OH2 5378   4.357   0.862   1.568 -0.1954 -0.2193  0.0800
 1791TIP3    H1 5379   4.269   0.891   1.546 -1.0114 -3.6089 -1.8498
 1791TIP3    H2 5380   4.346   0.770   1.592  2.7010 -0.4320  0.9454
 1792TIP3   OH2 5381   6.058   2.880   2.367  0.0753 -0.0856  0.4827
 1792TIP3    H1 5382   6.051   2.787   2.345  0.4803 -0.6597  2.5927
 1792TIP3    H2 5383   6.087   2.882   2.458  0.5747  2.1294  0.3433
 1793TIP3   OH2 5384   1.882   1.791   2.454  0.3107 -0.5278 -0.0850
 1793TIP3    H1 5385   1.797   1.784   2.497  0.6481  1.3023  0.9840
 1793TIP3    H2 5386   1.861   1.809   2.362 -0.4328 -1.2566 -0.0685
 1794TIP3   OH2 5387   6.289   0.799   5.179  0.4785  0.0385  0.1719
 1794TIP3    H1 5388   6.265   0.734   5.112  1.6237  0.5054 -0.7200
 1794TIP3    H2 5389   6.366   0.843   5.144 -0.4712  2.1653  0.5728
 1795TIP3   OH2 5390   4.276   5.831   3.630 -0.0891  0.4175  0.1514
 1795TIP3    H1 5391   4.260   5.920   3.662  1.4777  0.4680  0.9179
 1795TIP3    H2 5392   4.364   5.810   3.662 -0.8276 -1.8177  0.9347
 1796TIP3   OH2 5393   1.320   5.914   2.842  0.4876 -0.5120 -0.7123
 1796TIP3    H1 5394   1.403   5.948   2.878  1.1093 -2.2722 -0.3668
 1796TIP3    H2 5395   1.257   5.924   2.914  0.6410 -0.0598 -0.6358
 1797TIP3   OH2 5396   4.608   0.318   0.202 -0.2329  0.4560 -0.4206
 1797TIP3    H1 5397   4.556   0.268   0.138  1.1764  0.0625 -1.2985
 1797TIP3    H2 5398   4.655   0.251   0.251 -1.0264  0.7787  0.8318
 1798TIP3   OH2 5399   4.498   5.790   3.807  0.3027 -0.0018 -0.6175
 1798TIP3    H1 5400   4.477   5.847   3.880 -1.0243  2.0046 -2.4434
 1798TIP3    H2 5401   4.592   5.798   3.795  0.0574  2.6770 -1.4013
 1799TIP3   OH2 5402   1.492   2.149   2.781 -0.2864 -0.1898  0.0837
 1799TIP3    H1 5403   1.410   2.106   2.802  0.4044 -1.8121 -0.3575
 1799TIP3    H2 5404   1.492   2.156   2.686  1.5117 -3.4432 -0.3058
 1800TIP3   OH2 5405   2.495   1.448   1.798 -0.2437  0.0798  0.0482
 1800TIP3    H1 5406   2.541   1.492   1.870 -1.4256  1.2355  0.1274
 1800TIP3    H2 5407   2.530   1.359   1.798  0.8019  0.4671  1.1367
 1801TIP3   OH2 5408   6.083   5.828   4.679 -0.1684 -0.3541 -0.4511
 1801TIP3    H1 5409   6.028   5.750   4.666 -0.8333  0.1038 -0.4510
 1801TIP3    H2 5410   6.110   5.854   4.591  3.0607 -2.6350 -0.3182
 1802TIP3   OH2 5411   4.746   5.292   4.111  1.0834  0.5388  0.7882
 1802TIP3    H1 5412   4.767   5.228   4.044  0.7400  0.1374  1.0605
 1802TIP3    H2 5413   4.730   5.373   4.063 -1.6678 -0.2941  0.1023
 1803TIP3   OH2 5414   3.755   5.555   3.747 -0.0667 -0.1183  0.0581
 1803TIP3    H1 5415   3.846   5.543   3.773 -0.0355 -1.4028 -0.5408
 1803TIP3    H2 5416   3.722   5.624   3.805  1.1123 -0.0457  0.6787
 1804TIP3   OH2 5417   1.526   1.005   4.924 -0.2825  0.2610  0.2002
 1804TIP3    H1 5418   1.557   0.982   4.837  0.2343  1.5326  0.0356
 1804TIP3    H2 5419   1.597   0.979   4.983 -0.7285 -0.8189  0.2944
 1805TIP3   OH2 5420   3.961   1.465   2.667 -0.0949  0.2232  0.3465
 1805TIP3    H1 5421   3.914   1.548   2.663  0.0575  0.3604  1.2152
 1805TIP3    H2 5422   3.931   1.417   2.590 -2.9770 -0.3771  1.6904
 1806TIP3   OH2 5423   2.781   0.010   2.568 -0.6151  0.1568 -0.2085
 1806TIP3    H1 5424   2.833   0.083   2.602  2.9823 -2.2284 -0.0421
 1806TIP3    H2 5425   2.733  -0.023   2.643  0.8586 -0.0061  0.7117
 1807TIP3   OH2 5426   2.575   3.965   3.420  0.0964  0.1960  0.2406
 1807TIP3    H1 5427   2.622   3.904   3.363  0.4578  0.2208  0.5126
 1807TIP3    H2 5428   2.641   4.028   3.447 -0.1371  0.3386  0.4759
 1808TIP3   OH2 5429   0.244   4.680   3.406  0.0189  0.3443 -0.2595
 1808TIP3    H1 5430   0.245   4.739   3.481  1.2360 -1.5119  1.2676
 1808TIP3    H2 5431   0.333   4.646   3.400 -0.5598 -1.1258 -1.2462
 1809TIP3   OH2 5432   0.755   2.449   2.893 -0.2013  0.8717 -0.3360
 1809TIP3    H1 5433   0.800   2.531   2.913 -0.6731  0.8734  0.8028
 1809TIP3    H2 5434   0.755   2.401   2.976 -1.4036  0.4534 -0.5582
 1810TIP3   OH2 5435   1.431   4.122   3.633 -0.6278 -0.5877  0.1105
 1810TIP3    H1 5436   1.425   4.050   3.695  0.0603 -1.0808 -0.3689
 1810TIP3    H2 5437   1.495   4.181   3.672  1.3664 -1.8766 -1.0143
 1811TIP3   OH2 5438   1.314   5.845   1.810 -0.2424 -0.0450 -0.1975
 1811TIP3    H1 5439   1.311   5.940   1.818  0.8796  0.0912 -1.1066
 1811TIP3    H2 5440   1.223   5.819   1.794 -0.8057  0.6992  1.5116
 1812TIP3   OH2 5441   1.855   0.861   1.546  0.4324 -0.5423  0.7505
 1812TIP3    H1 5442   1.820   0.773   1.558  2.2791 -1.6239 -1.2113
 1812TIP3    H2 5443   1.908   0.856   1.467 -0.7262  2.7730 -0.4389
 1813TIP3   OH2 5444   1.299   0.256   0.064 -0.5311 -0.7487 -0.1436
 1813TIP3    H1 5445   1.352   0.260   0.144  1.0636 -1.3836 -1.1178
 1813TIP3    H2 5446   1.295   0.347   0.034 -0.0779 -0.6785 -0.0006
 1814TIP3   OH2 5447   5.558   5.439   1.026 -0.1777  0.5161  0.4429
 1814TIP3    H1 5448   5.568   5.529   0.995  0.2155  0.5157  0.5576
 1814TIP3    H2 5449   5.647   5.413   1.052 -0.3912  0.2998  0.9624
 1815TIP3   OH2 5450   4.982   5.682   2.842 -0.4227 -0.3396  0.3467
 1815TIP3    H1 5451   5.014   5.770   2.827  0.2998 -1.1106 -3.8144
 1815TIP3    H2 5452   4.894   5.682   2.803 -0.7451 -1.2461  1.0452
 1816TIP3   OH2 5453   4.246   1.672   1.171  0.3302 -0.1631  0.5438
 1816TIP3    H1 5454   4.234   1.734   1.100 -0.0994 -0.2081  0.5791
 1816TIP3    H2 5455   4.284   1.594   1.129  0.4735 -0.0356  0.4352
 1817TIP3   OH2 5456   5.118   4.807   3.912  0.0479  0.0685  0.3790
 1817TIP3    H1 5457   5.192   4.864   3.891 -0.4284  1.3440  1.9238
 1817TIP3    H2 5458   5.157   4.728   3.949  0.6718  0.0710 -0.2651
 1818TIP3   OH2 5459   5.533   4.125   4.199 -0.2672  0.6059  0.1752
 1818TIP3    H1 5460   5.504   4.215   4.210  1.7138  1.0607  2.3990
 1818TIP3    H2 5461   5.627   4.127   4.217 -0.1757 -1.9119  0.4073
 1819TIP3   OH2 5462   1.767   0.003   0.494 -0.5473 -0.1509  0.1319
 1819TIP3    H1 5463   1.777   0.072   0.428 -2.1376 -0.8249 -0.8811
 1819TIP3    H2 5464   1.734   0.049   0.571  2.9703  0.9374  1.1819
 1820TIP3   OH2 5465   4.136   0.160   4.612  0.2793  0.2693  0.0948
 1820TIP3    H1 5466   4.192   0.090   4.578  0.6239  0.7641 -0.3746
 1820TIP3    H2 5467   4.069   0.172   4.545 -1.7995 -1.8360  1.5953
 1821TIP3   OH2 5468   5.478   3.962   3.265  0.3807 -0.2531  0.1698
 1821TIP3    H1 5469   5.563   3.994   3.294  0.5958 -0.4188 -0.2625
 1821TIP3    H2 5470   5.461   3.886   3.321 -0.1641  0.6419  1.2386
 1822TIP3   OH2 5471   2.932   3.268   1.534  0.2668  0.4043 -0.3239
 1822TIP3    H1 5472   2.948   3.286   1.627  0.6717  0.9206 -0.4892
 1822TIP3    H2 5473   2.885   3.185   1.534 -0.8230  0.9889  0.4162
 1823TIP3   OH2 5474   5.642   2.321   2.244  0.5743 -0.1154  0.4348
 1823TIP3    H1 5475   5.724   2.297   2.201  0.9417 -2.4927  2.1757
 1823TIP3    H2 5476   5.574   2.279   2.192  0.9156 -1.9539  1.3763
 1824TIP3   OH2 5477   5.787   5.203   3.930 -0.3809  0.1749 -0.4196
 1824TIP3    H1 5478   5.705   5.237   3.892  0.5085 -0.1903 -2.8682
 1824TIP3    H2 5479   5.764   5.114   3.959 -0.9168  0.1405 -0.9171
 1825TIP3   OH2 5480   5.087   4.249   0.700  0.1186  0.4457  0.3297
 1825TIP3    H1 5481   5.077   4.314   0.631 -0.8656 -1.1614 -1.1399
 1825TIP3    H2 5482   5.118   4.298   0.776  4.5915  1.8711 -2.0663
 1826TIP3   OH2 5483   2.847   4.110   2.502 -0.2032 -0.6608 -0.1576
 1826TIP3    H1 5484   2.819   4.196   2.469  1.6246 -0.5779 -1.6952
 1826TIP3    H2 5485   2.768   4.071   2.538 -1.2904  1.2755 -0.3296
 1827TIP3   OH2 5486   2.056   4.957   3.928 -0.1708 -0.1239 -0.7539
 1827TIP3    H1 5487   1.997   4.890   3.963 -0.0673 -0.0266 -0.3930
 1827TIP3    H2 5488   2.002   5.006   3.865 -1.6092  2.2579  2.0996
 1828TIP3   OH2 5489   3.396   0.942   0.887  0.1181  0.4448 -0.3200
 1828TIP3    H1 5490   3.424   0.865   0.936  0.8115 -0.4405 -1.9863
 1828TIP3    H2 5491   3.452   1.013   0.919  3.0030 -0.8371 -2.0780
 1829TIP3   OH2 5492   3.304   3.925   0.343 -0.7150 -0.0510 -0.8002
 1829TIP3    H1 5493   3.368   3.860   0.314 -2.4901 -2.8057  0.9445
 1829TIP3    H2 5494   3.240   3.930   0.272 -0.8655 -0.6477 -0.7073
 1830TIP3   OH2 5495   1.219   2.754   2.555  0.2565  0.6977 -0.3384
 1830TIP3    H1 5496   1.269   2.723   2.631 -0.4006  2.4028  0.8764
 1830TIP3    H2 5497   1.128   2.748   2.583 -0.1585 -0.6467 -1.8371
 1831TIP3   OH2 5498   1.515   2.120   4.079  0.1833 -0.5531 -0.4330
 1831TIP3    H1 5499   1.600   2.127   4.122  0.4293  1.2127 -1.1009
 1831TIP3    H2 5500   1.529   2.158   3.992 -1.5353  0.9419 -0.1191
 1832TIP3   OH2 5501   1.156   1.315   1.361 -0.2832 -0.0201 -0.3932
 1832TIP3    H1 5502   1.073   1.356   1.337 -0.0000  0.0457 -1.2640
 1832TIP3    H2 5503   1.133   1.258   1.435 -1.1083 -0.0056 -0.6269
 1833TIP3   OH2 5504   0.379   3.121   1.140  0.2449 -0.9011  0.0099
 1833TIP3    H1 5505   0.304   3.176   1.116  1.0556  0.6943  0.9434
 1833TIP3    H2 5506   0.426   3.108   1.057 -1.1815 -2.1799 -0.6388
 1834TIP3   OH2 5507   1.693   1.150   0.407  0.0870 -0.2628  0.2257
 1834TIP3    H1 5508   1.619   1.158   0.467 -0.7334 -1.6476 -0.5520
 1834TIP3    H2 5509   1.751   1.222   0.431 -1.7060  1.1377  0.5690
 1835TIP3   OH2 5510   2.391   0.373   3.418  0.0157  0.2478 -0.6665
 1835TIP3    H1 5511   2.318   0.355   3.478  1.9188 -2.9003  0.9824
 1835TIP3    H2 5512   2.376   0.314   3.344  0.1422  0.6452 -1.0104
 1836TIP3   OH2 5513   2.624   1.471   3.702 -0.4047 -0.7229 -0.2439
 1836TIP3    H1 5514   2.664   1.480   3.615 -0.1107  0.6857  0.0211
 1836TIP3    H2 5515   2.536   1.440   3.684 -0.4508 -0.1404 -1.0765
 1837TIP3   OH2 5516   6.003   0.160   1.170 -0.0658 -0.1897  0.0750
 1837TIP3    H1 5517   5.961   0.076   1.191 -0.3114  0.2367  1.3637
 1837TIP3    H2 5518   6.076   0.136   1.113 -0.9007 -1.1426 -0.6416
 1838TIP3   OH2 5519   0.192   1.984   1.408  0.2781  0.2050 -0.3358
 1838TIP3    H1 5520   0.279   1.957   1.439 -1.0047 -1.5910  2.1481
 1838TIP3    H2 5521   0.158   2.038   1.479 -2.1296 -2.6011  0.8675
 1839TIP3   OH2 5522   4.105   4.580   4.382  0.1201 -0.4749 -0.0175
 1839TIP3    H1 5523   4.013   4.573   4.406 -0.1799  1.0541 -0.6077
 1839TIP3    H2 5524   4.146   4.501   4.419 -1.4491 -1.2996  0.0440
 1840TIP3   OH2 5525   3.488   2.405   1.227  0.5054  0.1774 -0.3866
 1840TIP3    H1 5526   3.460   2.453   1.149 -0.2252 -1.4507 -1.1709
 1840TIP3    H2 5527   3.565   2.452   1.258 -1.2725  3.0230  0.0591
 1841TIP3   OH2 5528   3.629   1.236   0.394 -0.2831  0.0354 -0.5753
 1841TIP3    H1 5529   3.609   1.257   0.303  1.2941 -0.3249 -1.0486
 1841TIP3    H2 5530   3.656   1.319   0.433 -0.9803  0.1938 -0.4140
 1842TIP3   OH2 5531   0.799   5.877   3.671 -0.4007 -0.3565  0.5317
 1842TIP3    H1 5532   0.707   5.902   3.681 -0.1246  1.6155 -1.3656
 1842TIP3    H2 5533   0.816   5.883   3.577  1.4509 -1.6431  0.7213
 1843TIP3   OH2 5534   1.175   5.516   4.990 -0.3014  0.2173 -0.1632
 1843TIP3    H1 5535   1.118   5.444   5.014 -1.7427 -0.1362 -3.9387
 1843TIP3    H2 5536   1.138   5.592   5.035 -2.6281 -0.3629 -0.9505
 1844TIP3   OH2 5537   4.958   5.458   0.907 -0.4366  0.3489 -0.8867
 1844TIP3    H1 5538   5.044   5.419   0.917 -0.9561 -0.8013 -0.7675
 1844TIP3    H2 5539   4.945   5.508   0.988 -0.1560 -0.0176 -0.6120
 1845TIP3   OH2 5540   1.329   5.476   0.916 -0.3605  0.1326  0.6475
 1845TIP3    H1 5541   1.265   5.405   0.929 -0.9110  0.9806  3.0805
 1845TIP3    H2 5542   1.407   5.446   0.962  0.4932 -0.1599 -0.9074
 1846TIP3   OH2 5543   0.253   1.285   4.152 -0.8485  0.4912 -0.1537
 1846TIP3    H1 5544   0.305   1.271   4.072 -0.1222 -0.5888  0.4797
 1846TIP3    H2 5545   0.318   1.310   4.218 -1.0002 -1.4133  0.7915
 1847TIP3   OH2 5546   2.155   0.379   5.097  0.1472 -0.2627  0.1918
 1847TIP3    H1 5547   2.120   0.339   5.177  0.5404 -1.8008 -0.3769
 1847TIP3    H2 5548   2.117   0.467   5.096 -1.3248 -0.8456  1.1280
 1848TIP3   OH2 5549   6.034   0.599   1.457  0.3795 -0.2226  0.3313
 1848TIP3    H1 5550   6.022   0.680   1.407  0.7218  0.2931  1.0757
 1848TIP3    H2 5551   5.990   0.532   1.404  1.6939  0.1018 -1.2405
 1849TIP3   OH2 5552   4.280   4.433   2.800 -0.0402 -0.8746 -0.1213
 1849TIP3    H1 5553   4.186   4.449   2.810 -0.3367 -2.5126  0.0338
 1849TIP3    H2 5554   4.285   4.360   2.738  1.2529  0.7897 -2.0845
 1850TIP3   OH2 5555   0.056   5.325   1.196  0.2853 -0.3296 -0.0292
 1850TIP3    H1 5556  -0.032   5.304   1.163  0.2425  0.4175 -0.4207
 1850TIP3    H2 5557   0.052   5.307   1.290 -0.2531 -0.4048 -0.0631
 1851TIP3   OH2 5558   3.551   0.558   5.113  0.7704 -0.1886 -0.2444
 1851TIP3    H1 5559   3.538   0.464   5.124 -0.7869 -0.0221 -0.5055
 1851TIP3    H2 5560   3.463   0.595   5.109  1.3510  1.3446  0.2758
 1852TIP3   OH2 5561   4.134   1.625   2.317  0.3935  0.0282  0.6806
 1852TIP3    H1 5562   4.057   1.595   2.364 -1.0036  1.7919 -0.3651
 1852TIP3    H2 5563   4.114   1.715   2.292  1.5239 -0.4330 -2.2699
 1853TIP3   OH2 5564   5.420   4.310   5.025 -0.3559 -0.3214 -0.1052
 1853TIP3    H1 5565   5.393   4.373   5.092  0.6500 -1.8042  1.8207
 1853TIP3    H2 5566   5.467   4.362   4.960 -3.2747  1.5308 -0.9421
 1854TIP3   OH2 5567   2.123   3.014   0.217  0.4859 -0.4907 -0.0596
 1854TIP3    H1 5568   2.128   3.108   0.238  3.7038 -0.0747 -2.0321
 1854TIP3    H2 5569   2.041   3.005   0.168 -1.5985  0.5038  2.8876
 1855TIP3   OH2 5570   1.647   4.239   3.773  0.2378 -0.0889 -0.2099
 1855TIP3    H1 5571   1.644   4.318   3.827  0.3525 -0.2337  0.0149
 1855TIP3    H2 5572   1.721   4.253   3.713  0.1708  0.0326 -0.2632
 1856TIP3   OH2 5573   2.695   1.322   2.079  0.0962  0.4956 -0.5773
 1856TIP3    H1 5574   2.653   1.282   2.002 -1.5451  1.1956 -0.0944
 1856TIP3    H2 5575   2.695   1.415   2.060 -0.2774  0.6677  0.2455
 1857TIP3   OH2 5576   2.777  -0.005   4.778 -0.0027  0.3807  0.5672
 1857TIP3    H1 5577   2.722   0.035   4.845 -1.8094 -0.2495 -0.4551
 1857TIP3    H2 5578   2.746   0.034   4.696  2.0447  1.0182  0.0546
 1858TIP3   OH2 5579   2.251   3.158   3.926  0.3322  0.0192  0.2167
 1858TIP3    H1 5580   2.246   3.075   3.974  3.4429 -1.1279 -1.2008
 1858TIP3    H2 5581   2.159   3.179   3.906 -0.5684 -3.3626  0.1741
 1859TIP3   OH2 5582   4.112   3.070   1.917  0.2392  0.4910 -0.3511
 1859TIP3    H1 5583   4.139   2.980   1.896  1.3866  0.3856  1.3149
 1859TIP3    H2 5584   4.016   3.066   1.917  0.2640 -0.8138 -0.0608
 1860TIP3   OH2 5585   2.063   2.762   3.294 -0.0109  0.0217  0.0742
 1860TIP3    H1 5586   1.967   2.768   3.296  0.0722  1.4146  0.5735
 1860TIP3    H2 5587   2.093   2.852   3.283  1.2365 -0.4907 -1.0775
 1861TIP3   OH2 5588   1.722   2.114   2.025  0.5741  0.1100 -0.4256
 1861TIP3    H1 5589   1.648   2.166   1.992  0.3243  0.3108  0.4244
 1861TIP3    H2 5590   1.717   2.032   1.976 -0.6289 -0.1470  0.0990
 1862TIP3   OH2 5591   1.653   5.337   0.714 -0.1092 -0.3872  0.0092
 1862TIP3    H1 5592   1.674   5.289   0.794 -1.5091  3.4075  2.9985
 1862TIP3    H2 5593   1.559   5.352   0.719  0.0611  1.5321 -1.3195
 1863TIP3   OH2 5594   5.208   3.117   0.685  0.0568  0.1143  0.0543
 1863TIP3    H1 5595   5.275   3.108   0.753  1.3302 -0.7374 -1.2577
 1863TIP3    H2 5596   5.189   3.028   0.657 -0.2510  0.4530 -0.8821
 1864TIP3   OH2 5597   2.509   2.562   0.704  0.1396 -0.0959  0.3596
 1864TIP3    H1 5598   2.520   2.654   0.730 -1.0196  0.3384 -0.6043
 1864TIP3    H2 5599   2.426   2.536   0.744 -0.0043 -0.4289 -0.1467
 1865TIP3   OH2 5600   3.778   3.821   0.863 -0.1863  0.2029  0.0616
 1865TIP3    H1 5601   3.734   3.857   0.786 -2.0053  1.2270  1.5187
 1865TIP3    H2 5602   3.838   3.890   0.892  0.8002 -0.3350 -0.6093
 1866TIP3   OH2 5603   3.283   2.793   5.058 -0.0073 -0.0270  0.3314
 1866TIP3    H1 5604   3.218   2.727   5.083  0.1248 -0.2382  0.1251
 1866TIP3    H2 5605   3.283   2.856   5.130 -0.9806  0.3748 -0.0023
 1867TIP3   OH2 5606   3.192   5.419   5.015  0.0756 -0.1851  0.3771
 1867TIP3    H1 5607   3.287   5.432   5.022  0.3553 -1.1928 -1.0310
 1867TIP3    H2 5608   3.178   5.328   5.038 -0.4642 -0.2240 -0.0889
 1868TIP3   OH2 5609   1.520   4.009   2.137 -0.5399  0.5419  0.2664
 1868TIP3    H1 5610   1.587   4.063   2.095 -0.2855  1.7851  2.1199
 1868TIP3    H2 5611   1.521   3.927   2.088  1.6701  0.8762 -0.3759
 1869TIP3   OH2 5612   5.121   0.670   4.123 -0.3115 -0.0366  0.4135
 1869TIP3    H1 5613   5.114   0.577   4.105  0.6991  0.0860 -0.7463
 1869TIP3    H2 5614   5.138   0.710   4.038 -0.0949  1.1284  0.9825
 1870TIP3   OH2 5615   2.825   5.656   2.075  0.3333  0.0057  0.2183
 1870TIP3    H1 5616   2.819   5.688   2.165 -0.8273 -0.8052  0.4543
 1870TIP3    H2 5617   2.783   5.571   2.078  0.4427 -0.1019 -1.0709
 1871TIP3   OH2 5618   6.219   0.515   1.089 -0.0829  0.0567 -0.1717
 1871TIP3    H1 5619   6.257   0.452   1.151 -0.8391  0.4080  0.6693
 1871TIP3    H2 5620   6.148   0.467   1.047 -0.7654  0.3724  0.5873
 1872TIP3   OH2 5621   3.095   3.934   4.119 -0.1768 -0.3001  0.3013
 1872TIP3    H1 5622   3.127   3.845   4.138  2.1020  0.3984  0.0135
 1872TIP3    H2 5623   3.058   3.928   4.031  2.4811 -0.4583 -0.9073
 1873TIP3   OH2 5624   4.009   4.481   2.799 -0.3696  0.6108  0.9048
 1873TIP3    H1 5625   3.996   4.404   2.743 -0.4675  0.8912  0.5433
 1873TIP3    H2 5626   3.931   4.484   2.854 -0.3972  0.4918  0.8730
 1874TIP3   OH2 5627   0.916   1.549   1.391 -0.2744  0.3033  0.2202
 1874TIP3    H1 5628   0.887   1.608   1.322 -1.8614 -0.4170  0.2319
 1874TIP3    H2 5629   0.918   1.463   1.350  0.2272  0.0857  0.6844
 1875TIP3   OH2 5630   4.973   1.946   3.491  0.3973  1.0211  0.2990
 1875TIP3    H1 5631   4.984   1.858   3.527 -1.2485  0.6852  0.0423
 1875TIP3    H2 5632   4.927   1.933   3.409 -0.7276  2.1831  0.7143
 1876TIP3   OH2 5633   1.854   2.329   4.785  0.4407 -0.0989 -0.4661
 1876TIP3    H1 5634   1.857   2.424   4.793  0.4548 -0.0012 -1.5607
 1876TIP3    H2 5635   1.769   2.311   4.745 -0.3510 -0.6879  1.3833
 1877TIP3   OH2 5636   5.064   5.029   0.624 -0.6749 -0.0370 -0.1644
 1877TIP3    H1 5637   5.095   4.939   0.639 -0.8194  0.0317  0.5783
 1877TIP3    H2 5638   5.088   5.076   0.704 -0.1039  0.7291 -0.7687
 1878TIP3   OH2 5639   0.491   3.283   1.897  0.6816 -0.5398  0.2360
 1878TIP3    H1 5640   0.418   3.227   1.870 -0.4026  0.4157  1.0954
 1878TIP3    H2 5641   0.482   3.361   1.842  1.4046 -0.6396 -0.0365
 1879TIP3   OH2 5642   0.357   5.145   0.784 -0.0909  0.2125 -0.4044
 1879TIP3    H1 5643   0.397   5.225   0.816  0.5897  0.6137 -2.1865
 1879TIP3    H2 5644   0.263   5.163   0.786 -0.0322  0.4886  0.5878
 1880TIP3   OH2 5645   2.531   3.542   4.975  0.2838 -0.0926  0.6288
 1880TIP3    H1 5646   2.608   3.599   4.972 -0.9743  1.7204 -2.7974
 1880TIP3    H2 5647   2.565   3.455   4.955  1.5696  0.4850  0.2006
 1881TIP3   OH2 5648   2.040   0.485   4.312  0.0356 -0.4619  0.5899
 1881TIP3    H1 5649   1.986   0.408   4.331 -0.4675 -0.4447 -0.6835
 1881TIP3    H2 5650   1.978   0.556   4.298  0.3882 -0.3373 -0.4369
 1882TIP3   OH2 5651   5.614   0.439   3.056  0.2030 -0.4668 -0.4456
 1882TIP3    H1 5652   5.587   0.477   3.139 -1.0298  0.3701 -1.1973
 1882TIP3    H2 5653   5.565   0.357   3.049  0.5967 -0.7270 -0.1819
 1883TIP3   OH2 5654   3.146   4.327   4.520  0.2464  0.3585 -0.0852
 1883TIP3    H1 5655   3.200   4.327   4.599  0.3618  1.6440 -0.1273
 1883TIP3    H2 5656   3.166   4.244   4.476  0.2821 -0.3042  1.1559
 1884TIP3   OH2 5657   0.349   1.246   2.454 -0.4212 -0.8254  0.3417
 1884TIP3    H1 5658   0.430   1.247   2.504  0.9396 -1.3283 -1.7379
 1884TIP3    H2 5659   0.325   1.154   2.447 -0.0108 -0.8724 -0.7530
 1885TIP3   OH2 5660   6.187   2.824   1.363 -0.2966 -0.4211  0.2787
 1885TIP3    H1 5661   6.115   2.839   1.423 -0.4848 -1.3585  0.2944
 1885TIP3    H2 5662   6.251   2.773   1.413  0.3003  0.2363  0.2079
 1886TIP3   OH2 5663   3.383   1.471   0.642 -0.3488  0.2986 -0.3349
 1886TIP3    H1 5664   3.428   1.500   0.562 -0.3983  1.6268  0.0809
 1886TIP3    H2 5665   3.347   1.552   0.679  0.5599 -0.1052  1.5858
 1887TIP3   OH2 5666   0.323   4.836   3.626 -0.0581 -0.2030 -0.0892
 1887TIP3    H1 5667   0.390   4.902   3.605 -1.6433  1.1122 -1.3005
 1887TIP3    H2 5668   0.329   4.826   3.721  0.6958  1.2058  0.0461
 1888TIP3   OH2 5669   3.133   3.901   5.002  0.1383  0.2606  0.3586
 1888TIP3    H1 5670   3.121   3.995   5.007 -0.3292  0.2415 -0.1965
 1888TIP3    H2 5671   3.100   3.867   5.085 -1.0741  0.4700 -0.0185
 1889TIP3   OH2 5672   2.802   3.688   0.757  0.5330 -0.8096  0.0258
 1889TIP3    H1 5673   2.756   3.605   0.748  0.0273 -0.4591 -0.7822
 1889TIP3    H2 5674   2.795   3.728   0.670 -0.8250  0.9034  0.8700
 1890TIP3   OH2 5675   0.157   1.660   3.222 -0.2268 -0.2923 -0.1669
 1890TIP3    H1 5676   0.216   1.607   3.169  0.3425 -0.1284  0.2874
 1890TIP3    H2 5677   0.092   1.693   3.160  0.3736 -0.1799 -0.7463
 1891TIP3   OH2 5678   2.064   2.439   0.261  0.1740 -0.2541 -0.4052
 1891TIP3    H1 5679   2.131   2.439   0.330 -0.2978 -0.1204  0.0626
 1891TIP3    H2 5680   2.113   2.455   0.180  0.6109  0.7561  0.0285
 1892TIP3   OH2 5681   5.956   3.953   2.091 -0.1062 -0.8694  0.4563
 1892TIP3    H1 5682   5.912   3.868   2.088  0.9478 -1.4527  0.9269
 1892TIP3    H2 5683   6.039   3.938   2.044 -0.9031  0.5265 -1.5324
 1893TIP3   OH2 5684   4.381   2.948   2.171 -0.6066 -0.1639  0.4372
 1893TIP3    H1 5685   4.294   2.930   2.136 -0.1301  2.3184 -2.4253
 1893TIP3    H2 5686   4.419   2.861   2.185 -3.3432 -1.3179  1.4708
 1894TIP3   OH2 5687   2.918   3.941   4.477  0.1104  0.1643 -0.0151
 1894TIP3    H1 5688   2.974   3.942   4.555 -1.2839 -0.4442  1.0342
 1894TIP3    H2 5689   2.876   4.027   4.476  0.2805  0.2472 -0.2267
 1895TIP3   OH2 5690   1.084   4.995   2.446 -0.0849  0.4160 -0.2425
 1895TIP3    H1 5691   1.092   5.078   2.492  0.3986  0.9368 -1.2278
 1895TIP3    H2 5692   1.171   4.955   2.451 -0.8585 -1.1575  2.2100
 1896TIP3   OH2 5693   3.587   0.558   0.667  0.1431 -0.2684  0.7899
 1896TIP3    H1 5694   3.572   0.577   0.575  0.8651 -2.7013  0.1125
 1896TIP3    H2 5695   3.503   0.576   0.709 -0.9612 -1.4773 -0.7790
 1897TIP3   OH2 5696   3.571   3.959   4.971 -0.5570  0.0219 -0.0420
 1897TIP3    H1 5697   3.505   4.028   4.970  0.4396  1.0019 -1.1041
 1897TIP3    H2 5698   3.570   3.924   4.882  0.2053 -0.0915 -0.0129
 1898TIP3   OH2 5699   5.103   0.767   0.494  0.1075 -0.1035 -0.5211
 1898TIP3    H1 5700   5.037   0.699   0.503  0.2674 -0.0057  2.8272
 1898TIP3    H2 5701   5.056   0.842   0.457 -0.7737 -1.0962 -1.4690
 1899TIP3   OH2 5702   1.113   4.505   1.951 -0.4914 -0.6373  0.5561
 1899TIP3    H1 5703   1.209   4.506   1.941 -0.5055  0.6757  0.3950
 1899TIP3    H2 5704   1.100   4.513   2.045 -0.4470 -1.7101  0.6634
 1900TIP3   OH2 5705   6.317   0.863   3.502  0.4088 -0.2061 -0.0023
 1900TIP3    H1 5706   6.267   0.847   3.582 -0.1619 -0.5195 -0.4160
 1900TIP3    H2 5707   6.378   0.934   3.526 -0.3112  0.2726  0.4726
 1901TIP3   OH2 5708   1.702   5.902   2.641 -0.5458 -0.1271  0.7422
 1901TIP3    H1 5709   1.772   5.963   2.619 -1.0430 -0.2581 -1.4455
 1901TIP3    H2 5710   1.622   5.954   2.635 -0.8231 -0.5422  0.8170
 1902TIP3   OH2 5711   0.260   4.565   2.932  0.0954 -0.4517 -0.4024
 1902TIP3    H1 5712   0.298   4.555   3.019  0.2574 -0.4466 -0.4717
 1902TIP3    H2 5713   0.178   4.516   2.936 -0.6980  0.8658  0.2420
 1903TIP3   OH2 5714   0.583   1.759   0.020  0.2915  0.6754 -0.8564
 1903TIP3    H1 5715   0.567   1.715   0.103 -0.5728  0.4179 -1.1557
 1903TIP3    H2 5716   0.627   1.841   0.045 -1.1214  1.2176 -0.0346
 1904TIP3   OH2 5717   0.516   1.662   2.956 -0.1836 -1.1316  0.4146
 1904TIP3    H1 5718   0.452   1.708   2.902 -0.9038 -0.7711  1.5416
 1904TIP3    H2 5719   0.583   1.727   2.976 -1.2623 -0.4789  2.1079
 1905TIP3   OH2 5720   0.154   1.967   2.698 -0.2129 -0.1334  0.1861
 1905TIP3    H1 5721   0.151   2.025   2.621  0.9663  0.8126  0.8222
 1905TIP3    H2 5722   0.093   1.896   2.676  0.3836 -0.1133 -1.8002
 1906TIP3   OH2 5723   3.864   3.452   2.832  0.2579  0.1075  0.1484
 1906TIP3    H1 5724   3.777   3.425   2.860  0.0568 -0.1088 -0.6695
 1906TIP3    H2 5725   3.855   3.473   2.739  1.3789 -1.2468 -0.2999
 1907TIP3   OH2 5726   0.304   3.804   4.729 -0.0912  0.0582  0.2757
 1907TIP3    H1 5727   0.230   3.754   4.694 -2.0994  2.7174  0.3281
 1907TIP3    H2 5728   0.359   3.821   4.653  0.0412 -1.2525  0.0625
 1908TIP3   OH2 5729   5.841   1.786   0.035 -0.1808  0.4903 -0.2366
 1908TIP3    H1 5730   5.843   1.879   0.057  0.3595  0.1302  1.3611
 1908TIP3    H2 5731   5.873   1.742   0.114 -2.8991 -1.2268  0.0392
 1909TIP3   OH2 5732   5.650   2.931   4.255 -0.6105  0.0192 -0.2051
 1909TIP3    H1 5733   5.625   2.885   4.175  0.1645 -0.6469 -0.0763
 1909TIP3    H2 5734   5.703   3.005   4.224  0.9098 -1.0563 -0.2502
 1910TIP3   OH2 5735   4.805   1.378   2.424  0.6813 -0.1262  0.1683
 1910TIP3    H1 5736   4.725   1.429   2.415  0.6226  0.2611  2.3349
 1910TIP3    H2 5737   4.778   1.287   2.410 -0.1084  0.0267  0.6582
 1911TIP3   OH2 5738   1.231   1.126   0.870  0.2322 -0.0205  0.3571
 1911TIP3    H1 5739   1.250   1.100   0.961 -0.8654  0.1362  0.6522
 1911TIP3    H2 5740   1.266   1.055   0.817 -0.2740 -0.7677  0.9941
 1912TIP3   OH2 5741   2.264   5.997   3.851 -0.4500  0.5044 -0.0251
 1912TIP3    H1 5742   2.254   5.985   3.757 -2.0312  0.0355  0.1722
 1912TIP3    H2 5743   2.285   5.910   3.884  1.2521  0.8825 -0.0539
 1913TIP3   OH2 5744   5.336   3.350   4.464  0.3263 -0.0292  0.4578
 1913TIP3    H1 5745   5.389   3.427   4.444  0.4424  0.2111  1.6209
 1913TIP3    H2 5746   5.247   3.375   4.436  0.7865 -0.4833 -1.6134
 1914TIP3   OH2 5747   1.080   1.161   4.662  0.2478 -0.1128 -0.2520
 1914TIP3    H1 5748   1.095   1.242   4.711  2.0735 -0.7486  0.3430
 1914TIP3    H2 5749   1.080   1.188   4.570  0.0763  0.6650 -0.0304
 1915TIP3   OH2 5750   1.123   4.336   4.284  0.3110  0.2863 -0.0724
 1915TIP3    H1 5751   1.076   4.276   4.342 -1.2191  0.7396 -0.7786
 1915TIP3    H2 5752   1.129   4.417   4.333  0.5024  0.1757  0.0862
 1916TIP3   OH2 5753   5.936   2.149   3.344 -0.1500 -0.3240  0.2785
 1916TIP3    H1 5754   5.851   2.178   3.310  0.1911  0.1793 -0.1624
 1916TIP3    H2 5755   5.965   2.219   3.401  0.5116  0.0662 -0.5075
 1917TIP3   OH2 5756   2.471   4.081   2.335 -0.1009 -0.2752 -0.0165
 1917TIP3    H1 5757   2.391   4.049   2.296  0.2301 -0.2892 -0.6947
 1917TIP3    H2 5758   2.500   4.151   2.277 -0.2261  0.5178  0.8416
 1918TIP3   OH2 5759   4.800   2.505   4.196  0.4280 -0.3467 -0.3415
 1918TIP3    H1 5760   4.786   2.431   4.255  1.4412 -0.5930 -0.3921
 1918TIP3    H2 5761   4.726   2.502   4.135  0.2440 -1.0743 -0.0916
 1919TIP3   OH2 5762   1.284   3.954   3.976  0.2021  0.1292 -0.3171
 1919TIP3    H1 5763   1.250   4.040   4.001  1.0987  0.7660 -1.2115
 1919TIP3    H2 5764   1.376   3.970   3.955  0.3670 -1.0443 -0.5401
 1920TIP3   OH2 5765   3.144   3.674   1.916 -0.9899 -0.0604  0.5829
 1920TIP3    H1 5766   3.225   3.656   1.869 -0.6210  1.3815  0.6223
 1920TIP3    H2 5767   3.171   3.719   1.996 -1.8310  0.9184  0.3514
 1921TIP3   OH2 5768   0.661   1.613   2.367 -0.6569  0.2837  0.1911
 1921TIP3    H1 5769   0.630   1.567   2.290  0.7090 -0.5993  0.1354
 1921TIP3    H2 5770   0.641   1.554   2.440  1.7568 -0.8529  0.0463
 1922TIP3   OH2 5771   1.340   1.514   2.873  0.0140  0.4326 -0.8182
 1922TIP3    H1 5772   1.391   1.510   2.954  1.3867 -0.1895 -1.6964
 1922TIP3    H2 5773   1.259   1.467   2.894 -1.6086  3.7543  1.4753
 1923TIP3   OH2 5774   3.158   1.345   2.026  0.3257  0.2014 -0.0256
 1923TIP3    H1 5775   3.227   1.411   2.017  0.8792 -0.2417  0.8322
 1923TIP3    H2 5776   3.204   1.261   2.024 -0.1841 -0.1030  0.5414
 1924TIP3   OH2 5777   5.752   3.569   0.217  0.1589 -0.0077  0.3543
 1924TIP3    H1 5778   5.668   3.588   0.258  0.6649  0.0137  1.4317
 1924TIP3    H2 5779   5.734   3.497   0.157 -0.1269 -2.0777  2.7292
 1925TIP3   OH2 5780   3.533   1.602   0.987 -0.5074  0.4294  0.4987
 1925TIP3    H1 5781   3.568   1.548   0.916  0.4895  1.7762 -0.0737
 1925TIP3    H2 5782   3.607   1.654   1.017 -1.0879  0.4186  2.0475
 1926TIP3   OH2 5783   5.464   4.360   3.225  0.4847 -0.8018  0.6470
 1926TIP3    H1 5784   5.468   4.399   3.138 -0.6660 -0.6134  0.6619
 1926TIP3    H2 5785   5.386   4.304   3.222 -0.7206  0.6752  2.1176
 1927TIP3   OH2 5786   2.800   5.405   0.180 -0.5106 -0.1208  0.2119
 1927TIP3    H1 5787   2.707   5.383   0.176 -0.9842  1.2329  2.1062
 1927TIP3    H2 5788   2.827   5.377   0.268  0.6122  0.4064  0.0530
 1928TIP3   OH2 5789   3.628   5.828   4.229 -0.3435  0.1871  0.4175
 1928TIP3    H1 5790   3.551   5.879   4.256 -1.9064 -1.2954 -0.9676
 1928TIP3    H2 5791   3.593   5.761   4.170  1.8372 -1.4883  0.8875
 1929TIP3   OH2 5792   0.775   3.847   1.696  0.5904  0.2029 -0.3063
 1929TIP3    H1 5793   0.779   3.897   1.614  0.8308 -0.8999 -0.9825
 1929TIP3    H2 5794   0.824   3.767   1.677  0.2084 -0.2902  0.7580
 1930TIP3   OH2 5795   5.326   2.722   1.556  0.6574 -0.1923  0.4173
 1930TIP3    H1 5796   5.337   2.816   1.542  2.6850 -0.6410 -1.4467
 1930TIP3    H2 5797   5.395   2.700   1.619 -0.3071 -0.3390  1.4493
 1931TIP3   OH2 5798   0.255   3.602   2.988  0.2299 -0.4987  0.5792
 1931TIP3    H1 5799   0.296   3.666   3.047  0.5866 -0.1597 -0.0288
 1931TIP3    H2 5800   0.274   3.517   3.028 -1.8358 -0.2118  2.4315
 1932TIP3   OH2 5801   0.553   4.544   2.027 -0.5629  0.0991  0.1745
 1932TIP3    H1 5802   0.627   4.497   1.989  0.8623  2.4338 -0.1269
 1932TIP3    H2 5803   0.581   4.562   2.117 -1.8286 -1.0393  0.8463
 1933TIP3   OH2 5804   2.122   4.912   4.513  0.4315 -0.4790  0.0790
 1933TIP3    H1 5805   2.059   4.982   4.498  0.2400 -0.5679  0.4463
 1933TIP3    H2 5806   2.196   4.934   4.456  0.1355 -0.2924 -0.2412
 1934TIP3   OH2 5807   2.145   3.736   4.990 -0.0669  0.3539 -0.0910
 1934TIP3    H1 5808   2.059   3.742   4.949 -0.3050 -1.1640  0.1339
 1934TIP3    H2 5809   2.200   3.693   4.925  0.2199  0.2589  0.2131
 1935TIP3   OH2 5810   1.993   3.586   2.356 -0.2660  0.0632 -0.1283
 1935TIP3    H1 5811   2.010   3.652   2.423 -0.0705  0.2839 -0.3943
 1935TIP3    H2 5812   1.999   3.633   2.273  1.2832 -0.5563 -0.4101
 1936TIP3   OH2 5813   0.954   2.783   2.620 -0.3465 -0.1435 -0.0342
 1936TIP3    H1 5814   0.971   2.873   2.647  2.3683  0.3110 -2.7104
 1936TIP3    H2 5815   0.894   2.790   2.546 -1.7587 -0.7548  1.0149
 1937TIP3   OH2 5816   5.657   4.791   3.570  0.1228 -0.4090  0.5038
 1937TIP3    H1 5817   5.580   4.847   3.560 -1.6530 -2.5013  1.5854
 1937TIP3    H2 5818   5.709   4.832   3.638  0.2409  1.2707 -0.5435
 1938TIP3   OH2 5819   1.813   5.936   0.310 -0.4008  0.3682 -0.2283
 1938TIP3    H1 5820   1.864   6.016   0.299  0.1421 -0.0091 -0.5288
 1938TIP3    H2 5821   1.868   5.880   0.364 -2.0279  1.2908  2.6160
 1939TIP3   OH2 5822   5.684   2.464   3.009  0.2874 -0.3483 -0.0947
 1939TIP3    H1 5823   5.623   2.536   3.026 -0.7684 -1.5910  1.7724
 1939TIP3    H2 5824   5.750   2.472   3.079  0.5041 -0.8430 -0.2396
 1940TIP3   OH2 5825   4.961   2.933  -0.007 -0.2107  0.7486 -0.0926
 1940TIP3    H1 5826   4.866   2.943  -0.005 -0.2464  0.4534  1.5883
 1940TIP3    H2 5827   4.983   2.895   0.079  1.3520  0.1757 -0.7041
 1941TIP3   OH2 5828   5.100   2.164   2.859 -0.2047  0.3123  0.3089
 1941TIP3    H1 5829   5.162   2.152   2.787  0.2409  2.0688  0.3493
 1941TIP3    H2 5830   5.078   2.075   2.887  1.8235 -0.3784 -0.1029
 1942TIP3   OH2 5831   5.935   1.737   1.399 -0.5570  0.2161  0.2514
 1942TIP3    H1 5832   5.924   1.648   1.433  2.4024  0.3367  1.8847
 1942TIP3    H2 5833   5.849   1.777   1.409 -1.6508 -2.0416  0.6995
 1943TIP3   OH2 5834   2.396   0.421   2.707  0.1687  0.2688  1.0315
 1943TIP3    H1 5835   2.341   0.366   2.652 -2.4789  2.0723  1.6705
 1943TIP3    H2 5836   2.484   0.412   2.670 -0.8345 -1.3972 -1.1797
 1944TIP3   OH2 5837   3.604   0.475   2.880  0.2225 -0.5646  0.1653
 1944TIP3    H1 5838   3.641   0.557   2.914  1.5330 -0.8429 -0.5443
 1944TIP3    H2 5839   3.575   0.428   2.958  1.4744 -0.3781  0.7700
 1945TIP3   OH2 5840   0.712   2.639   4.223 -0.3810  0.2899 -0.1312
 1945TIP3    H1 5841   0.730   2.619   4.315 -1.0684  1.0306  0.1818
 1945TIP3    H2 5842   0.674   2.728   4.225 -2.2480 -0.4250 -0.9098
 1946TIP3   OH2 5843   5.157   0.158   1.484 -0.1479 -0.1258  0.1385
 1946TIP3    H1 5844   5.222   0.100   1.444  0.0807  0.9495 -1.0836
 1946TIP3    H2 5845   5.209   0.223   1.532 -0.3764 -0.2192  0.5219
 1947TIP3   OH2 5846   4.230   1.211   3.956 -0.1623  0.0455  0.8632
 1947TIP3    H1 5847   4.154   1.264   3.932 -0.7958 -0.8897  0.7707
 1947TIP3    H2 5848   4.246   1.156   3.880 -0.6618 -1.1970  1.6326
 1948TIP3   OH2 5849   3.469   0.264   0.073 -0.0186 -0.5029 -0.2891
 1948TIP3    H1 5850   3.427   0.273   0.159 -1.0835  1.4129 -0.9668
 1948TIP3    H2 5851   3.411   0.205   0.024 -0.8519  0.5134 -0.5490
 1949TIP3   OH2 5852   3.178   1.141   2.624 -0.0113 -0.0666  0.2528
 1949TIP3    H1 5853   3.204   1.134   2.716  0.3620 -0.3925  0.1263
 1949TIP3    H2 5854   3.228   1.217   2.592 -0.3619  0.2267  0.3878
 1950TIP3   OH2 5855   6.054   3.312   1.223  0.1666  0.3837  0.8619
 1950TIP3    H1 5856   6.009   3.327   1.306 -0.9996  0.6402  0.1993
 1950TIP3    H2 5857   6.019   3.229   1.191 -1.7305  1.7696 -0.8424
 1951TIP3   OH2 5858   3.116   4.917   1.293 -0.5975 -0.3575 -0.3718
 1951TIP3    H1 5859   3.029   4.938   1.257  0.4679  1.0029 -2.2879
 1951TIP3    H2 5860   3.135   4.830   1.258 -2.7738 -2.6211  3.3345
 1952TIP3   OH2 5861   1.450   5.918   4.401 -0.2545  0.1915  0.3705
 1952TIP3    H1 5862   1.463   5.973   4.324  1.6045  1.2956  1.3884
 1952TIP3    H2 5863   1.470   5.829   4.371  0.3512  0.5911 -0.4471
 1953TIP3   OH2 5864   0.526   0.215   3.892  0.1050 -0.1802  0.2429
 1953TIP3    H1 5865   0.487   0.145   3.945 -1.2842  0.5943  0.2749
 1953TIP3    H2 5866   0.452   0.259   3.851  1.0722  0.1125 -1.2761
 1954TIP3   OH2 5867   5.587   1.637   4.073 -0.4775 -0.2973  0.5263
 1954TIP3    H1 5868   5.563   1.548   4.098  0.6154 -0.5472  0.7597
 1954TIP3    H2 5869   5.636   1.671   4.148 -0.0210  0.1307  0.0459
 1955TIP3   OH2 5870   4.343   5.875   3.142 -0.1274  0.3479  0.0116
 1955TIP3    H1 5871   4.391   5.952   3.172 -0.8098  2.0309 -2.8538
 1955TIP3    H2 5872   4.251   5.900   3.148 -0.5708 -1.4442  1.8482
 1956TIP3   OH2 5873   0.013   2.079   2.897  0.0167 -0.0331  0.3739
 1956TIP3    H1 5874   0.073   2.024   2.846 -0.9150  1.8031 -3.0059
 1956TIP3    H2 5875  -0.074   2.052   2.868 -0.6820 -0.1740  2.4976
 1957TIP3   OH2 5876   2.900   0.775   1.480  0.0261 -0.2907  0.0969
 1957TIP3    H1 5877   2.821   0.745   1.525 -0.2434 -0.6337 -0.5994
 1957TIP3    H2 5878   2.910   0.715   1.406 -0.0172  0.7770 -0.8023
 1958TIP3   OH2 5879   4.118   0.052   3.475  0.0985  0.1292  0.4045
 1958TIP3    H1 5880   4.040  -0.000   3.453  0.0957  0.2302  0.1665
 1958TIP3    H2 5881   4.176  -0.009   3.521  0.1115 -0.0944  0.0962
 1959TIP3   OH2 5882   5.811   4.763   1.207  0.2843  0.4475  0.0103
 1959TIP3    H1 5883   5.722   4.729   1.204 -0.0972  1.4654 -1.6636
 1959TIP3    H2 5884   5.822   4.796   1.296 -0.7310 -0.3729  0.4531
 1960TIP3   OH2 5885   3.272   2.678   0.007 -0.3003  0.2760 -0.4183
 1960TIP3    H1 5886   3.307   2.635   0.085 -1.2210  1.3393  0.6146
 1960TIP3    H2 5887   3.345   2.678  -0.055  0.6676  0.0466  0.6891
 1961TIP3   OH2 5888   6.002   1.718   0.830 -0.0391  0.1961 -0.3662
 1961TIP3    H1 5889   6.039   1.756   0.910 -0.4471 -2.5333  1.2239
 1961TIP3    H2 5890   6.071   1.730   0.764  0.5767  1.9019  0.5036
 1962TIP3   OH2 5891   1.530   3.617   0.603 -0.1171  0.0637  0.0220
 1962TIP3    H1 5892   1.537   3.549   0.670 -1.1708  0.6027  0.6971
 1962TIP3    H2 5893   1.461   3.675   0.635 -0.9825  0.0802 -1.7509
 1963TIP3   OH2 5894   3.122   5.653   4.074 -0.3541 -0.1227 -0.2210
 1963TIP3    H1 5895   3.159   5.661   4.162 -0.2075 -0.5815 -0.2422
 1963TIP3    H2 5896   3.057   5.583   4.082  0.7856 -1.2894 -0.8536
 1964TIP3   OH2 5897   1.456   1.571   3.855 -0.2250  0.3265 -0.1059
 1964TIP3    H1 5898   1.379   1.514   3.857  0.3258 -0.4767 -0.8289
 1964TIP3    H2 5899   1.430   1.644   3.799 -1.0065  0.8936  0.9879
 1965TIP3   OH2 5900   2.258   4.609   2.634  0.3191 -0.3745 -0.0187
 1965TIP3    H1 5901   2.218   4.592   2.719  0.6232  0.9072  0.4055
 1965TIP3    H2 5902   2.185   4.603   2.572  0.0442 -1.0238  0.3607
 1966TIP3   OH2 5903   3.409   0.784   3.076 -0.4682  0.5254 -0.4173
 1966TIP3    H1 5904   3.380   0.741   2.995  0.7577 -2.6956  0.7001
 1966TIP3    H2 5905   3.504   0.793   3.066 -0.3991  0.7528  0.3746
 1967TIP3   OH2 5906   5.677   5.204   4.704 -0.4767 -0.5906  0.4560
 1967TIP3    H1 5907   5.644   5.159   4.626 -0.5081 -0.1978  0.2368
 1967TIP3    H2 5908   5.733   5.140   4.747  0.9459 -0.2565 -0.8165
 1968TIP3   OH2 5909   1.514   0.626   2.864 -0.0561  0.1123 -0.0220
 1968TIP3    H1 5910   1.453   0.589   2.800 -2.0606 -0.0415  1.8416
 1968TIP3    H2 5911   1.501   0.720   2.857 -0.9399  0.0646  0.6958
 1969TIP3   OH2 5912   3.933   3.049   2.178  0.0565  0.4601 -0.2956
 1969TIP3    H1 5913   3.997   2.978   2.172  1.8987  2.0736 -0.9131
 1969TIP3    H2 5914   3.898   3.057   2.089  0.1444  0.5581 -0.3225
 1970TIP3   OH2 5915   4.361   4.168   1.172  0.0290  0.2657 -0.2670
 1970TIP3    H1 5916   4.295   4.145   1.106 -0.6952  2.0708 -0.2236
 1970TIP3    H2 5917   4.310   4.199   1.247  0.8803 -0.5857  0.6971
 1971TIP3   OH2 5918   6.244   4.022   0.313 -0.3908  0.2295  0.0207
 1971TIP3    H1 5919   6.159   3.978   0.309  0.1305 -0.7721 -0.6235
 1971TIP3    H2 5920   6.255   4.045   0.406  0.4144 -3.3997  1.0085
 1972TIP3   OH2 5921   1.116   0.804   3.414  0.0397  0.1623 -0.2144
 1972TIP3    H1 5922   1.130   0.898   3.416  0.3764  0.1066  1.3060
 1972TIP3    H2 5923   1.030   0.790   3.453 -0.1308 -0.1568 -0.6829
 1973TIP3   OH2 5924   3.063   4.452   0.733 -0.0103  0.0734 -0.1735
 1973TIP3    H1 5925   3.076   4.486   0.644 -0.5550  0.3666 -0.1472
 1973TIP3    H2 5926   2.982   4.401   0.727 -0.7270  1.1106  0.4270
 1974TIP3   OH2 5927   0.718   2.882   2.010  0.4003  0.0289  0.5667
 1974TIP3    H1 5928   0.799   2.833   2.022 -0.1363 -1.2404 -0.7139
 1974TIP3    H2 5929   0.651   2.828   2.053  0.1486  0.8596  1.2568
 1975TIP3   OH2 5930   5.816   2.965   2.795  0.6712 -0.9423  0.5546
 1975TIP3    H1 5931   5.723   2.980   2.814  0.2514 -0.2279 -1.7944
 1975TIP3    H2 5932   5.819   2.878   2.757  0.7701 -0.5057 -0.4597
 1976TIP3   OH2 5933   4.388   4.207   4.360 -0.1106  0.1167 -0.0953
 1976TIP3    H1 5934   4.342   4.254   4.429 -1.1889 -0.7190 -0.2068
 1976TIP3    H2 5935   4.454   4.268   4.328  0.9326  0.2453  2.1810
 1977TIP3   OH2 5936   3.815   2.220   4.384 -0.0665  0.0413 -0.6756
 1977TIP3    H1 5937   3.886   2.165   4.351  0.1080 -0.1003 -0.0779
 1977TIP3    H2 5938   3.735   2.175   4.355  0.0785 -0.0962 -0.8688
 1978TIP3   OH2 5939   2.848   0.609   2.328  0.4955  0.3596 -0.6524
 1978TIP3    H1 5940   2.825   0.625   2.236 -1.3168 -1.6614 -0.6390
 1978TIP3    H2 5941   2.800   0.676   2.377 -0.8314 -0.2780 -1.0344
 1979TIP3   OH2 5942   4.615   2.626   4.656  0.5315  0.5667 -0.3196
 1979TIP3    H1 5943   4.548   2.639   4.724 -0.7958 -1.3893 -1.1634
 1979TIP3    H2 5944   4.589   2.687   4.587  0.0329  0.3547 -0.3292
 1980TIP3   OH2 5945   2.540   1.705   5.124  0.1285  0.0945  0.1339
 1980TIP3    H1 5946   2.560   1.694   5.031  0.1360  0.7214  0.0549
 1980TIP3    H2 5947   2.573   1.625   5.165  0.5158  0.0022 -0.3453
 1981TIP3   OH2 5948   1.415   1.049   0.064  0.2682  0.0706  0.1284
 1981TIP3    H1 5949   1.462   1.014  -0.011  0.4903 -1.1293  0.8038
 1981TIP3    H2 5950   1.439   0.991   0.136  1.3392  2.1129  1.5047
 1982TIP3   OH2 5951   5.191   4.281   1.870  0.5700 -0.0397  0.1832
 1982TIP3    H1 5952   5.178   4.240   1.785  0.5114  0.8310 -0.2339
 1982TIP3    H2 5953   5.118   4.342   1.879  1.5038  1.1271  0.0980
 1983TIP3   OH2 5954   0.086   3.110   2.435  0.8004  0.2901  0.1912
 1983TIP3    H1 5955   0.035   3.188   2.456  0.6530 -0.1121  1.4137
 1983TIP3    H2 5956   0.115   3.076   2.520  2.3601  0.0048 -0.4132
 1984TIP3   OH2 5957   0.749   2.817   0.549  0.6209  0.5111 -0.1235
 1984TIP3    H1 5958   0.782   2.837   0.637 -0.5235 -0.9075  0.6703
 1984TIP3    H2 5959   0.808   2.749   0.517 -0.5455 -0.9573  0.7017
 1985TIP3   OH2 5960   4.494   0.168   1.889 -0.1921  0.1931  0.2413
 1985TIP3    H1 5961   4.587   0.189   1.898 -0.2685  0.3882  0.6144
 1985TIP3    H2 5962   4.490   0.073   1.899 -0.0847  0.2356  0.7366
 1986TIP3   OH2 5963   1.361   5.289   3.420  0.0724  0.2005 -0.6032
 1986TIP3    H1 5964   1.425   5.358   3.439 -0.9413  1.2212 -0.7619
 1986TIP3    H2 5965   1.303   5.288   3.496  0.3503 -0.8239 -0.3907
 1987TIP3   OH2 5966   0.636   2.555   0.736  0.1205 -0.1252  0.0576
 1987TIP3    H1 5967   0.623   2.553   0.641 -3.3410  0.4701  0.4051
 1987TIP3    H2 5968   0.605   2.469   0.766 -0.0209  0.1731  0.7789
 1988TIP3   OH2 5969   5.206   0.142   4.358 -0.0068 -0.3652  0.7950
 1988TIP3    H1 5970   5.122   0.119   4.396  0.6043 -0.3065  2.2654
 1988TIP3    H2 5971   5.225   0.229   4.393  0.4044 -0.1378  0.0261
 1989TIP3   OH2 5972   4.969   3.286   3.003 -0.3599  0.1698 -0.7442
 1989TIP3    H1 5973   4.991   3.285   2.910  2.1212  0.5207 -0.2223
 1989TIP3    H2 5974   5.053   3.281   3.048 -1.4399  0.7930  1.4937
 1990TIP3   OH2 5975   3.845   5.896   0.806 -0.1545 -0.2405 -0.3566
 1990TIP3    H1 5976   3.884   5.882   0.720 -0.7917 -0.4702 -0.6174
 1990TIP3    H2 5977   3.812   5.810   0.832 -2.2348  0.2835 -1.0367
 1991TIP3   OH2 5978   2.067   0.659   2.664  0.3953 -0.3097  0.1778
 1991TIP3    H1 5979   2.044   0.717   2.736 -1.4738 -1.5695  0.6661
 1991TIP3    H2 5980   2.073   0.716   2.587 -1.6859  0.5037  0.5751
 1992TIP3   OH2 5981   0.810   4.783   2.082  0.2314  0.5265  0.2386
 1992TIP3    H1 5982   0.822   4.778   1.987 -0.5483 -0.5847  0.1840
 1992TIP3    H2 5983   0.898   4.799   2.116  1.2200 -2.6817 -0.4677
 1993TIP3   OH2 5984   5.649   0.289   1.799  0.3179  1.3314 -0.4506
 1993TIP3    H1 5985   5.717   0.357   1.802 -0.2269  1.8444  1.3658
 1993TIP3    H2 5986   5.693   0.210   1.829  0.3627  1.4344 -0.2422
 1994TIP3   OH2 5987   4.745   4.814   4.457 -0.0291 -0.4043  0.3632
 1994TIP3    H1 5988   4.684   4.744   4.479 -0.7427  0.0737 -0.0796
 1994TIP3    H2 5989   4.737   4.825   4.363  1.2893 -0.8352  0.1806
 1995TIP3   OH2 5990   3.225   4.403   4.793 -0.0268 -0.2820  0.1771
 1995TIP3    H1 5991   3.261   4.463   4.858  0.5120  0.6174 -0.9113
 1995TIP3    H2 5992   3.138   4.381   4.827 -0.2167  1.0697  0.6444
 1996TIP3   OH2 5993   1.718   1.100   3.044 -0.0214  0.5247  0.2405
 1996TIP3    H1 5994   1.629   1.101   3.077 -0.3737  0.1070 -0.6668
 1996TIP3    H2 5995   1.761   1.173   3.089 -0.4479 -0.0573  1.6419
 1997TIP3   OH2 5996   0.639   0.501   1.064 -0.1949 -0.0918 -0.3783
 1997TIP3    H1 5997   0.649   0.408   1.047  2.3085 -0.3831  1.8580
 1997TIP3    H2 5998   0.672   0.544   0.985  1.2153 -1.1792 -0.4203
 1998TIP3   OH2 5999   4.334   1.550   1.687 -0.0785  0.5212  0.0272
 1998TIP3    H1 6000   4.240   1.563   1.677 -0.2597 -0.9040 -0.2802
 1998TIP3    H2 6001   4.344   1.509   1.773  0.0377 -1.3429 -0.8448
 1999TIP3   OH2 6002   4.488   5.307   1.136  0.2396  0.0319 -0.2598
 1999TIP3    H1 6003   4.400   5.286   1.166 -0.4977  2.6100 -0.3962
 1999TIP3    H2 6004   4.482   5.301   1.040 -0.1519  1.3141 -0.3363
 2000TIP3   OH2 6005   6.143   1.587   1.717  0.0829  0.1478  0.0205
 2000TIP3    H1 6006   6.091   1.666   1.734 -0.6631  0.1217 -1.8649
 2000TIP3    H2 6007   6.159   1.550   1.804 -0.3151  1.8819  0.8815
 2001TIP3   OH2 6008   1.664   1.592   3.652  0.2770 -0.0879  0.2735
 2001TIP3    H1 6009   1.590   1.562   3.704  1.6038 -0.9651  1.7607
 2001TIP3    H2 6010   1.710   1.512   3.626  0.6754  0.4271 -0.7055
 2002TIP3   OH2 6011   5.267   5.737   1.916 -0.3269 -0.0411  0.0922
 2002TIP3    H1 6012   5.259   5.661   1.858  2.2586 -0.2120 -0.1646
 2002TIP3    H2 6013   5.224   5.710   1.997 -1.6708 -0.7877 -0.8203
 2003TIP3   OH2 6014   6.322   4.711   2.861  0.6658 -0.0342 -0.0179
 2003TIP3    H1 6015   6.321   4.615   2.864  2.3848 -0.0827  0.2884
 2003TIP3    H2 6016   6.312   4.738   2.953  1.6337  0.0088  0.0913
 2004TIP3   OH2 6017   0.526   1.240   4.207 -0.9603 -0.5459  0.1061
 2004TIP3    H1 6018   0.501   1.258   4.298  2.6184  1.5981  0.9012
 2004TIP3    H2 6019   0.534   1.145   4.202 -2.0172 -0.7586  1.7756
 2005TIP3   OH2 6020   2.984   5.509   4.569  0.2317 -0.2207 -0.5659
 2005TIP3    H1 6021   2.920   5.517   4.639  0.0756  0.7400 -0.8050
 2005TIP3    H2 6022   2.982   5.417   4.545  0.1845 -0.5402  0.5911
 2006TIP3   OH2 6023   6.105   4.025   2.312  0.0661 -0.3628 -0.2482
 2006TIP3    H1 6024   6.060   4.091   2.365  0.2359 -1.0842  0.8121
 2006TIP3    H2 6025   6.036   3.987   2.257 -0.2951 -0.2699  0.1337
 2007TIP3   OH2 6026   4.915   3.445   1.816  0.6424 -0.1088 -0.5201
 2007TIP3    H1 6027   4.832   3.468   1.774 -0.4520  0.4965  1.8441
 2007TIP3    H2 6028   4.911   3.350   1.826  1.4097 -0.4252 -2.6447
 2008TIP3   OH2 6029   0.143   3.933   3.476  0.2832  0.0510 -0.2059
 2008TIP3    H1 6030   0.072   3.964   3.532 -0.7916 -0.8828 -1.0008
 2008TIP3    H2 6031   0.185   3.864   3.527  0.1531  0.1074 -0.0204
 2009TIP3   OH2 6032   6.347   2.927   1.162 -1.0441 -0.0403 -0.5177
 2009TIP3    H1 6033   6.352   3.021   1.176 -0.3278 -0.1131 -0.2549
 2009TIP3    H2 6034   6.287   2.895   1.229 -1.0397  0.1873 -0.4061
 2010TIP3   OH2 6035   5.047   1.396   4.610  0.6145 -0.4172 -0.2575
 2010TIP3    H1 6036   4.985   1.365   4.676  1.3002  0.0596  0.6321
 2010TIP3    H2 6037   5.048   1.491   4.622  1.4803 -0.4184 -0.2937
 2011TIP3   OH2 6038   3.672   5.807   3.364  0.3847  0.3311 -0.1014
 2011TIP3    H1 6039   3.663   5.712   3.366 -1.3105  0.4516 -0.4529
 2011TIP3    H2 6040   3.759   5.823   3.326  0.6930 -1.0549 -0.0113
 2012TIP3   OH2 6041   3.415   4.188   3.573  0.5166 -0.4320 -0.3583
 2012TIP3    H1 6042   3.436   4.238   3.651  0.9847 -1.5792  0.2861
 2012TIP3    H2 6043   3.496   4.142   3.551 -0.0374 -1.3391 -0.5872
 2013TIP3   OH2 6044   4.427   2.303   4.872  0.1139 -0.5458  0.2160
 2013TIP3    H1 6045   4.386   2.387   4.890  0.2776  0.2367 -2.6222
 2013TIP3    H2 6046   4.521   2.320   4.875  0.1533 -0.7197 -0.0015
 2014TIP3   OH2 6047   6.269   1.402   4.967 -0.4033 -0.2202 -0.2575
 2014TIP3    H1 6048   6.353   1.359   4.952 -1.3269 -1.7189 -1.5178
 2014TIP3    H2 6049   6.248   1.442   4.883 -2.2415 -2.3744 -0.9348
 2015TIP3   OH2 6050   1.581   1.867   5.125 -0.0459 -0.1181 -0.0182
 2015TIP3    H1 6051   1.525   1.876   5.202 -0.7467  1.3040 -0.6603
 2015TIP3    H2 6052   1.663   1.909   5.150 -1.1891  2.9020 -0.8862
 2016TIP3   OH2 6053   1.252   2.012   4.022  0.0611 -0.5965 -0.0188
 2016TIP3    H1 6054   1.271   2.004   3.929 -0.6568 -1.8205 -0.0812
 2016TIP3    H2 6055   1.335   2.040   4.062  0.6052 -0.9324 -0.8979
 2017TIP3   OH2 6056   0.327   3.567   1.120 -0.0050  0.2104  0.0821
 2017TIP3    H1 6057   0.323   3.488   1.066 -1.0580  0.3455 -0.0502
 2017TIP3    H2 6058   0.277   3.633   1.071  0.3252  0.7779  0.4935
 2018TIP3   OH2 6059   3.337   5.120   4.457 -0.6629 -0.7816  0.5753
 2018TIP3    H1 6060   3.398   5.078   4.397  1.5410  1.8163  0.7967
 2018TIP3    H2 6061   3.278   5.050   4.485  0.4946 -2.8379 -1.7860
 2019TIP3   OH2 6062   4.246   1.579   3.506 -0.2965  0.4379 -0.2402
 2019TIP3    H1 6063   4.181   1.587   3.436  0.3835 -1.6910 -1.1869
 2019TIP3    H2 6064   4.315   1.641   3.482 -0.2464  0.0018 -1.2437
 2020TIP3   OH2 6065   1.078   4.911   3.532 -0.1017  0.1767  0.3511
 2020TIP3    H1 6066   1.060   5.003   3.513 -2.2906 -0.2251  0.1529
 2020TIP3    H2 6067   1.116   4.876   3.452  1.7617  1.1118  0.7848
 2021TIP3   OH2 6068   2.395   1.115   0.448  0.5898  0.5254  0.3187
 2021TIP3    H1 6069   2.426   1.064   0.523 -1.1882  0.7354  1.2653
 2021TIP3    H2 6070   2.412   1.206   0.473  0.5883  0.5601  0.1912
 2022TIP3   OH2 6071   2.302   4.331   4.103 -0.1355 -0.2300  0.0820
 2022TIP3    H1 6072   2.321   4.393   4.174 -0.5546 -0.6056  0.5249
 2022TIP3    H2 6073   2.334   4.247   4.135  0.4691 -0.2448 -0.5364
 2023TIP3   OH2 6074   0.856   5.740   0.933 -0.4681  0.5614 -1.4084
 2023TIP3    H1 6075   0.908   5.785   0.866 -0.3885  0.8133 -1.1776
 2023TIP3    H2 6076   0.915   5.676   0.971 -0.0136  1.4990 -0.4746
 2024TIP3   OH2 6077   1.184   5.871   2.609 -0.2930  0.6362  0.6042
 2024TIP3    H1 6078   1.099   5.834   2.634  0.2425 -0.5892  0.6998
 2024TIP3    H2 6079   1.230   5.883   2.692 -0.7116  2.2353  0.6377
 2025TIP3   OH2 6080   2.222   1.130   2.982  0.7117  0.0168 -0.3857
 2025TIP3    H1 6081   2.305   1.102   3.019  1.0330  0.3884 -0.8092
 2025TIP3    H2 6082   2.184   1.050   2.945  0.2137 -0.4334  1.0287
 2026TIP3   OH2 6083   5.504   5.981   2.451  0.0267  0.2316  0.2209
 2026TIP3    H1 6084   5.561   5.932   2.511 -0.3182  1.1049  1.3012
 2026TIP3    H2 6085   5.432   6.011   2.506 -1.1604 -0.2913 -0.9875
 2027TIP3   OH2 6086   5.109   5.465   0.162  0.5997 -0.4882 -0.1054
 2027TIP3    H1 6087   5.062   5.398   0.111  0.8461 -0.8305  0.1087
 2027TIP3    H2 6088   5.192   5.475   0.117  0.5548 -0.3132 -0.1472
 2028TIP3   OH2 6089   5.253   2.871   2.380  0.0308  0.6238  0.6967
 2028TIP3    H1 6090   5.197   2.829   2.445  0.5998 -1.0362  0.1926
 2028TIP3    H2 6091   5.342   2.860   2.415  0.2999  0.1480 -0.1028
 2029TIP3   OH2 6092   3.370   0.471   1.860  0.3666  1.1604 -0.1873
 2029TIP3    H1 6093   3.377   0.548   1.916  2.1370  1.3777 -0.6191
 2029TIP3    H2 6094   3.369   0.507   1.771 -1.2044  0.7716 -0.3427
 2030TIP3   OH2 6095   3.088   3.333   4.173  0.0976 -0.3526 -0.1671
 2030TIP3    H1 6096   3.062   3.303   4.086 -1.5677 -0.8295  0.4587
 2030TIP3    H2 6097   3.103   3.252   4.222 -1.5222 -0.1619  0.6972
 2031TIP3   OH2 6098   1.536   4.592   4.729 -0.1389 -0.9968  0.0249
 2031TIP3    H1 6099   1.457   4.641   4.755  0.7327  0.6465 -0.2966
 2031TIP3    H2 6100   1.604   4.622   4.789  0.7557 -0.7237 -1.0835
 2032TIP3   OH2 6101   5.885   3.078   3.955 -0.8164  0.1512 -0.5027
 2032TIP3    H1 6102   5.874   3.171   3.939  0.4991  0.4701  0.2484
 2032TIP3    H2 6103   5.814   3.036   3.907 -1.4516  1.5375 -0.8165
 2033TIP3   OH2 6104   0.836   0.290   0.689  0.4066  0.2183 -0.1347
 2033TIP3    H1 6105   0.772   0.231   0.649  0.3168 -0.9532  1.6081
 2033TIP3    H2 6106   0.797   0.377   0.680 -1.9895 -0.5386  1.7080
 2034TIP3   OH2 6107   0.535   2.363   2.742  0.4671  0.3581 -0.3284
 2034TIP3    H1 6108   0.471   2.431   2.764  0.7820  0.5745 -0.0762
 2034TIP3    H2 6109   0.617   2.393   2.780  1.0117  0.6638 -1.7002
 2035TIP3   OH2 6110   5.732   2.715   2.715 -0.1315  0.6902 -0.1133
 2035TIP3    H1 6111   5.818   2.672   2.720  0.8656  2.5255 -0.5329
 2035TIP3    H2 6112   5.670   2.643   2.698  1.0828 -0.8839  1.6539
 2036TIP3   OH2 6113   0.363   4.811   2.863 -0.2784  0.3972  0.1433
 2036TIP3    H1 6114   0.312   4.755   2.921 -0.6911  0.2007 -0.3979
 2036TIP3    H2 6115   0.453   4.780   2.871 -0.4668 -0.1854  0.0240
 2037TIP3   OH2 6116   5.660   5.431   4.081  0.0820 -0.1491  0.1238
 2037TIP3    H1 6117   5.662   5.427   3.985  1.2112  1.0866  0.0644
 2037TIP3    H2 6118   5.731   5.492   4.104 -0.1830 -0.4062  1.7452
 2038TIP3   OH2 6119   4.925   0.839   1.348 -0.5354  0.3822  0.1678
 2038TIP3    H1 6120   4.891   0.917   1.392  0.3601  0.3406  0.9768
 2038TIP3    H2 6121   5.019   0.840   1.368 -0.6539 -1.3949  0.9677
 2039TIP3   OH2 6122   1.783   1.298   5.124  0.5430  0.0115  0.5740
 2039TIP3    H1 6123   1.850   1.345   5.174  0.0367  1.8561 -0.3583
 2039TIP3    H2 6124   1.806   1.315   5.032 -0.9788  0.4189  0.2367
 2040TIP3   OH2 6125   6.095   5.923   2.906  0.7526  0.2500  0.0460
 2040TIP3    H1 6126   6.127   5.875   2.829  1.2574 -0.5381  0.7423
 2040TIP3    H2 6127   6.025   5.869   2.942  0.4357  0.6773  0.0767
 2041TIP3   OH2 6128   4.552   3.073   2.540  0.5971 -0.2199 -0.0454
 2041TIP3    H1 6129   4.538   3.087   2.633  0.2518 -0.6670 -0.0272
 2041TIP3    H2 6130   4.465   3.084   2.501  1.0200  1.8230 -0.5672
 2042TIP3   OH2 6131   2.233   5.453   3.216 -0.1724 -0.0036  0.3494
 2042TIP3    H1 6132   2.262   5.528   3.164 -1.3292 -0.2725 -0.7441
 2042TIP3    H2 6133   2.162   5.488   3.270 -1.0943 -0.4096 -0.5713
 2043TIP3   OH2 6134   5.760   4.227   0.647 -0.2078 -0.2041 -0.1420
 2043TIP3    H1 6135   5.850   4.234   0.614 -0.3367 -0.0219 -0.4596
 2043TIP3    H2 6136   5.732   4.317   0.661 -0.5030 -0.2375 -0.4909
 2044TIP3   OH2 6137   4.492   1.808   3.377 -0.4185 -0.3631  0.4566
 2044TIP3    H1 6138   4.453   1.770   3.298 -0.7211 -0.0700  0.4615
 2044TIP3    H2 6139   4.583   1.826   3.353 -0.6932  0.3971 -0.0632
 2045TIP3   OH2 6140   0.467   5.380   3.953 -0.2355  0.4044  0.1258
 2045TIP3    H1 6141   0.412   5.305   3.931 -0.3523  0.2557  0.9069
 2045TIP3    H2 6142   0.456   5.440   3.880 -1.4913  0.4091  0.2986
 2046TIP3   OH2 6143   3.068   1.488   4.618 -0.5383  0.1560  0.7532
 2046TIP3    H1 6144   3.021   1.419   4.571 -1.2902  1.4933 -0.5270
 2046TIP3    H2 6145   3.000   1.552   4.641  0.1323  0.4569  1.9747
 2047TIP3   OH2 6146   1.505   1.320   0.552  0.0015 -0.3368 -0.3940
 2047TIP3    H1 6147   1.543   1.407   0.570 -0.5757 -0.0673 -0.4561
 2047TIP3    H2 6148   1.484   1.323   0.459 -0.3424 -0.4171 -0.3182
 2048TIP3   OH2 6149   0.549   4.577   4.860 -0.6205  0.5223  0.0757
 2048TIP3    H1 6150   0.551   4.570   4.764 -0.1517  1.7259 -0.0109
 2048TIP3    H2 6151   0.456   4.584   4.881 -0.7771 -0.4925 -0.2214
 2049TIP3   OH2 6152   5.882   4.944   3.335  0.2391  0.4431  0.3970
 2049TIP3    H1 6153   5.926   5.022   3.368  0.7416  0.0742  0.6178
 2049TIP3    H2 6154   5.793   4.950   3.369 -0.1085  1.5530 -0.6317
 2050TIP3   OH2 6155   4.681   0.555   2.491 -0.1251  0.2212  0.3757
 2050TIP3    H1 6156   4.644   0.470   2.514  0.4582  0.2100  1.2828
 2050TIP3    H2 6157   4.696   0.549   2.396  2.0565 -1.5574  0.7446
 2051TIP3   OH2 6158   4.099   0.142   2.091  0.2767  0.4100  0.4549
 2051TIP3    H1 6159   4.076   0.050   2.105  0.2141  0.3822  0.1700
 2051TIP3    H2 6160   4.122   0.147   1.998 -1.5443  1.0768  0.0084
 2052TIP3   OH2 6161   0.711   5.472   2.993 -0.0140 -0.3166  0.1296
 2052TIP3    H1 6162   0.726   5.428   3.076 -2.2874  2.0075  1.9318
 2052TIP3    H2 6163   0.759   5.555   3.001 -1.3259  0.5026 -0.2891
 2053TIP3   OH2 6164   1.503   5.772   0.465 -0.9291 -0.3056 -0.3683
 2053TIP3    H1 6165   1.443   5.845   0.484 -2.1052 -2.0946  3.7594
 2053TIP3    H2 6166   1.448   5.694   0.470  1.2071 -1.8385  0.6232
 2054TIP3   OH2 6167   5.912   1.212   3.249  0.0495  0.7696 -0.0397
 2054TIP3    H1 6168   5.897   1.217   3.343 -0.9407  0.0243 -0.1408
 2054TIP3    H2 6169   5.827   1.230   3.210  0.1274 -0.2484 -0.7379
 2055TIP3   OH2 6170   2.012   2.391   3.340 -0.3900 -0.3956  0.0431
 2055TIP3    H1 6171   2.042   2.397   3.249 -0.6799  0.7073  0.0046
 2055TIP3    H2 6172   2.027   2.300   3.364  0.8602 -0.4125 -0.7011
 2056TIP3   OH2 6173   3.089   5.225   0.621  0.2274  0.1735  0.0521
 2056TIP3    H1 6174   3.033   5.161   0.665  0.1836 -0.8605 -1.4314
 2056TIP3    H2 6175   3.178   5.194   0.638  0.6770  2.8494  4.0410
 2057TIP3   OH2 6176   1.174   5.030   4.484 -0.0949  0.3949  0.4818
 2057TIP3    H1 6177   1.166   4.967   4.556  2.7027  0.1878  0.7184
 2057TIP3    H2 6178   1.228   5.100   4.519 -1.3910  1.9318 -0.4613
 2058TIP3   OH2 6179   0.783   1.111   2.904  0.2945  0.2726 -0.5114
 2058TIP3    H1 6180   0.877   1.104   2.922  0.7370  2.2011 -1.6959
 2058TIP3    H2 6181   0.776   1.100   2.809 -0.2610  2.7802 -0.8444
 2059TIP3   OH2 6182   1.913   3.761   2.587 -0.1255  0.4572  0.0276
 2059TIP3    H1 6183   1.997   3.768   2.631 -0.3695 -2.0521  1.0538
 2059TIP3    H2 6184   1.866   3.693   2.634 -1.6875 -0.1118 -2.1565
 2060TIP3   OH2 6185   6.199   5.175   2.840 -0.1626 -0.2207  0.3054
 2060TIP3    H1 6186   6.193   5.206   2.930  0.2867  0.8285 -0.0033
 2060TIP3    H2 6187   6.202   5.255   2.787 -0.7497 -0.8136 -0.6659
 2061TIP3   OH2 6188   2.078   2.299   2.358  0.2769  0.5436  0.7415
 2061TIP3    H1 6189   2.071   2.205   2.376  2.5241  0.0353 -0.5416
 2061TIP3    H2 6190   2.093   2.304   2.264  0.3787  2.1784  0.8161
 2062TIP3   OH2 6191   5.751   5.252   0.304 -0.0288 -0.1753  0.4860
 2062TIP3    H1 6192   5.693   5.230   0.231  1.2523 -0.5218 -0.4765
 2062TIP3    H2 6193   5.715   5.204   0.378  0.2425 -2.1573 -0.5876
 2063TIP3   OH2 6194   0.376   1.179   4.865  0.0615  0.4557 -0.2275
 2063TIP3    H1 6195   0.448   1.242   4.872  2.7044 -2.2179 -0.9581
 2063TIP3    H2 6196   0.397   1.127   4.788 -1.7478 -1.5578  0.5385
 2064TIP3   OH2 6197   3.329   3.169   0.473 -0.3945  0.4932 -0.3153
 2064TIP3    H1 6198   3.349   3.083   0.509 -0.2840  0.3132 -0.8003
 2064TIP3    H2 6199   3.395   3.183   0.405 -2.3375 -0.4741 -2.5441
 2065TIP3   OH2 6200   0.638   4.778   1.177 -0.0762 -0.0024  0.0907
 2065TIP3    H1 6201   0.545   4.770   1.153 -0.0048 -5.5274  0.5201
 2065TIP3    H2 6202   0.685   4.762   1.095  0.3037 -2.5436  0.7232
 2066TIP3   OH2 6203   2.860   2.388   4.530 -0.2802 -0.2350  0.5687
 2066TIP3    H1 6204   2.867   2.331   4.606 -1.9410  1.0443  1.7640
 2066TIP3    H2 6205   2.767   2.389   4.509 -0.1184  1.0185 -0.2202
 2067TIP3   OH2 6206   5.464   0.098   0.065 -0.5608  0.3853 -0.2062
 2067TIP3    H1 6207   5.479   0.154  -0.011 -3.0214 -0.1715 -1.2122
 2067TIP3    H2 6208   5.510   0.017   0.044  0.6930  1.0216 -0.0096
 2068TIP3   OH2 6209   2.207   5.208   1.041 -0.1816  0.1619  0.2108
 2068TIP3    H1 6210   2.192   5.120   1.075  1.7170 -0.2884  0.0226
 2068TIP3    H2 6211   2.281   5.198   0.980 -0.0112  1.8540  0.0800
 2069TIP3   OH2 6212   3.158   0.079   1.412  0.0201 -0.1684  0.1119
 2069TIP3    H1 6213   3.161   0.166   1.372 -0.3923 -1.0691 -2.0232
 2069TIP3    H2 6214   3.248   0.060   1.436  0.0084  1.1038  1.2459
 2070TIP3   OH2 6215   1.792   4.265   1.387 -0.0617  0.2729  0.2693
 2070TIP3    H1 6216   1.722   4.204   1.363  0.8600 -0.6341 -0.1788
 2070TIP3    H2 6217   1.812   4.244   1.479  0.3371 -0.2010  0.0796
 2071TIP3   OH2 6218   1.247   4.123   0.828 -0.3643 -0.4059 -0.0718
 2071TIP3    H1 6219   1.182   4.071   0.780  0.8595 -1.4745 -0.6344
 2071TIP3    H2 6220   1.207   4.209   0.836 -1.7263 -0.9509 -0.6572
 2072TIP3   OH2 6221   5.286   1.123   1.228  0.2350  0.4062  0.0957
 2072TIP3    H1 6222   5.349   1.158   1.291  0.9684  1.9560 -1.4361
 2072TIP3    H2 6223   5.208   1.179   1.239 -0.4506 -0.6804  1.0670
 2073TIP3   OH2 6224   4.064   2.869   1.516 -0.9093 -0.5391  0.2560
 2073TIP3    H1 6225   3.986   2.913   1.480  0.1082  0.8466 -0.3308
 2073TIP3    H2 6226   4.069   2.787   1.468 -1.9944 -0.6304  0.2784
 2074TIP3   OH2 6227   2.910   0.813   2.788 -0.1296  0.0712 -0.0190
 2074TIP3    H1 6228   2.840   0.753   2.763 -0.5942  0.6958 -0.2506
 2074TIP3    H2 6229   2.921   0.871   2.713 -0.3969  0.9157  0.5768
 2075TIP3   OH2 6230   6.119   1.328   4.618  0.0478  0.3159 -0.5952
 2075TIP3    H1 6231   6.077   1.413   4.603  1.1702  1.0100  0.0537
 2075TIP3    H2 6232   6.161   1.308   4.534  0.7292  0.9558 -0.4134
 2076TIP3   OH2 6233   0.096   3.231   0.038  0.6940  0.3689 -0.2450
 2076TIP3    H1 6234   0.054   3.317   0.035 -0.0452  0.0009 -0.7851
 2076TIP3    H2 6235   0.181   3.244  -0.003  0.9274  1.0289  0.4450
 2077TIP3   OH2 6236   2.890   4.928   4.235  0.1920 -0.4031  0.2511
 2077TIP3    H1 6237   2.881   4.855   4.298  2.7503  0.3143  1.6015
 2077TIP3    H2 6238   2.841   5.000   4.275 -0.7962 -0.8065 -0.1822
 2078TIP3   OH2 6239   2.165   2.085   1.313  0.0659 -0.3877 -0.2694
 2078TIP3    H1 6240   2.176   2.127   1.227 -1.6670  2.4841  0.7561
 2078TIP3    H2 6241   2.080   2.041   1.307 -1.2239  1.8337  0.6027
 2079TIP3   OH2 6242   1.248   0.580   1.914 -0.1764 -0.4437  0.2681
 2079TIP3    H1 6243   1.221   0.488   1.906  0.1512 -0.8933  3.3188
 2079TIP3    H2 6244   1.342   0.576   1.933  0.1640  0.6493 -1.0071
 2080TIP3   OH2 6245   2.217   0.602   4.111 -0.1170 -0.0447  0.0153
 2080TIP3    H1 6246   2.277   0.533   4.082 -0.6587  0.0777 -1.4935
 2080TIP3    H2 6247   2.166   0.561   4.181  1.1091 -0.4231  0.7307
 2081TIP3   OH2 6248   0.809  -0.036   2.816 -0.3077 -0.1134 -0.0124
 2081TIP3    H1 6249   0.804   0.032   2.883 -0.6362 -0.1992  0.0489
 2081TIP3    H2 6250   0.786   0.010   2.735  2.3624  0.5731 -0.4959
 2082TIP3   OH2 6251   5.533   2.875   4.594  0.1315  0.1876 -0.0466
 2082TIP3    H1 6252   5.445   2.838   4.593 -0.0770  0.6435 -1.4868
 2082TIP3    H2 6253   5.576   2.834   4.669 -1.5373  0.5435  1.1587
 2083TIP3   OH2 6254   5.116   0.116   2.165  0.0878 -0.2621 -0.3167
 2083TIP3    H1 6255   5.104   0.132   2.259 -1.1192 -1.0239 -0.3141
 2083TIP3    H2 6256   5.182   0.180   2.138 -0.0084  0.4011  0.9221
 2084TIP3   OH2 6257   2.239   4.764   4.184  0.6373 -0.2018  0.0278
 2084TIP3    H1 6258   2.145   4.752   4.183  0.6269 -0.4186 -2.2016
 2084TIP3    H2 6259   2.252   4.855   4.213 -0.2969  0.0130 -0.1992
 2085TIP3   OH2 6260   3.339   2.336   5.006  0.0155 -0.5857 -0.6188
 2085TIP3    H1 6261   3.396   2.386   4.948  1.4953 -1.2274  0.2090
 2085TIP3    H2 6262   3.370   2.246   4.999  0.1515 -0.7084  1.0187
 2086TIP3   OH2 6263   0.731   0.259   5.116 -0.7999  0.1502 -0.3556
 2086TIP3    H1 6264   0.680   0.190   5.158 -0.4020  0.0622 -0.0026
 2086TIP3    H2 6265   0.712   0.250   5.023 -1.7671  0.4031 -0.1955
 2087TIP3   OH2 6266   0.147   0.494   3.581 -0.1101 -0.0174 -0.3589
 2087TIP3    H1 6267   0.121   0.531   3.497 -2.3847  0.7784  0.6285
 2087TIP3    H2 6268   0.078   0.431   3.601 -0.3707  0.8315  1.5486
 2088TIP3   OH2 6269   4.539   3.488   0.106 -0.2423  0.4454 -0.2062
 2088TIP3    H1 6270   4.622   3.459   0.069  0.9372  0.8029  1.9954
 2088TIP3    H2 6271   4.531   3.580   0.078 -0.3395  0.1785 -1.0976
 2089TIP3   OH2 6272   0.413   0.698   1.158  0.0034 -0.1006 -0.7100
 2089TIP3    H1 6273   0.329   0.670   1.121 -0.8691  1.2853  0.1268
 2089TIP3    H2 6274   0.400   0.791   1.179  2.1795  0.5193 -1.7812
 2090TIP3   OH2 6275   3.032   1.495   3.272 -0.1729  0.2285 -0.5586
 2090TIP3    H1 6276   3.053   1.517   3.181  1.8143 -1.6945 -0.6446
 2090TIP3    H2 6277   3.111   1.514   3.321  0.4603 -3.0437 -0.0819
 2091TIP3   OH2 6278   6.211   4.981   1.159 -0.1042  0.4621  0.1129
 2091TIP3    H1 6279   6.194   5.070   1.129  1.8062  0.3337 -1.5565
 2091TIP3    H2 6280   6.151   4.927   1.108  0.3188  0.6134 -0.5598
 2092TIP3   OH2 6281   1.696   5.729   2.427  0.2868  0.4326  0.6648
 2092TIP3    H1 6282   1.708   5.635   2.440  0.0512  0.4045  0.6845
 2092TIP3    H2 6283   1.688   5.764   2.515  0.5078  0.4886  0.6620
 2093TIP3   OH2 6284   1.280   3.932   1.127  0.4300  0.0606 -0.2955
 2093TIP3    H1 6285   1.248   3.871   1.193 -0.9033 -0.1461 -1.1063
 2093TIP3    H2 6286   1.292   3.879   1.048 -0.0154  0.6919 -0.7966
 2094TIP3   OH2 6287   2.922   4.238   1.674  0.2625  0.0958  0.5297
 2094TIP3    H1 6288   2.937   4.240   1.579  0.9300 -1.1593  0.5878
 2094TIP3    H2 6289   2.828   4.224   1.683  0.1773  0.3327  0.0650
 2095TIP3   OH2 6290   1.530   3.665   4.002  0.5310  0.3220  0.2970
 2095TIP3    H1 6291   1.484   3.609   4.064 -0.6973  0.2346 -0.6554
 2095TIP3    H2 6292   1.461   3.708   3.952  1.4542 -0.7351 -2.0265
 2096TIP3   OH2 6293   1.958   0.962   4.920  0.0626 -0.3635 -0.2903
 2096TIP3    H1 6294   1.997   0.885   4.962  1.2053  0.1141 -0.4373
 2096TIP3    H2 6295   2.026   1.030   4.926 -0.4992  0.3020 -1.1593
 2097TIP3   OH2 6296   0.934   3.095   5.008 -0.1221  0.1323 -0.0221
 2097TIP3    H1 6297   0.927   3.059   5.096 -1.8907  1.0493  0.2531
 2097TIP3    H2 6298   0.862   3.054   4.959 -1.0914  1.9003 -0.1657
 2098TIP3   OH2 6299   2.631   3.307   0.985 -0.1517 -0.2945  0.1943
 2098TIP3    H1 6300   2.591   3.315   1.072  0.0364  0.5328  0.2093
 2098TIP3    H2 6301   2.720   3.275   1.002  0.6497  1.9104  0.5061
 2099TIP3   OH2 6302   4.576   2.537   4.009  0.3434  0.4023 -0.2155
 2099TIP3    H1 6303   4.562   2.629   3.986  2.4872  0.6241 -0.8650
 2099TIP3    H2 6304   4.587   2.492   3.925  0.5307 -0.2167  0.1334
 2100TIP3   OH2 6305   5.044   2.249   3.193  0.3895 -0.5297  0.1176
 2100TIP3    H1 6306   5.135   2.238   3.167  0.6587 -0.6803  1.1075
 2100TIP3    H2 6307   4.997   2.184   3.140  1.0416 -1.4056  0.5763
 2101TIP3   OH2 6308   1.875   4.039   0.124  0.2719 -0.0650  0.2129
 2101TIP3    H1 6309   1.876   4.050   0.029  0.7031  0.5402  0.2808
 2101TIP3    H2 6310   1.827   3.957   0.139 -0.2858  0.1297 -0.4946
 2102TIP3   OH2 6311   1.418   4.036   4.329  0.3812 -0.1728 -0.1102
 2102TIP3    H1 6312   1.369   3.956   4.310  1.1856 -0.9320  0.8925
 2102TIP3    H2 6313   1.375   4.074   4.405  0.0606  0.3224 -0.5263
 2103TIP3   OH2 6314   5.664   0.625   1.653  0.4184 -0.3372  0.4745
 2103TIP3    H1 6315   5.582   0.626   1.602 -0.4484 -0.3781  1.8105
 2103TIP3    H2 6316   5.714   0.699   1.619 -0.0795 -0.4347 -0.5061
 2104TIP3   OH2 6317   4.435   0.031   4.961 -0.3780  0.2590 -0.0262
 2104TIP3    H1 6318   4.453   0.125   4.957  2.5982 -0.2357 -0.1414
 2104TIP3    H2 6319   4.520  -0.009   4.977 -1.0972 -2.6290 -2.5405
 2105TIP3   OH2 6320   3.838   5.327   4.625 -0.7345 -0.3111  0.2309
 2105TIP3    H1 6321   3.753   5.285   4.639 -0.6144 -0.9338 -0.7902
 2105TIP3    H2 6322   3.816   5.408   4.578 -0.7235 -0.7749 -0.5860
 2106TIP3   OH2 6323   5.242   2.004   3.142  0.3745  0.3345  0.0922
 2106TIP3    H1 6324   5.272   1.933   3.085  1.9343 -0.3113  1.6232
 2106TIP3    H2 6325   5.147   1.994   3.146  0.6372 -2.3532  1.1127
 2107TIP3   OH2 6326   5.850   1.454   3.610  0.2117 -0.4199 -0.1421
 2107TIP3    H1 6327   5.787   1.469   3.681  0.8304  0.1579  0.3005
 2107TIP3    H2 6328   5.873   1.542   3.579  1.9165 -0.5134  0.7161
 2108TIP3   OH2 6329   5.925   0.246   3.187 -0.2540  0.2263  0.0262
 2108TIP3    H1 6330   5.854   0.223   3.128 -0.8366  0.0578  0.7673
 2108TIP3    H2 6331   5.903   0.334   3.219 -1.0035 -0.4607  1.4925
 2109TIP3   OH2 6332   5.054   3.607   1.375 -0.0564 -0.3702  0.0082
 2109TIP3    H1 6333   5.140   3.648   1.384  0.1290 -0.7971  0.1932
 2109TIP3    H2 6334   5.044   3.593   1.281 -0.3015  0.4787 -0.1010
 2110TIP3   OH2 6335   0.552   1.024   2.395 -0.1603 -0.5965 -0.0386
 2110TIP3    H1 6336   0.558   1.082   2.471  1.8859 -0.8861  0.0697
 2110TIP3    H2 6337   0.503   0.948   2.426  1.9656 -1.4267  1.5136
 2111TIP3   OH2 6338   2.125   4.019   4.364 -0.0318 -0.1455 -0.5288
 2111TIP3    H1 6339   2.128   4.061   4.451  1.0539 -1.5542  0.1579
 2111TIP3    H2 6340   2.034   4.026   4.337  0.0993  2.7411 -0.5300
 2112TIP3   OH2 6341   3.400   3.105   2.612 -0.5811 -0.2792 -0.1055
 2112TIP3    H1 6342   3.318   3.063   2.637  0.0289 -1.3940  0.0786
 2112TIP3    H2 6343   3.467   3.040   2.630  0.5854  1.3107  1.6606
 2113TIP3   OH2 6344   3.015   5.851   3.921  0.4489 -0.1987  0.6108
 2113TIP3    H1 6345   3.056   5.785   3.978  0.8049 -0.2778  0.2700
 2113TIP3    H2 6346   2.948   5.802   3.873  1.8232 -0.7366 -0.8819
 2114TIP3   OH2 6347   1.236   1.257   0.083  0.6280 -0.3451  0.1650
 2114TIP3    H1 6348   1.287   1.178   0.066  2.5055  1.1343 -1.5739
 2114TIP3    H2 6349   1.174   1.262   0.010  0.3321 -0.3238  0.4132
 2115TIP3   OH2 6350   0.266   5.680   0.445  0.1039  0.1977 -0.6232
 2115TIP3    H1 6351   0.295   5.756   0.394 -0.9536 -0.4830 -2.3158
 2115TIP3    H2 6352   0.229   5.620   0.380  1.0782 -1.8761  0.6425
 2116TIP3   OH2 6353   1.366   3.287   1.037  0.0549  0.0155 -0.5217
 2116TIP3    H1 6354   1.359   3.377   1.069  0.8448 -0.0263 -0.2084
 2116TIP3    H2 6355   1.449   3.285   0.990  1.4716 -1.2564  1.8664
 2117TIP3   OH2 6356   5.925   1.045   4.601  0.0142  0.2317 -0.1025
 2117TIP3    H1 6357   5.888   1.094   4.674  0.9628  1.6740 -0.5350
 2117TIP3    H2 6358   5.991   0.988   4.640  0.1433  0.6075  0.2289
 2118TIP3   OH2 6359   4.002   0.975   0.651  0.1940  0.6161  0.5002
 2118TIP3    H1 6360   3.921   0.997   0.606  0.0705  0.5068  0.6681
 2118TIP3    H2 6361   4.025   0.888   0.619  1.3148  1.4477 -1.0613
 2119TIP3   OH2 6362   3.598   0.667   4.398 -0.2112  0.4908  0.1422
 2119TIP3    H1 6363   3.635   0.754   4.407  0.9250 -0.0290  0.7377
 2119TIP3    H2 6364   3.592   0.634   4.488  1.8768 -1.0321 -0.2002
 2120TIP3   OH2 6365   3.473   1.421   4.921  0.1305  1.0351 -0.1975
 2120TIP3    H1 6366   3.380   1.410   4.901  0.2524  1.2239 -0.9065
 2120TIP3    H2 6367   3.475   1.487   4.990 -0.3251  0.1595  0.6861
 2121TIP3   OH2 6368   5.434   4.446   2.964  0.0920 -0.0963  0.6029
 2121TIP3    H1 6369   5.343   4.475   2.971 -0.2876 -1.6570  3.3284
 2121TIP3    H2 6370   5.428   4.354   2.936  0.7629 -0.4398  1.5338
 2122TIP3   OH2 6371   3.795   5.674   2.468  0.0412 -1.0376 -0.0432
 2122TIP3    H1 6372   3.815   5.643   2.379  0.3607 -0.9105 -0.0173
 2122TIP3    H2 6373   3.745   5.755   2.455  0.4990 -0.7621 -0.1083
 2123TIP3   OH2 6374   2.133   1.816   3.686 -0.2574 -0.7568 -0.1264
 2123TIP3    H1 6375   2.101   1.785   3.771  0.3471 -1.4384 -0.1407
 2123TIP3    H2 6376   2.202   1.878   3.707 -0.8879 -0.0345 -0.1148
 2124TIP3   OH2 6377   4.016   1.186   2.248  0.0627 -0.4595 -0.1380
 2124TIP3    H1 6378   4.012   1.213   2.156 -0.3347  0.1188  0.0443
 2124TIP3    H2 6379   4.104   1.150   2.259 -0.1400 -1.2405 -0.9364
 2125TIP3   OH2 6380   6.114   3.161   0.021 -0.1225  0.4373  0.0418
 2125TIP3    H1 6381   6.161   3.094  -0.028 -0.4924  0.7027 -0.6979
 2125TIP3    H2 6382   6.181   3.224   0.047 -0.0615  0.8920 -1.1325
 2126TIP3   OH2 6383   1.062   4.805   1.601  0.5383 -0.0012 -0.3369
 2126TIP3    H1 6384   1.030   4.717   1.618 -1.0755 -0.2310 -3.7026
 2126TIP3    H2 6385   1.114   4.827   1.678 -0.1052 -3.3284  1.2290
 2127TIP3   OH2 6386   2.275   2.982   3.432  0.0330  0.2593 -0.3674
 2127TIP3    H1 6387   2.187   3.020   3.437  0.8650  2.2623 -0.2536
 2127TIP3    H2 6388   2.294   2.953   3.521  0.6998  2.7562  0.3561
 2128TIP3   OH2 6389   5.118   0.659   1.140  0.1320  0.0172  0.0615
 2128TIP3    H1 6390   5.058   0.693   1.074 -0.1705  0.0531  0.3511
 2128TIP3    H2 6391   5.204   0.660   1.097 -0.2483 -1.1899 -0.7707
 2129TIP3   OH2 6392   5.002   4.908   3.027  0.0162 -0.2804  0.0410
 2129TIP3    H1 6393   4.956   4.887   3.108  0.0038 -3.5458 -0.6413
 2129TIP3    H2 6394   5.036   4.996   3.040 -1.7085  0.1057  2.7429
 2130TIP3   OH2 6395   5.324   3.037   3.392 -0.2864 -0.6112 -0.3454
 2130TIP3    H1 6396   5.284   3.114   3.431  0.6614 -1.5062  2.7148
 2130TIP3    H2 6397   5.418   3.057   3.389  0.0996 -1.8641  1.3736
 2131TIP3   OH2 6398   5.895   3.372   1.521 -0.7762 -0.1467  0.2419
 2131TIP3    H1 6399   5.948   3.367   1.600 -0.7563  0.0073  0.2397
 2131TIP3    H2 6400   5.872   3.465   1.514  2.1667  0.5666 -1.8373
 2132TIP3   OH2 6401   5.904   3.465   0.973  0.3990  0.4563 -0.2930
 2132TIP3    H1 6402   5.875   3.554   0.956 -0.2707  0.2184 -0.4067
 2132TIP3    H2 6403   5.951   3.470   1.056 -0.9227  0.6519  0.4657
 2133TIP3   OH2 6404   2.054   3.530   1.397  0.4511 -0.4396  0.2833
 2133TIP3    H1 6405   2.122   3.514   1.463  0.7567 -1.7835 -0.3384
 2133TIP3    H2 6406   2.032   3.443   1.364 -1.6297 -0.0403  0.5120
 2134TIP3   OH2 6407   0.384   3.378   1.327  0.0840  0.1436 -0.0067
 2134TIP3    H1 6408   0.361   3.437   1.256  0.1419 -1.3069 -1.2852
 2134TIP3    H2 6409   0.327   3.302   1.315  0.9351 -0.6520  0.7743
 2135TIP3   OH2 6410   2.492   1.082   3.952  0.3913  0.0176 -0.2293
 2135TIP3    H1 6411   2.475   0.988   3.960  1.6671 -0.0954  2.2411
 2135TIP3    H2 6412   2.468   1.117   4.038  1.7910  1.6072 -0.4465
 2136TIP3   OH2 6413   4.210   1.307   4.765  0.4405  0.4870 -0.4131
 2136TIP3    H1 6414   4.275   1.338   4.703 -0.2499  0.1619 -1.3234
 2136TIP3    H2 6415   4.215   1.369   4.838 -0.1948  2.1655 -1.7315
 2137TIP3   OH2 6416   4.832   3.080   4.631  0.1704 -0.0591 -0.1317
 2137TIP3    H1 6417   4.791   3.124   4.556  1.5612  0.2554 -0.7362
 2137TIP3    H2 6418   4.922   3.064   4.603  0.2785 -1.3769  0.8953
 2138TIP3   OH2 6419   5.166   4.404   0.907  0.3279  0.2232 -0.3616
 2138TIP3    H1 6420   5.204   4.491   0.899  0.9073  0.2231  1.8982
 2138TIP3    H2 6421   5.096   4.413   0.971 -0.4447 -0.7319 -1.0444
 2139TIP3   OH2 6422   1.538   3.340   1.456 -0.5859 -0.0631  0.7961
 2139TIP3    H1 6423   1.471   3.328   1.523  0.5171  0.1200  1.9661
 2139TIP3    H2 6424   1.621   3.322   1.501  0.4030  2.4032  0.1424
 2140TIP3   OH2 6425   2.623   4.011   4.697 -0.1560 -0.3828 -0.2650
 2140TIP3    H1 6426   2.601   4.014   4.604 -0.0895  1.0579 -0.2620
 2140TIP3    H2 6427   2.542   3.984   4.740 -0.6842  0.5771 -0.6217
 2141TIP3   OH2 6428   2.684   3.328   4.864  0.1763 -0.0586  0.0062
 2141TIP3    H1 6429   2.635   3.265   4.812 -0.2719  0.9611 -0.8354
 2141TIP3    H2 6430   2.749   3.364   4.804 -0.1465  0.9107  0.2164
 2142TIP3   OH2 6431   3.873   5.980   0.433 -0.4760  0.3163  0.1636
 2142TIP3    H1 6432   3.902   5.904   0.382 -2.1230 -1.2928  1.4907
 2142TIP3    H2 6433   3.805   5.945   0.492  0.8342  2.1884  2.9881
 2143TIP3   OH2 6434   5.370   4.314   3.961  0.2598 -0.2195 -0.2845
 2143TIP3    H1 6435   5.295   4.346   3.912  0.8058  0.8507 -0.4328
 2143TIP3    H2 6436   5.370   4.219   3.945 -0.6126 -0.1285 -0.8796
 2144TIP3   OH2 6437   5.852   1.138   3.851 -0.0625  0.0426  0.0503
 2144TIP3    H1 6438   5.795   1.084   3.906 -1.3529 -0.0663 -1.3268
 2144TIP3    H2 6439   5.881   1.080   3.781 -0.8319  0.8783 -1.0132
 2145TIP3   OH2 6440   0.344   0.305   4.559  0.5128  0.3087 -0.5715
 2145TIP3    H1 6441   0.258   0.314   4.518  0.5982  2.4244 -0.3948
 2145TIP3    H2 6442   0.330   0.243   4.631 -1.2354  1.6913  0.3481
 2146TIP3   OH2 6443   0.465   5.270   0.337 -0.4424  0.1813  0.1283
 2146TIP3    H1 6444   0.557   5.292   0.319 -0.0535 -1.3165  0.1662
 2146TIP3    H2 6445   0.456   5.283   0.432  0.4850 -2.1006  0.5982
 2147TIP3   OH2 6446   0.643   5.804   3.193 -0.9121  0.4310 -0.0042
 2147TIP3    H1 6447   0.583   5.834   3.124 -2.8651 -0.7425  1.0814
 2147TIP3    H2 6448   0.689   5.730   3.153 -0.8972  0.7309 -0.5543
 2148TIP3   OH2 6449   3.030   0.896   4.638 -0.0577 -0.1825 -0.4690
 2148TIP3    H1 6450   2.973   0.910   4.562  0.4297 -0.6391 -0.9318
 2148TIP3    H2 6451   2.970   0.873   4.709 -0.6783  1.8289 -0.2692
 2149TIP3   OH2 6452   3.819   0.473   4.347 -0.2793  0.0730 -0.2286
 2149TIP3    H1 6453   3.783   0.496   4.432  0.3662 -0.4371  0.1960
 2149TIP3    H2 6454   3.858   0.554   4.314  0.2569  0.0633  0.3680
 2150TIP3   OH2 6455   5.716   0.127   0.287  0.5653 -0.0840  0.3607
 2150TIP3    H1 6456   5.748   0.084   0.367  1.3357  0.7454  0.5266
 2150TIP3    H2 6457   5.759   0.213   0.288  0.5769 -0.0559 -0.9481
 2151TIP3   OH2 6458   0.934   3.211   3.413 -0.4830  1.1163  0.3823
 2151TIP3    H1 6459   0.860   3.181   3.467 -0.0020  1.3933  1.2123
 2151TIP3    H2 6460   0.902   3.289   3.370 -0.8732  0.9004  0.2785
 2152TIP3   OH2 6461   5.808   0.376   1.501  0.2776 -0.5264 -0.0882
 2152TIP3    H1 6462   5.729   0.366   1.554 -0.2572 -0.3107 -0.8213
 2152TIP3    H2 6463   5.870   0.421   1.558 -0.0479 -0.8858  0.5676
 2153TIP3   OH2 6464   0.639   3.262   4.032  0.2332  0.2458  0.2954
 2153TIP3    H1 6465   0.580   3.199   3.992 -1.9412  2.3372  0.0094
 2153TIP3    H2 6466   0.699   3.287   3.962 -0.3717  0.1922 -0.2499
 2154TIP3   OH2 6467   3.744   1.686   3.861 -0.3405  0.4604  0.0750
 2154TIP3    H1 6468   3.677   1.736   3.907 -1.5491 -1.0334  0.0012
 2154TIP3    H2 6469   3.792   1.752   3.811 -1.3195  1.6485  0.6411
 2155TIP3   OH2 6470   1.256   0.955   4.719 -0.3724 -0.0175 -0.1469
 2155TIP3    H1 6471   1.314   0.993   4.785 -0.7448 -1.6913  1.2308
 2155TIP3    H2 6472   1.206   1.029   4.685  0.1297  0.9564  1.1556
 2156TIP3   OH2 6473   1.773   0.586   1.593  0.1499 -0.7288 -0.4253
 2156TIP3    H1 6474   1.827   0.509   1.571  1.4340 -0.7027  2.2726
 2156TIP3    H2 6475   1.769   0.585   1.688 -2.0536  1.1016 -0.4412
 2157TIP3   OH2 6476   2.841   1.978   0.525 -0.4215 -0.1137  0.3567
 2157TIP3    H1 6477   2.832   2.069   0.495 -1.2272 -0.0036  0.9100
 2157TIP3    H2 6478   2.918   1.945   0.479 -0.9921  0.3885 -0.9906
 2158TIP3   OH2 6479   5.070   3.065   0.359 -0.1011  0.1491  0.0381
 2158TIP3    H1 6480   5.115   3.013   0.292  2.4025  0.0420  1.6377
 2158TIP3    H2 6481   5.126   3.142   0.371  1.2610 -1.1675  3.8762
 2159TIP3   OH2 6482   1.282   3.020   2.910 -0.0373 -0.1380  0.1122
 2159TIP3    H1 6483   1.304   3.047   2.999 -0.5179  0.1196  0.1616
 2159TIP3    H2 6484   1.354   3.052   2.856  1.1444 -1.8538  0.6321
 2160TIP3   OH2 6485   2.495   5.639   0.879  0.3020 -0.0236  0.0895
 2160TIP3    H1 6486   2.494   5.544   0.878 -1.0479 -0.0886  2.1626
 2160TIP3    H2 6487   2.418   5.665   0.829  0.4740 -0.0156 -0.1750
 2161TIP3   OH2 6488   0.515   3.698   3.479 -0.7668 -0.2165  0.5803
 2161TIP3    H1 6489   0.608   3.679   3.496 -0.7810  1.1532  2.4436
 2161TIP3    H2 6490   0.474   3.611   3.472  0.2782 -0.8513  1.9820
 2162TIP3   OH2 6491   3.715   3.760   3.249 -0.1384  0.0909 -0.5108
 2162TIP3    H1 6492   3.633   3.793   3.212 -0.5698 -1.7225 -1.2546
 2162TIP3    H2 6493   3.695   3.745   3.342 -0.4674  0.1760 -0.5677
 2163TIP3   OH2 6494   3.574   5.202   0.202 -0.1598  0.8569  0.6244
 2163TIP3    H1 6495   3.515   5.217   0.276 -1.1015 -1.4313  0.3923
 2163TIP3    H2 6496   3.618   5.120   0.223  2.2017  1.9404  0.2614
 2164TIP3   OH2 6497   2.771   3.329   0.533  0.0795  0.2293 -0.1328
 2164TIP3    H1 6498   2.695   3.298   0.484 -1.4026 -1.5257  2.9108
 2164TIP3    H2 6499   2.831   3.254   0.532  0.3696  0.4616  0.0162
 2165TIP3   OH2 6500   1.614   0.758   2.430  0.6016  0.5880 -0.1530
 2165TIP3    H1 6501   1.668   0.821   2.477  0.0830  0.3808  0.7570
 2165TIP3    H2 6502   1.664   0.677   2.432  0.2740  0.3861  0.7225
 2166TIP3   OH2 6503   0.030   1.410   3.813 -0.1124 -0.7540  0.3058
 2166TIP3    H1 6504   0.089   1.478   3.780  2.3675 -2.2176  1.4201
 2166TIP3    H2 6505  -0.057   1.451   3.813  1.0190  1.8593 -0.4856
 2167TIP3   OH2 6506   2.594   4.540   1.767  0.1300 -0.0215  0.2575
 2167TIP3    H1 6507   2.544   4.528   1.847 -1.6286 -0.2578 -0.8118
 2167TIP3    H2 6508   2.545   4.490   1.701  0.3187  1.8797 -1.4041
 2168TIP3   OH2 6509   3.691   0.508   1.800 -0.7903 -0.0190 -0.0225
 2168TIP3    H1 6510   3.675   0.596   1.767 -0.9677  0.2659  0.8043
 2168TIP3    H2 6511   3.605   0.477   1.830 -1.3273 -1.5565 -2.7868
 2169TIP3   OH2 6512   1.351   5.154   0.081 -0.3184  0.1408 -0.1115
 2169TIP3    H1 6513   1.318   5.188  -0.003 -0.1554 -0.8652 -0.5967
 2169TIP3    H2 6514   1.347   5.059   0.071  0.7702  0.0070  0.5968
 2170TIP3   OH2 6515   3.834   4.939   2.379  0.0202 -0.2498 -0.9183
 2170TIP3    H1 6516   3.851   4.878   2.451  0.8728  0.2065 -0.7223
 2170TIP3    H2 6517   3.783   5.010   2.419  0.1177 -0.2099 -0.8659
 2171TIP3   OH2 6518   6.059   5.421   1.180 -0.2578  0.4918 -0.0467
 2171TIP3    H1 6519   6.124   5.458   1.241  0.0696 -0.1263 -0.0123
 2171TIP3    H2 6520   5.985   5.480   1.186 -0.4974  0.0976  1.4632
 2172TIP3   OH2 6521   3.747   2.553   2.665  0.0722 -0.4042  0.2862
 2172TIP3    H1 6522   3.762   2.475   2.612  0.4006  0.0787 -0.3509
 2172TIP3    H2 6523   3.660   2.584   2.639  0.7312  0.5295 -0.9096
 2173TIP3   OH2 6524   4.926   2.963   2.292  0.1503 -0.2179  0.4362
 2173TIP3    H1 6525   4.996   2.900   2.274  0.2236  0.1151 -0.5077
 2173TIP3    H2 6526   4.874   2.921   2.360 -0.6011 -1.9676 -1.1182
 2174TIP3   OH2 6527   5.273   1.623   4.063 -0.6070  0.8634  0.0672
 2174TIP3    H1 6528   5.201   1.673   4.102 -0.2878  1.8665 -0.5815
 2174TIP3    H2 6529   5.352   1.669   4.091 -0.3888  2.0141 -2.2327
 2175TIP3   OH2 6530   5.157   2.965   2.982  0.3891 -0.6462 -0.2937
 2175TIP3    H1 6531   5.124   2.938   3.068 -1.0359 -0.4841 -0.7671
 2175TIP3    H2 6532   5.141   2.889   2.926 -1.7507  0.3662 -1.1552
 2176TIP3   OH2 6533   0.339   0.425   3.172  0.3011 -0.3548  0.0891
 2176TIP3    H1 6534   0.318   0.518   3.181 -1.1313 -0.6798  0.2639
 2176TIP3    H2 6535   0.434   0.424   3.157  0.4411  1.0919  0.6593
 2177TIP3   OH2 6536   5.213   5.708   0.310 -0.5657  0.1967  0.0262
 2177TIP3    H1 6537   5.297   5.681   0.348 -0.5650  0.1815  0.0135
 2177TIP3    H2 6538   5.208   5.661   0.227 -0.4774  0.3850 -0.0861
 2178TIP3   OH2 6539   2.616   3.338   4.328  1.0157 -0.1093  0.1283
 2178TIP3    H1 6540   2.589   3.424   4.296  1.9365  0.2663  0.3248
 2178TIP3    H2 6541   2.539   3.283   4.317  0.0645  1.0032  1.0123
 2179TIP3   OH2 6542   3.813   1.811   0.245  0.3576  0.1842 -0.4079
 2179TIP3    H1 6543   3.863   1.787   0.323  0.8210  1.2079 -0.3729
 2179TIP3    H2 6544   3.722   1.811   0.275  0.5679  1.1093  0.3041
 2180TIP3   OH2 6545   1.831   5.155   4.838 -0.2291 -0.1415  0.2284
 2180TIP3    H1 6546   1.755   5.201   4.874 -0.7929 -1.8252  1.2874
 2180TIP3    H2 6547   1.906   5.193   4.883 -0.2450  2.2703 -1.5618
 2181TIP3   OH2 6548   3.750   1.266   1.961  0.4477 -0.0434  0.3484
 2181TIP3    H1 6549   3.787   1.230   1.880 -1.1562 -0.7775 -0.1067
 2181TIP3    H2 6550   3.705   1.346   1.933 -0.0592 -0.2664  0.5134
 2182TIP3   OH2 6551   4.249   5.898   0.770 -0.3174 -0.1787 -0.2474
 2182TIP3    H1 6552   4.189   5.972   0.776  0.6883  0.7827 -1.4772
 2182TIP3    H2 6553   4.194   5.825   0.742 -0.8121  0.8930 -2.2474
 2183TIP3   OH2 6554   1.335   5.946   3.905 -0.0782 -0.6667  0.1156
 2183TIP3    H1 6555   1.296   5.911   3.825 -0.8034  1.6134 -0.6039
 2183TIP3    H2 6556   1.264   5.942   3.969  0.4788 -2.4170  0.6846
 2184TIP3   OH2 6557   0.030   5.296   0.461  0.4561 -0.4103  0.2575
 2184TIP3    H1 6558   0.041   5.378   0.508  2.5382 -2.2822  3.4160
 2184TIP3    H2 6559  -0.026   5.243   0.518  0.3667 -1.6918 -0.9654
 2185TIP3   OH2 6560   4.470   1.783   2.729 -0.0196 -0.7942 -0.1437
 2185TIP3    H1 6561   4.404   1.739   2.676  0.1491  0.8709 -1.8195
 2185TIP3    H2 6562   4.420   1.841   2.786 -0.0720 -0.7472 -0.2383
 2186TIP3   OH2 6563   5.557   5.727   4.160 -0.9580  0.7713  0.0376
 2186TIP3    H1 6564   5.551   5.635   4.135  0.0224  0.3400  1.3214
 2186TIP3    H2 6565   5.649   5.750   4.145 -1.2559  1.6459 -0.5618
 2187TIP3   OH2 6566   2.679   5.142   0.368  0.2171 -0.1557 -0.0889
 2187TIP3    H1 6567   2.660   5.074   0.433  1.3217 -0.2444  0.1692
 2187TIP3    H2 6568   2.669   5.224   0.415 -0.0285 -0.1803 -0.0975
 2188TIP3   OH2 6569   3.700   3.446   2.104  0.2355  0.3170  0.3621
 2188TIP3    H1 6570   3.622   3.467   2.156 -0.6058 -2.1765  0.2610
 2188TIP3    H2 6571   3.742   3.374   2.151  2.9526  2.0257  0.7837
 2189TIP3   OH2 6572   5.556   4.564   0.033  0.1301 -0.2425 -0.0322
 2189TIP3    H1 6573   5.624   4.577   0.100 -0.0073  1.6932 -0.2070
 2189TIP3    H2 6574   5.479   4.534   0.083  1.1418 -2.7493  0.1268
 2190TIP3   OH2 6575   0.806   5.028   4.511 -0.7162 -0.2131  0.0322
 2190TIP3    H1 6576   0.775   5.119   4.513  0.9383  0.3760  0.4838
 2190TIP3    H2 6577   0.849   5.020   4.426 -1.6237 -0.8656 -0.3802
 2191TIP3   OH2 6578   5.649   1.307   0.981  0.5048 -0.5948 -0.5236
 2191TIP3    H1 6579   5.596   1.369   0.931 -2.3078 -2.4673 -0.0754
 2191TIP3    H2 6580   5.740   1.332   0.962 -0.3324  4.7464  1.0687
 2192TIP3   OH2 6581   3.607   1.718   0.443 -0.1100 -0.0408 -0.1116
 2192TIP3    H1 6582   3.660   1.656   0.393  1.2037  0.9504 -0.0127
 2192TIP3    H2 6583   3.645   1.717   0.530 -1.5253 -0.7475  0.5279
 2193TIP3   OH2 6584   1.932   1.379   0.070 -0.7377  0.2083 -0.3843
 2193TIP3    H1 6585   1.992   1.433   0.123 -2.9246  0.0404  2.4960
 2193TIP3    H2 6586   1.985   1.304   0.043  0.8611  1.0013  0.3885
 2194TIP3   OH2 6587   0.660   2.508   4.945  0.0696 -0.0265 -0.3691
 2194TIP3    H1 6588   0.593   2.442   4.965  0.9103 -0.6976  0.3635
 2194TIP3    H2 6589   0.645   2.578   5.009 -0.6871  0.4015 -1.0033
 2195TIP3   OH2 6590   0.477   0.850   0.453  0.1262  0.5900 -0.6617
 2195TIP3    H1 6591   0.425   0.829   0.375 -0.5487  0.4773 -0.1972
 2195TIP3    H2 6592   0.469   0.773   0.509  1.8482  0.0639 -1.1032
 2196TIP3   OH2 6593   4.910   3.742   0.976 -0.8297  0.0630  0.6782
 2196TIP3    H1 6594   4.923   3.830   1.011 -0.8457  1.1607 -1.8615
 2196TIP3    H2 6595   4.973   3.688   1.024 -0.3062  1.5863  1.7991
 2197TIP3   OH2 6596   2.990   1.153   1.499  0.4461  0.8787  0.0279
 2197TIP3    H1 6597   3.082   1.163   1.475  0.3909  1.6741  0.1137
 2197TIP3    H2 6598   2.948   1.232   1.464 -0.4900 -0.1691 -1.3387
 2198TIP3   OH2 6599   1.129   1.842   0.409 -0.1000  0.0172  0.0035
 2198TIP3    H1 6600   1.176   1.762   0.432 -0.6117 -0.6857 -1.2984
 2198TIP3    H2 6601   1.078   1.864   0.487 -0.0570 -1.0030  0.3277
 2199TIP3   OH2 6602   3.875   2.548   1.577  0.4115  0.2323 -0.1991
 2199TIP3    H1 6603   3.915   2.501   1.651  0.5745 -0.6459 -0.8270
 2199TIP3    H2 6604   3.846   2.631   1.614  0.5078 -0.1888  0.8475
 2200TIP3   OH2 6605   3.931   3.651   1.449  0.0383 -0.3592 -0.6326
 2200TIP3    H1 6606   4.001   3.703   1.410 -0.3854 -0.9605 -2.2821
 2200TIP3    H2 6607   3.973   3.571   1.479  0.1285 -0.5696 -1.3072
 2201TIP3   OH2 6608   5.078   3.709   3.400 -0.2132 -0.0937  0.5208
 2201TIP3    H1 6609   5.121   3.791   3.423  0.2708  0.3523 -1.7621
 2201TIP3    H2 6610   5.147   3.643   3.404 -0.1095 -0.0016  0.2585
 2202TIP3   OH2 6611   3.159   1.186   0.786 -0.5952 -0.2186 -0.5168
 2202TIP3    H1 6612   3.116   1.197   0.870 -0.1308  0.8347 -0.3952
 2202TIP3    H2 6613   3.127   1.258   0.732  0.9714  0.6048 -0.4193
 2203TIP3   OH2 6614   2.098  -0.010   2.414  0.4267  0.0018 -0.2003
 2203TIP3    H1 6615   2.048   0.072   2.415 -0.5957 -0.6020  0.1291
 2203TIP3    H2 6616   2.156  -0.003   2.490 -0.5362 -0.0841  0.5684
 2204TIP3   OH2 6617   4.127   1.464   1.337  0.3523  0.7078 -0.1254
 2204TIP3    H1 6618   4.095   1.465   1.428 -1.9060 -1.6707 -0.7839
 2204TIP3    H2 6619   4.201   1.403   1.339  1.0617  1.5669  0.3061
 2205TIP3   OH2 6620   3.853   2.996   1.377 -0.1629 -0.1716  0.2990
 2205TIP3    H1 6621   3.821   3.054   1.445  0.3560 -0.7533  1.0587
 2205TIP3    H2 6622   3.781   2.988   1.315  0.2354  2.4362 -0.6183
 2206TIP3   OH2 6623   5.947   1.707   3.957 -0.2075  0.3850 -0.3689
 2206TIP3    H1 6624   5.967   1.700   4.051 -0.1147  0.3112 -0.3951
 2206TIP3    H2 6625   6.000   1.781   3.927 -0.3688  0.5203 -0.3262
 2207TIP3   OH2 6626   1.037   4.504   5.012  0.3619 -0.0811 -0.0082
 2207TIP3    H1 6627   0.959   4.448   5.006 -0.7597  1.5320 -2.3052
 2207TIP3    H2 6628   1.104   4.448   5.050 -1.4188 -2.1111  0.3697
 2208TIP3   OH2 6629   4.676   2.300   4.319 -0.2391  0.4350  0.2307
 2208TIP3    H1 6630   4.616   2.273   4.250  1.0470  1.3246 -1.2814
 2208TIP3    H2 6631   4.692   2.220   4.370  0.2001 -0.6814 -1.5986
 2209TIP3   OH2 6632   5.213   2.089   4.147 -0.2433  0.6938 -0.1425
 2209TIP3    H1 6633   5.280   2.154   4.167 -0.1764  0.6530 -0.2327
 2209TIP3    H2 6634   5.143   2.106   4.210  0.6034 -0.3828  1.1603
 2210TIP3   OH2 6635   5.342   5.801   2.826  0.1802  0.9803  0.7082
 2210TIP3    H1 6636   5.420   5.822   2.775 -1.2161  2.4349 -1.0203
 2210TIP3    H2 6637   5.319   5.884   2.869  0.2098  0.2696  2.1467
 2211TIP3   OH2 6638   1.898   5.587   1.502  0.0043  0.5504  0.0780
 2211TIP3    H1 6639   1.885   5.528   1.428 -0.2908  1.4854 -0.6349
 2211TIP3    H2 6640   1.992   5.601   1.505  0.1581 -0.4913  0.6961
 2212TIP3   OH2 6641   1.899   1.394   1.082  0.1946 -0.2130  0.1596
 2212TIP3    H1 6642   1.971   1.345   1.041 -1.1289 -0.8291 -1.5612
 2212TIP3    H2 6643   1.907   1.374   1.175  2.3337 -0.1136  0.0655
 2213TIP3   OH2 6644   1.403   1.468   4.439 -0.6396 -0.3120  0.2872
 2213TIP3    H1 6645   1.347   1.540   4.411 -0.6381 -0.0795  0.8590
 2213TIP3    H2 6646   1.392   1.465   4.534  0.5789 -0.0251  0.4571
 2214TIP3   OH2 6647   3.668   5.084   2.927 -0.0359 -0.4461  0.2927
 2214TIP3    H1 6648   3.651   4.990   2.917  0.1594 -0.4331 -0.2425
 2214TIP3    H2 6649   3.709   5.092   3.013  1.0124 -1.0170 -0.1284
 2215TIP3   OH2 6650   1.503   4.410   2.460  0.8502 -0.5464  0.0766
 2215TIP3    H1 6651   1.528   4.373   2.545  2.6568 -1.5411 -0.8223
 2215TIP3    H2 6652   1.464   4.494   2.481  0.5834 -1.0904  1.9368
 2216TIP3   OH2 6653   2.905   5.818   0.304 -0.1592 -0.3856  0.2558
 2216TIP3    H1 6654   2.927   5.910   0.316  1.4581 -0.7790  0.5201
 2216TIP3    H2 6655   2.888   5.786   0.393 -0.2593 -0.4640  0.2097
 2217TIP3   OH2 6656   5.431   2.234   3.968 -0.1392  0.6482 -0.7751
 2217TIP3    H1 6657   5.379   2.300   4.013  1.4102  1.7438 -0.5074
 2217TIP3    H2 6658   5.389   2.223   3.883 -1.9208  0.0438  0.1175
 2218TIP3   OH2 6659   5.071   0.955   3.631 -0.2115 -0.4866 -0.3965
 2218TIP3    H1 6660   5.103   1.018   3.695 -1.0673  0.4340 -0.8379
 2218TIP3    H2 6661   4.979   0.940   3.656  0.3922 -2.9022  0.7244
 2219TIP3   OH2 6662   4.575   2.752   0.599 -0.2375  0.1343  0.2396
 2219TIP3    H1 6663   4.666   2.727   0.612 -0.4052 -0.4614  0.3061
 2219TIP3    H2 6664   4.573   2.792   0.512  0.2242  0.8624  0.5534
 2220TIP3   OH2 6665   1.999   0.366   2.198  0.1605 -0.2862  0.4810
 2220TIP3    H1 6666   1.983   0.456   2.228  1.5954  0.1228  0.1006
 2220TIP3    H2 6667   2.029   0.320   2.277  3.1023  0.5738 -0.0169
 2221TIP3   OH2 6668   3.413   3.222   3.518 -0.1155  0.0299 -0.0383
 2221TIP3    H1 6669   3.495   3.207   3.566 -1.4881 -0.9998  2.1264
 2221TIP3    H2 6670   3.440   3.226   3.426  2.0858 -3.2297  0.2810
 2222TIP3   OH2 6671   1.059   3.670   0.453  0.4099 -0.1992 -0.7815
 2222TIP3    H1 6672   1.118   3.713   0.391  1.0146 -1.4668 -1.1048
 2222TIP3    H2 6673   0.971   3.700   0.427  0.5706 -1.2649 -2.7569
 2223TIP3   OH2 6674   2.803   3.987   2.187 -0.1179  0.4019 -0.1793
 2223TIP3    H1 6675   2.865   4.035   2.132 -0.5049 -1.0832 -2.0262
 2223TIP3    H2 6676   2.760   4.054   2.239  0.4032  1.8884 -1.5796
 2224TIP3   OH2 6677   4.657   4.218   2.166 -0.5285  0.1856  0.1519
 2224TIP3    H1 6678   4.664   4.277   2.091 -0.0969  0.2001  0.2040
 2224TIP3    H2 6679   4.583   4.160   2.144  0.4218 -0.6741 -0.9009
 2225TIP3   OH2 6680   1.916   0.613   2.270  0.3288  0.1545 -0.3648
 2225TIP3    H1 6681   1.875   0.579   2.349 -1.7631  1.9350 -0.6150
 2225TIP3    H2 6682   1.956   0.695   2.297  1.1641 -0.0963 -0.7961
 2226TIP3   OH2 6683   5.534   3.250   1.598 -0.0927 -0.7703 -0.1458
 2226TIP3    H1 6684   5.462   3.188   1.608 -0.7597  0.1711  1.3003
 2226TIP3    H2 6685   5.585   3.241   1.678  0.5858 -0.4038 -0.5240
 2227TIP3   OH2 6686   1.597   3.263   0.852  0.7187  0.0238  0.6966
 2227TIP3    H1 6687   1.560   3.227   0.772 -1.9083  0.5581  1.5882
 2227TIP3    H2 6688   1.666   3.322   0.822 -1.1293  1.3124 -1.3102
 2228TIP3   OH2 6689   6.206   0.993   3.276 -0.2591 -0.0378  0.2614
 2228TIP3    H1 6690   6.216   0.963   3.366 -0.2225 -1.2653 -0.1465
 2228TIP3    H2 6691   6.269   1.065   3.268  0.8348 -0.9151  0.7689
 2229TIP3   OH2 6692   1.146   1.918   1.438  0.0991  0.1654 -0.2408
 2229TIP3    H1 6693   1.172   2.010   1.449 -0.3105  0.6319 -2.6911
 2229TIP3    H2 6694   1.228   1.871   1.429  0.5289 -0.3130  3.9519
 2230TIP3   OH2 6695   5.466   0.046   1.430 -0.2053 -0.4063  0.2264
 2230TIP3    H1 6696   5.505   0.122   1.474  2.5381 -2.1952  1.1364
 2230TIP3    H2 6697   5.435   0.080   1.346  1.3378  1.6397  0.4177
 2231TIP3   OH2 6698   0.786   3.426   1.581 -0.5076 -0.3234 -0.0933
 2231TIP3    H1 6699   0.870   3.403   1.540 -0.8039 -0.2673 -0.7433
 2231TIP3    H2 6700   0.811   3.468   1.663  0.1206  0.0726 -0.4732
 2232TIP3   OH2 6701   4.594   0.851   0.990 -0.2078 -0.0547 -0.1765
 2232TIP3    H1 6702   4.523   0.797   0.954 -0.6017 -0.1306  0.6985
 2232TIP3    H2 6703   4.652   0.788   1.032  0.8928 -0.0988 -1.6776
 2233TIP3   OH2 6704   1.198   2.532   1.875  0.3333  0.5801 -0.5410
 2233TIP3    H1 6705   1.238   2.566   1.955 -1.6932  0.8139  0.4563
 2233TIP3    H2 6706   1.234   2.444   1.865 -0.6110 -0.1272  1.6525
 2234TIP3   OH2 6707   1.584   1.643   2.041  0.2144 -0.0293  0.2098
 2234TIP3    H1 6708   1.515   1.706   2.063 -0.1085  0.4179 -1.8923
 2234TIP3    H2 6709   1.539   1.575   1.991  0.5312 -2.0911  2.5538
 2235TIP3   OH2 6710   5.929   1.981   1.146  0.4273  0.0601 -0.1811
 2235TIP3    H1 6711   5.994   2.050   1.160  1.3504 -0.7025 -0.6186
 2235TIP3    H2 6712   5.909   1.986   1.052 -2.3136  2.1478  0.3855
 2236TIP3   OH2 6713   1.863   1.635   3.900  0.7638  0.1077 -0.6983
 2236TIP3    H1 6714   1.920   1.585   3.841  0.7080  0.1922 -0.8243
 2236TIP3    H2 6715   1.780   1.586   3.899  0.8108  0.0249 -0.5714
 2237TIP3   OH2 6716   4.293   1.183   1.721  0.1791 -0.1193  1.0419
 2237TIP3    H1 6717   4.198   1.185   1.710  0.1116  0.1727  1.6466
 2237TIP3    H2 6718   4.312   1.093   1.746  0.1144 -0.2907  0.4828
 2238TIP3   OH2 6719   1.806   4.883   4.358 -0.0430 -0.1878 -0.3622
 2238TIP3    H1 6720   1.775   4.840   4.439  0.9695 -1.3267 -0.5530
 2238TIP3    H2 6721   1.737   4.866   4.294 -0.2625 -0.3825 -0.0763
 2239TIP3   OH2 6722   6.165   5.543   3.619 -0.0086 -0.2972 -0.1041
 2239TIP3    H1 6723   6.234   5.479   3.598 -1.4927 -2.1252  0.2966
 2239TIP3    H2 6724   6.192   5.580   3.703 -0.2772 -2.2677  0.9261
 2240TIP3   OH2 6725   5.267   3.548   2.358  0.0305 -0.4920  0.4110
 2240TIP3    H1 6726   5.226   3.502   2.431  3.1724  0.5938  3.1472
 2240TIP3    H2 6727   5.358   3.516   2.357  0.7960  1.4805 -1.2891
 2241TIP3   OH2 6728   4.184   2.856   2.520  0.0230  0.0812  0.4334
 2241TIP3    H1 6729   4.195   2.899   2.605 -0.4174  1.6037 -0.2378
 2241TIP3    H2 6730   4.093   2.827   2.520 -0.1564  0.6258  0.2611
 2242TIP3   OH2 6731   1.296   2.675   3.416  0.0993 -0.1888  0.0581
 2242TIP3    H1 6732   1.270   2.767   3.421  1.7942  0.2866  1.1559
 2242TIP3    H2 6733   1.252   2.634   3.490 -0.6891 -0.2824 -0.4540
 2243TIP3   OH2 6734   0.478   2.857   4.480  0.8524  0.2312  0.1735
 2243TIP3    H1 6735   0.508   2.803   4.553 -2.3128 -0.7331  0.9151
 2243TIP3    H2 6736   0.476   2.797   4.405 -1.3528 -0.4382  0.6897
 2244TIP3   OH2 6737   6.117   1.984   2.652 -0.2672 -0.2564  0.0579
 2244TIP3    H1 6738   6.024   1.992   2.674 -0.3984 -0.2575 -0.4919
 2244TIP3    H2 6739   6.132   1.890   2.640  0.0523 -0.3743  1.1679
 2245TIP3   OH2 6740   4.102   3.855   2.483  0.1024 -0.1689  0.3250
 2245TIP3    H1 6741   4.087   3.786   2.548 -1.4658  0.0204  0.2020
 2245TIP3    H2 6742   4.045   3.832   2.410  3.0314 -1.2909 -1.7866
 2246TIP3   OH2 6743   1.970   0.647   3.183  0.4144  0.1466  0.1628
 2246TIP3    H1 6744   1.960   0.571   3.125  1.0022 -0.9451  1.4448
 2246TIP3    H2 6745   2.050   0.630   3.232  0.4165  1.4926  0.6714
 2247TIP3   OH2 6746   0.127   5.377   2.657 -0.3614  0.7750 -0.0779
 2247TIP3    H1 6747   0.137   5.299   2.602  0.0442  0.6743  0.1393
 2247TIP3    H2 6748   0.161   5.449   2.603 -1.3055  0.9108 -0.5237
 2248TIP3   OH2 6749   2.331   5.158   0.242 -0.0056  0.6089 -0.3939
 2248TIP3    H1 6750   2.346   5.143   0.335  0.0146  1.1647 -0.3060
 2248TIP3    H2 6751   2.277   5.084   0.214  0.8771 -0.1303 -0.1815
 2249TIP3   OH2 6752   3.430   4.207   1.586 -0.3844 -0.3743  0.0650
 2249TIP3    H1 6753   3.371   4.253   1.527 -0.8900 -0.5972  0.3874
 2249TIP3    H2 6754   3.506   4.265   1.595 -0.0001 -0.6325 -1.3198
 2250TIP3   OH2 6755   3.041   2.025   1.850  0.1886 -0.8466  0.4964
 2250TIP3    H1 6756   3.122   2.073   1.865 -0.5239  0.8924 -0.8229
 2250TIP3    H2 6757   3.051   1.986   1.763 -0.8089  0.3867 -0.2052
 2251TIP3   OH2 6758   0.423   3.432   3.446  0.0327 -0.0423  0.3268
 2251TIP3    H1 6759   0.348   3.416   3.389  1.7419 -0.6206 -1.8936
 2251TIP3    H2 6760   0.444   3.346   3.482  0.4954 -0.1566 -0.2069
 2252TIP3   OH2 6761   6.211   1.644   1.215  0.1514 -0.0797 -0.0568
 2252TIP3    H1 6762   6.180   1.654   1.305  0.5722  0.2635  0.0507
 2252TIP3    H2 6763   6.132   1.650   1.162 -0.1432 -0.6160  0.3111
 2253TIP3   OH2 6764   6.331   3.615   1.379 -0.0769 -0.1306 -0.1354
 2253TIP3    H1 6765   6.415   3.651   1.350 -0.0623  2.3960  2.5242
 2253TIP3    H2 6766   6.272   3.691   1.380 -1.6032 -1.2759  0.7010
 2254TIP3   OH2 6767   6.130   4.611   4.513 -0.8538 -0.1636  1.1102
 2254TIP3    H1 6768   6.223   4.588   4.510 -0.4015  1.5755 -1.3271
 2254TIP3    H2 6769   6.107   4.628   4.421 -3.6721 -0.8166  1.6213
 2255TIP3   OH2 6770   1.281   1.880   2.355 -0.1744 -0.1958 -0.5722
 2255TIP3    H1 6771   1.210   1.942   2.365  1.1069  1.2344  0.0668
 2255TIP3    H2 6772   1.268   1.817   2.426 -0.7858  0.0618 -0.4501
 2256TIP3   OH2 6773   4.076   0.379   2.562  0.3242  0.0147 -0.3459
 2256TIP3    H1 6774   3.988   0.379   2.600  0.4836  0.2685  0.0331
 2256TIP3    H2 6775   4.087   0.468   2.528  0.3594 -0.0756 -0.5724
 2257TIP3   OH2 6776   6.315   5.867   0.810 -0.0009 -0.3077 -0.1134
 2257TIP3    H1 6777   6.278   5.955   0.805  1.8381  0.4865 -0.2223
 2257TIP3    H2 6778   6.283   5.832   0.893 -1.1978  0.2167 -0.3235
 2258TIP3   OH2 6779   3.686   2.429   3.808  0.3505  0.5178 -0.4260
 2258TIP3    H1 6780   3.625   2.491   3.846  0.1775 -0.6733  1.3473
 2258TIP3    H2 6781   3.632   2.372   3.753  0.2429  0.9019 -0.7167
 2259TIP3   OH2 6782   0.441   0.037   4.070  0.1401  0.0153 -0.0763
 2259TIP3    H1 6783   0.530   0.029   4.105 -1.2543 -1.3321  3.8272
 2259TIP3    H2 6784   0.407  -0.053   4.071 -1.3817  0.5447 -1.0551
 2260TIP3   OH2 6785   0.254   2.264   3.440  0.2130 -0.1905 -0.1615
 2260TIP3    H1 6786   0.312   2.194   3.411  0.2152 -0.5220  0.6129
 2260TIP3    H2 6787   0.187   2.270   3.371  1.1595  0.2202 -1.0780
 2261TIP3   OH2 6788   0.450   0.396   3.465  0.2104  0.0549  0.3006
 2261TIP3    H1 6789   0.417   0.377   3.378  0.2059 -2.0023  0.6933
 2261TIP3    H2 6790   0.379   0.443   3.508 -0.8911 -1.3147  0.0374
 2262TIP3   OH2 6791   3.645   1.144   2.205  0.3282  0.4010  0.5822
 2262TIP3    H1 6792   3.706   1.071   2.217 -0.7086 -0.6674 -0.4216
 2262TIP3    H2 6793   3.675   1.187   2.125 -0.4748 -0.3947 -0.1602
 2263TIP3   OH2 6794   3.538   5.497   1.352  0.5266  0.5674  0.4789
 2263TIP3    H1 6795   3.511   5.586   1.376  1.3894  1.1580 -0.6744
 2263TIP3    H2 6796   3.456   5.447   1.348 -0.0049  1.4030  0.7409
 2264TIP3   OH2 6797   0.548   2.751   3.457 -0.2763 -0.4196  0.3127
 2264TIP3    H1 6798   0.617   2.747   3.391  0.2683  1.2264  0.7259
 2264TIP3    H2 6799   0.593   2.730   3.539 -0.4907 -0.3107  0.4577
 2265TIP3   OH2 6800   1.458   3.145   2.734 -0.3009 -0.1427  0.0599
 2265TIP3    H1 6801   1.392   3.206   2.700 -0.0674  0.2627  0.3186
 2265TIP3    H2 6802   1.524   3.140   2.665  0.6248  1.3850  0.8005
 2266TIP3   OH2 6803   0.701   0.874   4.704 -0.4795  0.1358  0.1049
 2266TIP3    H1 6804   0.782   0.901   4.661 -0.8339  0.2882 -0.4809
 2266TIP3    H2 6805   0.701   0.778   4.697 -0.4679  0.1513 -0.1191
 2267TIP3   OH2 6806   0.616   2.597   0.160 -0.1442 -0.3143 -0.0434
 2267TIP3    H1 6807   0.668   2.677   0.167  1.0108 -1.0680  0.2936
 2267TIP3    H2 6808   0.558   2.612   0.086  1.0998  0.2743 -0.9326
 2268TIP3   OH2 6809   5.015   2.972   2.697  0.0599  0.4475 -0.7057
 2268TIP3    H1 6810   5.082   3.022   2.743 -0.2666  0.5830 -0.3688
 2268TIP3    H2 6811   5.000   3.020   2.616  0.5230  0.2966 -0.8866
 2269TIP3   OH2 6812   6.183   0.528   3.422 -0.6515  0.2844  0.0915
 2269TIP3    H1 6813   6.205   0.502   3.512  0.9740 -1.1325 -0.6546
 2269TIP3    H2 6814   6.260   0.575   3.391 -2.2623  3.2554  0.2807
 2270TIP3   OH2 6815   1.050   2.749   3.232  0.0493  0.2645 -0.1439
 2270TIP3    H1 6816   1.142   2.740   3.211 -0.4690 -0.9380 -2.1719
 2270TIP3    H2 6817   1.014   2.804   3.163 -0.9741 -0.3388 -0.1177
 2271TIP3   OH2 6818   5.686   3.536   3.304  0.2063 -0.3401 -0.0626
 2271TIP3    H1 6819   5.695   3.546   3.398  1.8883 -0.9892 -0.1143
 2271TIP3    H2 6820   5.723   3.450   3.285  1.8035  0.5944 -1.5068
 2272TIP3   OH2 6821   2.019   4.657   2.440  0.0347  0.3109  0.1839
 2272TIP3    H1 6822   2.040   4.736   2.390  0.6872 -0.4833 -0.8614
 2272TIP3    H2 6823   1.926   4.641   2.422  0.1511  0.2938 -0.4221
 2273TIP3   OH2 6824   4.512   3.439   2.270  0.5040  0.2712  0.7331
 2273TIP3    H1 6825   4.582   3.414   2.210 -0.1263 -1.1872  0.5490
 2273TIP3    H2 6826   4.556   3.453   2.354  1.1615  0.5595  0.3487
 2274TIP3   OH2 6827   1.074   1.965   0.957 -0.3659  0.0119 -0.3259
 2274TIP3    H1 6828   1.069   2.043   0.903 -1.9964 -0.0554 -0.3256
 2274TIP3    H2 6829   1.048   1.994   1.044  0.9994 -0.1459  0.1662
 2275TIP3   OH2 6830   2.185   3.021   1.302  0.2855 -0.3625  0.1130
 2275TIP3    H1 6831   2.227   3.001   1.385  0.9047 -0.6526 -0.2633
 2275TIP3    H2 6832   2.156   2.936   1.268 -1.0747 -0.1167  0.6060
 2276TIP3   OH2 6833   5.571   3.697   2.356 -0.0963  0.2450 -0.1146
 2276TIP3    H1 6834   5.527   3.749   2.290  0.2558  0.9664  0.2116
 2276TIP3    H2 6835   5.520   3.711   2.436  0.5635  0.8885  0.2066
 2277TIP3   OH2 6836   6.003   4.042   2.952 -0.1457 -0.0553 -0.2809
 2277TIP3    H1 6837   5.924   4.058   3.003 -0.8864 -2.4675 -0.5260
 2277TIP3    H2 6838   6.070   4.095   2.994 -1.4953  0.7062  1.0223
 2278TIP3   OH2 6839   1.839   4.194   1.118  0.1449 -0.5409 -0.1296
 2278TIP3    H1 6840   1.848   4.206   1.212  2.6807  1.6234 -0.5482
 2278TIP3    H2 6841   1.755   4.235   1.097 -0.3595 -0.8855  1.1323
 2279TIP3   OH2 6842   3.372   2.897   0.538  0.3275  0.4182 -0.4156
 2279TIP3    H1 6843   3.420   2.904   0.620  0.4532 -0.0659 -0.4430
 2279TIP3    H2 6844   3.424   2.836   0.485 -1.1773 -1.4662  0.1812
 2280TIP3   OH2 6845   3.049   0.334   1.013  0.1193 -0.0758 -0.5817
 2280TIP3    H1 6846   2.989   0.404   1.038 -0.5139 -0.8477  0.0968
 2280TIP3    H2 6847   2.997   0.254   1.020  1.6956 -0.9984  1.8938
 2281TIP3   OH2 6848   5.379   3.958   4.447  0.0431  0.2800  0.3518
 2281TIP3    H1 6849   5.391   4.011   4.368  1.1263  0.2769  0.4873
 2281TIP3    H2 6850   5.323   3.885   4.419  0.0898  0.4901 -0.3142
 2282TIP3   OH2 6851   5.117   3.935   3.937  0.1766  0.5116 -0.0848
 2282TIP3    H1 6852   5.195   3.933   3.991  0.5824  0.3977 -0.6584
 2282TIP3    H2 6853   5.047   3.964   3.995  0.4039 -0.5682  0.7347
 2283TIP3   OH2 6854   4.942   0.949   0.286  0.3690 -0.9053  0.3428
 2283TIP3    H1 6855   4.914   0.871   0.237  0.0122 -1.6047  1.6183
 2283TIP3    H2 6856   4.982   1.006   0.219 -0.9617 -1.3910 -0.9250
 2284TIP3   OH2 6857   0.587   2.074   1.344 -0.0615  0.0825  0.1457
 2284TIP3    H1 6858   0.577   2.026   1.262  0.2807 -1.3281  0.8999
 2284TIP3    H2 6859   0.677   2.055   1.373 -0.4393 -0.1055  1.2467
 2285TIP3   OH2 6860   3.782   1.437   3.179 -0.2326 -0.0167 -0.3761
 2285TIP3    H1 6861   3.741   1.354   3.153  0.4308 -1.2968  2.3170
 2285TIP3    H2 6862   3.869   1.412   3.210 -0.4075  1.5006  1.5462
 2286TIP3   OH2 6863   5.564   2.511   2.748 -0.1120  0.0720  0.3878
 2286TIP3    H1 6864   5.583   2.495   2.840 -0.8551 -1.3984  0.3092
 2286TIP3    H2 6865   5.546   2.425   2.711  1.3064  0.4942 -1.4225
 2287TIP3   OH2 6866   0.771   4.422   0.286  0.1289 -0.3552 -0.0275
 2287TIP3    H1 6867   0.824   4.342   0.284  1.0242  0.2209 -0.4241
 2287TIP3    H2 6868   0.681   4.391   0.287  0.4436 -1.3779 -0.7783
 2288TIP3   OH2 6869   6.296   1.800   4.534 -0.5339 -0.0460  0.2702
 2288TIP3    H1 6870   6.260   1.852   4.606 -2.1938  0.7893 -1.1104
 2288TIP3    H2 6871   6.389   1.825   4.532 -1.0739  2.2186  0.2386
 2289TIP3   OH2 6872   1.521   1.243   2.829  0.1570 -0.2599  0.7169
 2289TIP3    H1 6873   1.451   1.306   2.848  1.7012  1.4327  1.0711
 2289TIP3    H2 6874   1.545   1.208   2.915  1.9064  1.6318  1.0751
 2290TIP3   OH2 6875   3.781   0.604   4.943 -0.4083 -0.1939  0.6211
 2290TIP3    H1 6876   3.813   0.695   4.946  0.2751 -0.3923 -0.3283
 2290TIP3    H2 6877   3.731   0.595   5.024 -0.5011  1.0345  0.7304
 2291TIP3   OH2 6878   4.376   3.548   1.540 -0.5365 -0.4132 -0.0614
 2291TIP3    H1 6879   4.327   3.604   1.601  1.7633  2.5761 -0.6977
 2291TIP3    H2 6880   4.447   3.511   1.594 -1.7899 -2.4949  0.2523
 2292TIP3   OH2 6881   5.324   1.433   2.003 -0.0733 -0.4703 -0.0227
 2292TIP3    H1 6882   5.362   1.492   2.067 -1.6157 -1.0032  1.4656
 2292TIP3    H2 6883   5.384   1.437   1.928  0.0893  2.6555  0.1280
 2293TIP3   OH2 6884   0.834   0.267   2.187  0.1064  0.3792 -0.6314
 2293TIP3    H1 6885   0.916   0.236   2.148 -1.2989 -0.0472 -3.5339
 2293TIP3    H2 6886   0.819   0.209   2.262  0.8347 -1.7018 -2.0157
 2294TIP3   OH2 6887   5.587   0.702   0.318 -0.0586 -0.0814 -0.0291
 2294TIP3    H1 6888   5.632   0.665   0.395  1.0202  1.2994  0.0421
 2294TIP3    H2 6889   5.648   0.687   0.246 -0.2413  0.3016 -0.2628
 2295TIP3   OH2 6890   5.317   4.487   2.112  0.0487 -0.0723  0.1923
 2295TIP3    H1 6891   5.287   4.571   2.147  1.1072  0.8064 -0.8972
 2295TIP3    H2 6892   5.285   4.486   2.022 -1.5944 -1.7416  0.7353
 2296TIP3   OH2 6893   3.705   4.215   1.005  0.3967  0.4299 -0.0907
 2296TIP3    H1 6894   3.718   4.279   1.075 -0.0561  2.4627 -1.7897
 2296TIP3    H2 6895   3.719   4.264   0.924 -0.4223 -1.5222 -1.4884
 2297TIP3   OH2 6896   5.510   2.751   2.466  0.2577  0.2444 -0.3432
 2297TIP3    H1 6897   5.603   2.772   2.464  0.0220  1.2922 -0.9160
 2297TIP3    H2 6898   5.479   2.785   2.550  0.4383 -0.3660 -0.0219
 2298TIP3   OH2 6899   4.311   5.834   0.451  0.4488  0.8770 -0.2257
 2298TIP3    H1 6900   4.385   5.776   0.471 -0.6201 -1.1530 -1.7161
 2298TIP3    H2 6901   4.238   5.797   0.502 -0.1841  1.0739 -0.9640
 2299TIP3   OH2 6902   2.261   0.423   3.689 -0.4079  1.1832  0.0236
 2299TIP3    H1 6903   2.167   0.412   3.704 -0.8737  1.5301 -2.2801
 2299TIP3    H2 6904   2.272   0.518   3.679  0.3274  1.2103  0.9306
 2300TIP3   OH2 6905   1.026   4.723   2.498  0.3873 -0.0671  0.1470
 2300TIP3    H1 6906   1.027   4.774   2.417  1.9936  0.1821  0.3020
 2300TIP3    H2 6907   1.040   4.788   2.568 -0.0589 -0.4073  0.5644
 2301TIP3   OH2 6908   0.140   5.097   2.569 -0.6420  0.2660  0.2800
 2301TIP3    H1 6909   0.051   5.099   2.533  0.2306 -2.2690 -2.4562
 2301TIP3    H2 6910   0.196   5.104   2.492  1.4413 -2.7681  1.3625
 2302TIP3   OH2 6911   5.258   2.494   2.664 -0.1445  0.4895 -0.0395
 2302TIP3    H1 6912   5.316   2.484   2.589  0.3905 -0.0820  0.4280
 2302TIP3    H2 6913   5.291   2.570   2.711  1.2239 -0.7002  1.0422
 2303TIP3   OH2 6914   5.629   3.983   1.000  0.1890  0.5058  0.5491
 2303TIP3    H1 6915   5.627   3.891   1.026 -0.0659 -1.0536 -4.1425
 2303TIP3    H2 6916   5.537   4.009   0.996  0.1408  0.2245 -0.2749
 2304TIP3   OH2 6917   1.544   2.017   3.435  0.3141 -0.4741 -0.7196
 2304TIP3    H1 6918   1.625   2.010   3.384  1.1111 -1.5086  0.6263
 2304TIP3    H2 6919   1.496   2.089   3.393  2.7080  1.4137 -0.4969
 2305TIP3   OH2 6920   0.582   1.904   4.658 -0.3640  0.2595 -0.3198
 2305TIP3    H1 6921   0.642   1.871   4.591 -0.8859  0.5454 -0.9384
 2305TIP3    H2 6922   0.505   1.931   4.610 -0.0800  2.1194  0.1984
 2306TIP3   OH2 6923   5.240   3.249   0.448  0.2134 -0.2394  0.2910
 2306TIP3    H1 6924   5.212   3.227   0.537 -2.5293  0.2414 -0.3648
 2306TIP3    H2 6925   5.247   3.345   0.448  0.1169 -0.2300 -0.0194
 2307TIP3   OH2 6926   1.662   0.313   1.340  0.5123  0.2171  0.1595
 2307TIP3    H1 6927   1.612   0.243   1.298  1.8893  0.2472 -1.6677
 2307TIP3    H2 6928   1.597   0.382   1.355 -0.8474 -1.3478  1.9307
 2308TIP3   OH2 6929   4.837   5.415   1.874 -0.2954  0.4145  0.1461
 2308TIP3    H1 6930   4.820   5.453   1.960 -0.3133 -0.1662  0.4024
 2308TIP3    H2 6931   4.772   5.346   1.865 -0.5085  0.6820 -0.4791
 2309TIP3   OH2 6932   2.292   4.183   0.424  0.2935 -0.4674  0.0761
 2309TIP3    H1 6933   2.218   4.243   0.432  0.9116  0.4008 -0.4754
 2309TIP3    H2 6934   2.253   4.096   0.418 -0.6466 -0.0731  0.3617
 2310TIP3   OH2 6935   4.415   5.720   4.519  0.5559  0.5650 -0.0918
 2310TIP3    H1 6936   4.395   5.629   4.496 -2.1851  0.8053  0.9516
 2310TIP3    H2 6937   4.423   5.720   4.614 -0.7878  1.5825  0.0529
 2311TIP3   OH2 6938   0.186   2.353   5.135  0.0006 -0.4547 -0.3994
 2311TIP3    H1 6939   0.228   2.412   5.197  0.8674 -1.2227 -0.2352
 2311TIP3    H2 6940   0.142   2.288   5.189  0.1152 -0.6857 -0.5826
 2312TIP3   OH2 6941   0.891   5.660   3.101 -0.0074 -0.6357  0.0884
 2312TIP3    H1 6942   0.899   5.655   3.196  0.3972  1.0280  0.1717
 2312TIP3    H2 6943   0.972   5.700   3.072 -0.0188 -1.3685 -1.0029
 2313TIP3   OH2 6944   0.441   5.424   2.766  0.1472 -0.1901 -0.3314
 2313TIP3    H1 6945   0.513   5.455   2.710  0.4769 -1.0678 -0.4254
 2313TIP3    H2 6946   0.433   5.490   2.834 -0.3112  0.9485 -1.4444
 2314TIP3   OH2 6947   4.069   2.818   1.782  0.2217  0.4407 -0.6222
 2314TIP3    H1 6948   4.096   2.859   1.699  1.3015 -0.6684 -0.8597
 2314TIP3    H2 6949   3.979   2.791   1.766  0.7150 -0.6263 -1.8220
 2315TIP3   OH2 6950   5.507   2.823   3.965  0.2185  0.5159 -0.2094
 2315TIP3    H1 6951   5.415   2.845   3.976 -0.0294 -0.6402  0.2096
 2315TIP3    H2 6952   5.507   2.731   3.940  1.3078  0.1024  1.1685
 2316TIP3   OH2 6953   4.888   2.917   1.390  0.2319  0.4657 -0.5862
 2316TIP3    H1 6954   4.905   3.010   1.404 -0.3842  0.7288 -1.4715
 2316TIP3    H2 6955   4.845   2.914   1.305 -0.7848 -0.5080 -0.0642
 2317TIP3   OH2 6956   3.815   1.636   0.961 -0.3511  0.3090 -0.0462
 2317TIP3    H1 6957   3.845   1.552   0.925 -4.1810 -0.4099 -2.1474
 2317TIP3    H2 6958   3.864   1.646   1.042  0.6423 -3.7744  0.1004
 2318TIP3   OH2 6959   5.434   1.606   2.703  0.6383  0.1075  0.0109
 2318TIP3    H1 6960   5.494   1.537   2.674 -0.5270 -0.6467 -0.6615
 2318TIP3    H2 6961   5.483   1.687   2.688  2.2607 -0.5674  1.3829
 2319TIP3   OH2 6962   1.714   3.135   1.352 -0.2412  0.1924 -0.5043
 2319TIP3    H1 6963   1.690   3.057   1.403 -0.4929 -0.7579 -2.0084
 2319TIP3    H2 6964   1.636   3.157   1.302  0.8799 -0.9885 -3.0065
 2320TIP3   OH2 6965   5.855   4.489   2.133  0.3655  0.4963  0.1825
 2320TIP3    H1 6966   5.776   4.486   2.079  0.2154 -1.1295  0.4273
 2320TIP3    H2 6967   5.927   4.493   2.070  0.1452 -0.0460 -0.1086
 2321TIP3   OH2 6968   0.758   0.608   4.640  0.1664 -0.8057 -0.0223
 2321TIP3    H1 6969   0.758   0.538   4.705 -0.1028  0.3293  1.2500
 2321TIP3    H2 6970   0.849   0.638   4.637  0.2341 -1.0509 -0.3792
 2322TIP3   OH2 6971   4.992   2.268   0.298 -0.3834  0.1454  0.6076
 2322TIP3    H1 6972   4.952   2.289   0.213  0.7813 -0.6947 -0.1929
 2322TIP3    H2 6973   5.058   2.336   0.311 -2.2078  1.7307  2.0913
 2323TIP3   OH2 6974   6.225   3.969   1.034  0.3552  0.6351  0.3678
 2323TIP3    H1 6975   6.145   3.955   0.984  1.4127  1.3717 -1.6450
 2323TIP3    H2 6976   6.198   4.027   1.106 -1.3518 -1.0312  1.1541
 2324TIP3   OH2 6977   6.160   1.882   4.871  0.2262  0.2242  0.1820
 2324TIP3    H1 6978   6.255   1.882   4.884  0.1830 -0.0535  0.5000
 2324TIP3    H2 6979   6.126   1.929   4.947  0.2254  1.9462 -0.8341
 2325TIP3   OH2 6980   0.423   5.321   2.517 -0.0364 -0.2098 -0.1738
 2325TIP3    H1 6981   0.482   5.246   2.524  0.9109  0.5746  0.4953
 2325TIP3    H2 6982   0.415   5.355   2.606 -0.7925  0.2381 -0.3944
 2326TIP3   OH2 6983   1.060   4.702   4.120 -0.0296  0.5488 -0.0174
 2326TIP3    H1 6984   0.999   4.732   4.187  0.6953 -1.3945  1.6058
 2326TIP3    H2 6985   1.004   4.672   4.048 -0.8755  1.1656  0.3671
 2327TIP3   OH2 6986   0.689   1.858   2.991  0.4498 -0.1900  0.5008
 2327TIP3    H1 6987   0.781   1.863   3.019  0.7846 -0.7720 -0.4732
 2327TIP3    H2 6988   0.682   1.921   2.920  0.9198 -2.3216 -1.5649
 2328TIP3   OH2 6989   1.377   4.176   2.714 -0.5657  0.2744  0.2918
 2328TIP3    H1 6990   1.315   4.111   2.680 -1.1440  0.5333  0.8307
 2328TIP3    H2 6991   1.324   4.233   2.770  0.1291  0.6010  0.6322
 2329TIP3   OH2 6992   2.848   1.121   3.272  0.6543 -0.1171  0.0746
 2329TIP3    H1 6993   2.862   1.030   3.297  2.3877 -0.2250 -1.0985
 2329TIP3    H2 6994   2.846   1.120   3.176  1.9997  1.1991 -0.0056
 2330TIP3   OH2 6995   2.146   5.231   1.464 -0.6045 -0.2675 -0.0808
 2330TIP3    H1 6996   2.058   5.260   1.487 -1.0205 -0.7276 -1.0595
 2330TIP3    H2 6997   2.175   5.292   1.397 -0.8941 -1.1918 -1.0655
 2331TIP3   OH2 6998   3.130   4.136   1.478 -0.2691 -0.6677 -0.3025
 2331TIP3    H1 6999   3.205   4.083   1.450  0.4589  0.9321 -1.5267
 2331TIP3    H2 7000   3.067   4.128   1.407 -0.4396 -0.4364 -0.1771
 2332TIP3   OH2 7001   2.741   1.518   1.217 -0.1652 -0.3384 -0.2233
 2332TIP3    H1 7002   2.685   1.579   1.266 -0.5944 -1.3290  0.5500
 2332TIP3    H2 7003   2.786   1.573   1.153 -0.4483  0.8119  0.5411
 2333TIP3   OH2 7004   2.141   4.122   1.162  0.4480 -0.5558 -0.4657
 2333TIP3    H1 7005   2.080   4.066   1.210 -1.3271  1.8108  0.2298
 2333TIP3    H2 7006   2.210   4.140   1.225 -0.5863  0.5038  0.4209
 2334TIP3   OH2 7007   5.446   3.692   3.339  0.0739 -0.4075  0.8182
 2334TIP3    H1 7008   5.396   3.693   3.420 -1.0450 -1.9140  0.1769
 2334TIP3    H2 7009   5.497   3.611   3.342 -1.0130 -1.1978 -0.5436
 2335TIP3   OH2 7010   2.367   3.836   5.183 -0.2930  0.0578  0.2605
 2335TIP3    H1 7011   2.366   3.919   5.135  1.0782 -0.6469 -1.0493
 2335TIP3    H2 7012   2.295   3.785   5.145 -0.8275  0.4394  0.7361
 2336TIP3   OH2 7013   4.504   4.785   1.052  0.3719  0.1914  0.4343
 2336TIP3    H1 7014   4.471   4.830   0.974 -2.3366 -0.9478  0.8005
 2336TIP3    H2 7015   4.550   4.852   1.102  1.5855  1.0994 -1.7888
 2337TIP3   OH2 7016   1.559   3.039   3.887 -0.1716 -0.0747  0.5046
 2337TIP3    H1 7017   1.579   3.012   3.977  2.1490 -1.8390 -0.4354
 2337TIP3    H2 7018   1.479   2.992   3.864 -0.9855  0.6686  1.7341
 2338TIP3   OH2 7019   5.789   1.619   2.016  0.2619  0.4857  0.1944
 2338TIP3    H1 7020   5.701   1.593   2.045  0.7309 -0.3783  0.8945
 2338TIP3    H2 7021   5.799   1.574   1.931  1.2141 -2.1145  1.5676
 2339TIP3   OH2 7022   4.467   5.770   4.790 -0.0877  0.1613 -0.1886
 2339TIP3    H1 7023   4.501   5.697   4.841  0.7452 -0.1047 -1.0905
 2339TIP3    H2 7024   4.402   5.812   4.847 -0.9952 -1.6144  0.1409
 2340TIP3   OH2 7025   2.226   5.279   4.297  0.2682  0.3407  0.2147
 2340TIP3    H1 7026   2.212   5.373   4.298  0.6153  0.4212  2.4974
 2340TIP3    H2 7027   2.139   5.242   4.278 -0.3999  1.1033  1.5851
 2341TIP3   OH2 7028   4.228   0.826   4.651  0.1226 -0.2338 -0.3310
 2341TIP3    H1 7029   4.221   0.911   4.607  2.3677  0.1005 -0.1624
 2341TIP3    H2 7030   4.293   0.840   4.720 -1.2478 -1.4904  1.2899
 2342TIP3   OH2 7031   2.177   5.628   2.038 -0.1148 -0.2780 -0.0120
 2342TIP3    H1 7032   2.247   5.612   1.975 -1.2118 -1.0736 -1.0994
 2342TIP3    H2 7033   2.097   5.624   1.985 -1.0553 -0.6574  1.3860
 2343TIP3   OH2 7034   5.378   4.322   1.097  0.0422 -0.2932  0.3005
 2343TIP3    H1 7035   5.318   4.396   1.092  0.6648  0.1501 -1.0097
 2343TIP3    H2 7036   5.465   4.361   1.102  0.3853 -0.9221 -0.4515
 2344TIP3   OH2 7037   5.232   2.010   1.315 -0.0445  0.0756 -0.3099
 2344TIP3    H1 7038   5.203   1.922   1.339 -0.5249  0.6072  1.1670
 2344TIP3    H2 7039   5.328   2.004   1.313 -0.0760 -0.4764 -0.2015
 2345TIP3   OH2 7040   3.036   1.258   4.322  0.5682  0.3507  0.8437
 2345TIP3    H1 7041   2.988   1.192   4.271  0.3175  0.7774  0.5184
 2345TIP3    H2 7042   2.985   1.268   4.402 -0.6170  1.7261 -0.0462
 2346TIP3   OH2 7043   1.139   3.339   0.712 -0.0075 -0.1856 -0.4644
 2346TIP3    H1 7044   1.171   3.406   0.772 -0.9516  0.0176 -0.1780
 2346TIP3    H2 7045   1.188   3.260   0.735  0.1105  0.0559  0.1290
 2347TIP3   OH2 7046   6.243   2.410   0.098  0.0285 -0.1471 -0.4969
 2347TIP3    H1 7047   6.294   2.349   0.045  0.4978 -0.9436  0.8365
 2347TIP3    H2 7048   6.285   2.408   0.184 -1.8951 -0.3886  0.4833
 2348TIP3   OH2 7049   5.156   4.511   2.929 -0.0792 -0.8895 -0.2678
 2348TIP3    H1 7050   5.082   4.459   2.898 -0.4055 -0.4752 -0.2015
 2348TIP3    H2 7051   5.145   4.512   3.025 -1.2550  0.9819 -0.3711
 2349TIP3   OH2 7052   3.579   0.274   2.081  0.0424 -0.3394  0.3256
 2349TIP3    H1 7053   3.638   0.201   2.061  0.8011  0.3857 -0.1797
 2349TIP3    H2 7054   3.518   0.276   2.007 -0.7519 -1.2175  0.9493
 2350TIP3   OH2 7055   2.104   4.440   2.133 -0.7370 -0.3204  0.4806
 2350TIP3    H1 7056   2.072   4.397   2.213  0.1331 -1.6405  0.1407
 2350TIP3    H2 7057   2.137   4.369   2.079  0.6874  0.7603 -0.1373
 2351TIP3   OH2 7058   1.182   4.298   2.330 -0.0756 -0.1693  0.4530
 2351TIP3    H1 7059   1.242   4.233   2.366  1.6962  1.6339  0.9692
 2351TIP3    H2 7060   1.236   4.376   2.318 -1.1436  0.1580 -3.7979
 2352TIP3   OH2 7061   5.428   0.137   0.701  0.1246 -0.3645 -0.2935
 2352TIP3    H1 7062   5.381   0.070   0.652 -2.1734 -0.1652  1.4952
 2352TIP3    H2 7063   5.452   0.095   0.783  1.8956 -0.0061 -0.5660
 2353TIP3   OH2 7064   5.501   3.194   4.695  0.4154 -0.4526 -0.2800
 2353TIP3    H1 7065   5.430   3.258   4.703  0.3055 -0.6130  0.0289
 2353TIP3    H2 7066   5.474   3.121   4.751  0.3548 -0.9403 -0.9310
 2354TIP3   OH2 7067   2.584   2.922   5.111 -0.2335 -1.1825  0.3530
 2354TIP3    H1 7068   2.555   3.012   5.130  1.5725 -0.4196 -0.2775
 2354TIP3    H2 7069   2.611   2.925   5.019  1.9789 -1.7165  0.9145
 2355TIP3   OH2 7070   6.301   5.653   3.364  0.5005 -0.0664  0.1637
 2355TIP3    H1 7071   6.235   5.715   3.336  0.3954  1.0183  2.5369
 2355TIP3    H2 7072   6.256   5.596   3.426  1.2768 -0.6960  0.1691
 2356TIP3   OH2 7073   3.316   0.496   0.233  0.5165 -0.3009  0.7444
 2356TIP3    H1 7074   3.347   0.567   0.176  0.3466 -1.1765 -0.4643
 2356TIP3    H2 7075   3.246   0.454   0.183 -0.9109  0.0300  2.3708
 2357TIP3   OH2 7076   5.158   3.631   4.652 -0.2385  0.2589  0.1642
 2357TIP3    H1 7077   5.194   3.589   4.730  0.7116  0.9292  0.1070
 2357TIP3    H2 7078   5.223   3.697   4.629  0.2303 -0.8845 -2.0515
 2358TIP3   OH2 7079   0.946   4.787   2.834  0.3422 -0.6916 -0.2032
 2358TIP3    H1 7080   0.930   4.701   2.796  0.6671 -0.6867 -0.3586
 2358TIP3    H2 7081   1.021   4.774   2.892  1.3376 -0.2147 -1.3481
 2359TIP3   OH2 7082   3.607   0.357   1.272  0.1984 -0.4195 -0.4600
 2359TIP3    H1 7083   3.609   0.263   1.286  0.6771 -0.0719  2.3237
 2359TIP3    H2 7084   3.540   0.389   1.332  0.5103  1.0881 -0.8732
 2360TIP3   OH2 7085   1.088   3.331   0.396 -0.4930 -0.0834  0.3094
 2360TIP3    H1 7086   1.081   3.341   0.491  1.1407  1.7456  0.3003
 2360TIP3    H2 7087   1.028   3.396   0.360  1.5800  1.9050  0.1870
 2361TIP3   OH2 7088   0.051   1.299   3.506  0.2663  0.1121 -0.6052
 2361TIP3    H1 7089  -0.033   1.345   3.497 -0.1786 -0.4173  0.6473
 2361TIP3    H2 7090   0.098   1.349   3.573  0.2596 -0.5602 -0.0930
 2362TIP3   OH2 7091   5.785   1.190   0.682 -0.0251  0.5666  0.2661
 2362TIP3    H1 7092   5.709   1.231   0.640 -0.5816  0.3701  1.0580
 2362TIP3    H2 7093   5.787   1.101   0.647  0.0575  0.6820 -0.0255
 2363TIP3   OH2 7094   3.597   2.309   3.530  0.5637 -0.0231  0.7973
 2363TIP3    H1 7095   3.553   2.256   3.464  2.4088 -1.4718  0.6465
 2363TIP3    H2 7096   3.626   2.387   3.484  0.4513 -0.2819  0.2852
 2364TIP3   OH2 7097   5.757   5.316   4.955 -0.2407 -0.4880 -0.4543
 2364TIP3    H1 7098   5.693   5.293   4.888  0.2550 -2.5067 -0.2967
 2364TIP3    H2 7099   5.838   5.332   4.907 -0.2384 -0.4794 -0.4480
 2365TIP3   OH2 7100   5.842   2.019   1.644 -0.5397  0.3798  0.1824
 2365TIP3    H1 7101   5.771   1.989   1.587  0.1505  1.3188 -1.2470
 2365TIP3    H2 7102   5.839   2.115   1.637  1.1767  0.4339 -0.3568
 2366TIP3   OH2 7103   2.709   5.096   1.573 -0.1026  0.1277 -0.5213
 2366TIP3    H1 7104   2.727   5.117   1.481 -0.5016  0.1703 -0.5930
 2366TIP3    H2 7105   2.613   5.093   1.578 -0.1535  1.9194  0.2851
 2367TIP3   OH2 7106   3.628   3.096   3.961 -0.3648  0.3248 -0.0836
 2367TIP3    H1 7107   3.588   3.140   4.037 -0.4460 -0.5467  0.3887
 2367TIP3    H2 7108   3.689   3.033   3.999 -1.8677 -1.5621 -0.6484
 2368TIP3   OH2 7109   4.989   2.615   0.461 -0.0033 -0.1770 -0.4112
 2368TIP3    H1 7110   4.940   2.583   0.537  0.9986  1.6708  1.0668
 2368TIP3    H2 7111   5.072   2.567   0.464  0.5091  0.7363  0.3726
 2369TIP3   OH2 7112   3.435   5.183   4.985 -0.3584  0.1799 -0.0929
 2369TIP3    H1 7113   3.439   5.204   5.078  0.2242 -1.0429  0.1767
 2369TIP3    H2 7114   3.521   5.208   4.951  0.5938 -2.1943  0.3651
 2370TIP3   OH2 7115   4.276   4.860   5.005 -0.7358 -0.0878  0.0524
 2370TIP3    H1 7116   4.261   4.787   5.064 -1.1665  0.5562  0.7562
 2370TIP3    H2 7117   4.200   4.917   5.017 -0.6179  0.2678 -0.8035
 2371TIP3   OH2 7118   3.345   0.788   3.522  0.3896 -0.0016 -0.5600
 2371TIP3    H1 7119   3.347   0.873   3.479  2.1606  0.7613  0.8799
 2371TIP3    H2 7120   3.264   0.788   3.572  0.3278  0.8178 -0.6529
 2372TIP3   OH2 7121   1.937   4.999   3.606 -0.4641  0.7017  0.5900
 2372TIP3    H1 7122   2.004   4.931   3.613 -0.7291  0.5887  2.3786
 2372TIP3    H2 7123   1.982   5.073   3.564  0.6019  0.4026  1.1765
 2373TIP3   OH2 7124   0.195   2.183   1.101 -0.1966  0.4762 -0.1855
 2373TIP3    H1 7125   0.210   2.089   1.105  0.7169  0.6574  0.9473
 2373TIP3    H2 7126   0.153   2.205   1.184 -0.0521  1.1229 -0.2762
 2374TIP3   OH2 7127   1.790   3.451   0.785  1.0444 -0.3618  0.0288
 2374TIP3    H1 7128   1.775   3.533   0.739 -1.5439 -0.8156 -0.0863
 2374TIP3    H2 7129   1.811   3.388   0.717 -2.1996 -0.8997 -0.6230
 2375TIP3   OH2 7130   4.197   3.222   0.156 -0.4487 -0.4978 -0.2913
 2375TIP3    H1 7131   4.112   3.197   0.192 -1.5748  1.5454 -1.3542
 2375TIP3    H2 7132   4.232   3.141   0.119 -1.5992 -1.5259  0.7789
 2376TIP3   OH2 7133   2.814   3.409   5.112  0.1434  0.4008 -0.2430
 2376TIP3    H1 7134   2.830   3.315   5.110  1.8952  0.6825 -1.3281
 2376TIP3    H2 7135   2.770   3.428   5.029 -2.1532  0.2862  0.8647
 2377TIP3   OH2 7136   6.250   3.964   3.613  0.2268 -0.3585  0.2144
 2377TIP3    H1 7137   6.191   3.976   3.538 -1.2834 -3.3147  0.7640
 2377TIP3    H2 7138   6.232   4.038   3.670 -3.3610 -1.2576  0.5204
 2378TIP3   OH2 7139   2.133   5.880   2.686 -0.2959  0.0888  0.5558
 2378TIP3    H1 7140   2.198   5.864   2.754 -0.2116  1.1160  0.7366
 2378TIP3    H2 7141   2.108   5.793   2.655 -0.4935 -0.4178  2.0543
 2379TIP3   OH2 7142   5.760   0.186   5.185  0.2465  0.2091  0.7789
 2379TIP3    H1 7143   5.788   0.105   5.229  2.1431  0.3579 -0.0899
 2379TIP3    H2 7144   5.720   0.155   5.104  0.3660  0.1179  0.7539
 2380TIP3   OH2 7145   3.484   3.858   4.730 -0.6071  0.1297 -0.1275
 2380TIP3    H1 7146   3.443   3.918   4.667 -0.1184 -0.4717 -1.0493
 2380TIP3    H2 7147   3.410   3.816   4.775 -0.9746  0.3585 -0.5110
 2381TIP3   OH2 7148   1.030   3.516   2.338  0.4505 -0.0563 -0.0511
 2381TIP3    H1 7149   0.968   3.507   2.410  0.0063  1.7649 -0.1602
 2381TIP3    H2 7150   0.976   3.528   2.260  0.7948  3.7778  0.1404
 2382TIP3   OH2 7151   2.888   3.428   4.699  0.3344 -0.8584 -0.1161
 2382TIP3    H1 7152   2.961   3.404   4.641  0.4930 -0.2533 -0.1713
 2382TIP3    H2 7153   2.885   3.523   4.695 -1.2222 -0.9086 -1.0614
 2383TIP3   OH2 7154   5.856   2.038   0.092  0.2621  0.1431 -0.4179
 2383TIP3    H1 7155   5.895   2.062   0.176  0.7792 -1.3401 -0.1950
 2383TIP3    H2 7156   5.849   2.121   0.044  0.4848  0.9320  0.8601
 2384TIP3   OH2 7157   6.076   2.685   2.611  0.2834  0.9140  0.1446
 2384TIP3    H1 7158   6.148   2.747   2.628  1.3016 -0.2660  0.3392
 2384TIP3    H2 7159   6.113   2.623   2.548 -0.6718  0.4446  0.0382
 2385TIP3   OH2 7160   4.646   1.118   0.906 -0.0248  0.6297 -0.3078
 2385TIP3    H1 7161   4.727   1.115   0.855  0.5382 -0.0283  0.6008
 2385TIP3    H2 7162   4.629   1.027   0.930  0.1074  0.9880  1.2529
 2386TIP3   OH2 7163   2.632   3.468   0.743  0.4280 -0.8345 -0.2332
 2386TIP3    H1 7164   2.674   3.419   0.673  0.3971 -1.5273  0.2327
 2386TIP3    H2 7165   2.642   3.414   0.821  1.0896  0.2598  0.4615
 2387TIP3   OH2 7166   3.017   4.340   0.158  0.1580 -0.5730 -0.7099
 2387TIP3    H1 7167   3.053   4.296   0.234 -0.2425 -0.8842 -0.6987
 2387TIP3    H2 7168   3.060   4.299   0.083  0.4283 -0.3811 -0.6621
 2388TIP3   OH2 7169   4.466   4.660   1.526  0.2214 -0.6455 -0.2076
 2388TIP3    H1 7170   4.544   4.646   1.472  0.5318  0.1236  0.0273
 2388TIP3    H2 7171   4.494   4.640   1.615  0.3640  0.3466 -0.0226
 2389TIP3   OH2 7172   0.183   4.381   4.487  0.1584  0.3494  0.0233
 2389TIP3    H1 7173   0.217   4.343   4.406 -0.4744 -1.5826  0.5911
 2389TIP3    H2 7174   0.213   4.320   4.555 -0.1442  1.3933  1.1129
 2390TIP3   OH2 7175   2.421   4.004   3.955  0.0353  0.1005 -0.1780
 2390TIP3    H1 7176   2.492   4.062   3.982  1.5808 -1.6389 -0.2897
 2390TIP3    H2 7177   2.431   3.996   3.860 -0.2413 -0.2547 -0.1791
 2391TIP3   OH2 7178   2.788   4.413   2.726  0.0835  0.0432  0.1242
 2391TIP3    H1 7179   2.836   4.362   2.792  0.8030  0.6707  0.0996
 2391TIP3    H2 7180   2.729   4.468   2.778 -0.1187 -0.2284  0.1876
 2392TIP3   OH2 7181   3.329   5.577   3.883 -0.4225  0.2571 -0.1487
 2392TIP3    H1 7182   3.254   5.589   3.942  0.4910 -0.2304  1.1500
 2392TIP3    H2 7183   3.374   5.662   3.884 -0.6907  0.4118 -0.5836
 2393TIP3   OH2 7184   4.974   4.110   2.083  0.6178 -0.5041 -0.4101
 2393TIP3    H1 7185   4.894   4.153   2.112  0.4765  0.1252 -1.6723
 2393TIP3    H2 7186   4.947   4.021   2.061  0.1620 -0.1817 -1.2073
 2394TIP3   OH2 7187   3.932   1.288   4.298  0.1381 -0.0082  0.3052
 2394TIP3    H1 7188   4.015   1.322   4.330  1.9165 -2.1153 -1.6396
 2394TIP3    H2 7189   3.902   1.353   4.235 -0.4188  1.3847  1.9480
 2395TIP3   OH2 7190   2.473   0.792   4.045  0.1935  0.0360 -0.1559
 2395TIP3    H1 7191   2.386   0.756   4.063  0.4091  0.4174  1.8572
 2395TIP3    H2 7192   2.497   0.755   3.960 -1.5024 -0.8770 -0.2794
 2396TIP3   OH2 7193   3.431   5.661   1.098 -0.1554 -0.2210  0.7588
 2396TIP3    H1 7194   3.482   5.689   1.175  0.3004  0.2566  0.2867
 2396TIP3    H2 7195   3.341   5.657   1.130 -0.1278  1.0166  1.0603
 2397TIP3   OH2 7196   1.546   0.104   4.568 -0.2452 -0.3729  0.6047
 2397TIP3    H1 7197   1.508   0.025   4.606  1.5454 -2.0534 -0.8498
 2397TIP3    H2 7198   1.503   0.112   4.483 -0.2723  0.1204  0.6628
 2398TIP3   OH2 7199   0.218   2.596   0.144 -0.2645  0.9474 -0.0636
 2398TIP3    H1 7200   0.200   2.651   0.069 -2.7840 -0.0258 -0.2755
 2398TIP3    H2 7201   0.155   2.625   0.211 -1.0459 -0.9823  0.1127
 2399TIP3   OH2 7202   2.450   0.287   0.719  0.3764  0.0302 -0.0188
 2399TIP3    H1 7203   2.397   0.367   0.714  1.7268  1.0641  1.2700
 2399TIP3    H2 7204   2.515   0.306   0.787  0.2145 -2.4862  0.9433
 2400TIP3   OH2 7205   5.804   4.840   2.489 -0.7305  0.2654 -0.5028
 2400TIP3    H1 7206   5.733   4.816   2.548  0.7391  0.0896  1.2967
 2400TIP3    H2 7207   5.819   4.763   2.435 -4.1623  1.4030 -3.4955
 2401TIP3   OH2 7208   0.881   3.931   3.583 -0.1424 -0.1188  0.3065
 2401TIP3    H1 7209   0.971   3.907   3.604  0.6452  1.7231 -0.6835
 2401TIP3    H2 7210   0.870   3.906   3.492 -1.1553 -1.6344  0.8065
 2402TIP3   OH2 7211   5.403   0.056   1.892  0.1836  0.5285 -0.3599
 2402TIP3    H1 7212   5.485   0.017   1.922  1.2857  2.0314 -1.2909
 2402TIP3    H2 7213   5.368  -0.007   1.829 -0.5684 -1.1665  1.6048
 2403TIP3   OH2 7214   4.977   3.364   3.700  0.1412 -0.4696  0.8071
 2403TIP3    H1 7215   5.028   3.308   3.641  2.7054  2.2199  0.2612
 2403TIP3    H2 7216   4.927   3.421   3.642  0.3392  0.1746  1.2569
 2404TIP3   OH2 7217   4.747   3.633   4.776 -0.1394  0.5241 -0.5374
 2404TIP3    H1 7218   4.672   3.603   4.725  0.4506  2.8652 -2.9948
 2404TIP3    H2 7219   4.822   3.625   4.717  1.2270  0.1911  1.1492
 2405TIP3   OH2 7220   3.626   1.189   3.086 -0.0013 -0.1216 -0.2743
 2405TIP3    H1 7221   3.657   1.112   3.134  1.1027  0.1445 -0.5290
 2405TIP3    H2 7222   3.557   1.225   3.142  0.2455 -0.6566  0.3985
 2406TIP3   OH2 7223   5.949   3.121   3.401  0.3905  0.4010  0.0670
 2406TIP3    H1 7224   5.877   3.121   3.463  0.0165  0.4336 -0.3639
 2406TIP3    H2 7225   5.988   3.209   3.409 -1.5562  1.5545 -1.9080
 2407TIP3   OH2 7226   0.292   2.396   1.617  0.2796  0.5167 -0.2076
 2407TIP3    H1 7227   0.234   2.372   1.544  0.2346  1.7734 -0.6069
 2407TIP3    H2 7228   0.319   2.312   1.654 -0.3423 -0.1321 -1.1614
 2408TIP3   OH2 7229   5.477   2.825   1.296 -0.0672 -0.8930 -0.0928
 2408TIP3    H1 7230   5.556   2.878   1.291 -0.7249  0.1003 -0.1749
 2408TIP3    H2 7231   5.492   2.766   1.371  0.3268 -0.0209  0.5302
 2409TIP3   OH2 7232   0.082   4.790   1.188  0.0621  0.4006 -0.1172
 2409TIP3    H1 7233   0.055   4.875   1.222  0.3233 -0.4114  2.3057
 2409TIP3    H2 7234   0.017   4.729   1.222 -0.8257 -0.2934 -2.8258
 2410TIP3   OH2 7235   2.116   0.990   2.569 -0.2570  0.3926  0.0426
 2410TIP3    H1 7236   2.175   1.065   2.559 -0.2838  0.6884  1.7755
 2410TIP3    H2 7237   2.129   0.961   2.660 -1.5266 -0.6097 -0.0686
 2411TIP3   OH2 7238   2.211   5.026   4.942  0.2619  0.1925 -0.3788
 2411TIP3    H1 7239   2.247   4.994   4.859 -0.6803 -0.0973 -0.6928
 2411TIP3    H2 7240   2.211   4.949   4.999 -0.2297  0.0880 -0.5145
 2412TIP3   OH2 7241   1.501   5.282   3.957 -0.0750 -0.1582 -0.0933
 2412TIP3    H1 7242   1.505   5.186   3.960  1.3234 -0.1348 -0.4351
 2412TIP3    H2 7243   1.448   5.301   3.880  0.4043 -0.6628 -0.5602
 2413TIP3   OH2 7244   0.542   1.644   4.720 -0.2623 -0.4950  0.2018
 2413TIP3    H1 7245   0.561   1.736   4.706 -1.0036 -0.2974  0.4334
 2413TIP3    H2 7246   0.546   1.632   4.815 -1.2790 -0.4364  0.2615
 2414TIP3   OH2 7247   1.804   2.306   0.545 -0.2240 -0.6417  0.2233
 2414TIP3    H1 7248   1.736   2.354   0.592  0.4685 -1.0872  1.7432
 2414TIP3    H2 7249   1.859   2.375   0.508  0.1386 -0.2245  1.4652
 2415TIP3   OH2 7250   1.633   1.091   2.653  0.1565  0.0428 -0.3486
 2415TIP3    H1 7251   1.711   1.113   2.601  0.2345 -0.7194 -0.5622
 2415TIP3    H2 7252   1.615   1.170   2.703 -0.0668  0.8881 -1.7178
 2416TIP3   OH2 7253   4.996   1.265   1.760  0.0880  0.0347 -0.7632
 2416TIP3    H1 7254   4.939   1.202   1.804 -0.5128 -0.5452 -2.2781
 2416TIP3    H2 7255   4.974   1.349   1.800 -1.2114 -0.3127 -0.6862
 2417TIP3   OH2 7256   3.401   0.387   1.476 -0.2390 -0.3015 -0.4887
 2417TIP3    H1 7257   3.402   0.475   1.515  0.2319  0.2471 -1.6883
 2417TIP3    H2 7258   3.314   0.380   1.437 -0.5045 -0.6244  0.1540
 2418TIP3   OH2 7259   5.395   0.617   4.537 -0.5826 -0.2847  0.0553
 2418TIP3    H1 7260   5.353   0.543   4.581  1.7402 -2.3667 -0.9883
 2418TIP3    H2 7261   5.429   0.671   4.609 -1.0811 -0.9788  0.8373
 2419TIP3   OH2 7262   2.136   5.832   4.082 -0.4505  0.0677 -0.5484
 2419TIP3    H1 7263   2.058   5.834   4.137  0.9195 -1.3417  1.5855
 2419TIP3    H2 7264   2.128   5.750   4.033 -0.1122 -0.2668 -0.0396
 2420TIP3   OH2 7265   6.159   5.147   0.561  0.0124 -0.2283 -0.1176
 2420TIP3    H1 7266   6.185   5.072   0.507  0.1583  0.7103 -1.4140
 2420TIP3    H2 7267   6.091   5.191   0.509 -1.2039 -0.3100  1.3346
 2421TIP3   OH2 7268   2.626   4.537   4.876 -0.0911 -0.2197 -0.2596
 2421TIP3    H1 7269   2.558   4.586   4.921  0.7822 -0.0162  0.8882
 2421TIP3    H2 7270   2.608   4.445   4.897  0.9426 -0.0557  1.4541
 2422TIP3   OH2 7271   4.567   4.571   3.096  0.5596 -0.1865  0.2165
 2422TIP3    H1 7272   4.608   4.499   3.049  1.1414 -0.5223  1.2058
 2422TIP3    H2 7273   4.580   4.549   3.189  1.1624  1.4135  0.5380
 2423TIP3   OH2 7274   4.951   3.855   1.990 -0.1685 -0.4548  0.0897
 2423TIP3    H1 7275   5.031   3.817   2.027 -0.4324 -1.8941 -0.7448
 2423TIP3    H2 7276   4.882   3.833   2.053  0.1095  1.0669  0.9721
 2424TIP3   OH2 7277   5.267   3.573   2.036 -0.0605 -0.1337  0.0893
 2424TIP3    H1 7278   5.309   3.656   2.012  0.8161 -0.2679  1.0515
 2424TIP3    H2 7279   5.339   3.510   2.039 -0.2361 -0.3172  2.0552
 2425TIP3   OH2 7280   0.019   4.149   4.683 -0.4599 -0.1756  0.1142
 2425TIP3    H1 7281   0.003   4.158   4.589 -2.3031  1.0472  0.4916
 2425TIP3    H2 7282   0.113   4.162   4.692 -0.2542 -0.2778 -1.5615
 2426TIP3   OH2 7283   0.077   0.640   3.350  0.9509  0.2094 -0.3680
 2426TIP3    H1 7284   0.044   0.658   3.262 -0.1998  1.6713  0.3024
 2426TIP3    H2 7285   0.074   0.725   3.394 -1.1891 -0.9069  1.9197
 2427TIP3   OH2 7286   0.117   5.817   2.103  0.1422 -0.0479 -0.0669
 2427TIP3    H1 7287   0.168   5.801   2.183  0.7345  2.0656  0.0313
 2427TIP3    H2 7288   0.182   5.832   2.035 -0.3396  0.4532 -0.4342
 2428TIP3   OH2 7289   0.588   4.198   4.284 -0.4665 -0.2096  0.3176
 2428TIP3    H1 7290   0.510   4.245   4.256  0.1926  0.5126 -0.3375
 2428TIP3    H2 7291   0.649   4.206   4.211 -0.0181 -1.3499  0.5396
 2429TIP3   OH2 7292   1.472   4.972   3.336  0.2389 -0.3203 -0.5701
 2429TIP3    H1 7293   1.488   5.056   3.295 -2.6844  1.2345  1.1151
 2429TIP3    H2 7294   1.470   4.991   3.430 -0.1198 -2.3330 -0.1137
 2430TIP3   OH2 7295   5.580   2.168   0.676 -0.6217  0.1412 -0.4464
 2430TIP3    H1 7296   5.504   2.167   0.617 -0.3732  0.0557 -0.7688
 2430TIP3    H2 7297   5.580   2.257   0.712  1.1351  1.3832 -3.1314
 2431TIP3   OH2 7298   4.063   5.365   2.415  0.1202  0.0985  0.6187
 2431TIP3    H1 7299   4.084   5.375   2.508 -1.4899  1.3313  0.9025
 2431TIP3    H2 7300   3.976   5.326   2.414 -0.9614  2.3072 -0.2509
 2432TIP3   OH2 7301   1.459   0.198   3.468 -0.2879 -0.4550  0.2495
 2432TIP3    H1 7302   1.554   0.186   3.461 -0.4148 -0.6408 -2.0527
 2432TIP3    H2 7303   1.444   0.288   3.438 -0.8299 -0.2985  0.9580
 2433TIP3   OH2 7304   5.303   0.815   0.125  0.0695 -0.1458  0.2912
 2433TIP3    H1 7305   5.345   0.893   0.161  1.5697  0.0262 -1.6588
 2433TIP3    H2 7306   5.297   0.755   0.199  1.1976  0.8936  1.2799
 2434TIP3   OH2 7307   0.269   1.031   0.594  0.0700 -0.0559  0.1277
 2434TIP3    H1 7308   0.324   0.964   0.554 -1.9807 -0.5727 -2.0249
 2434TIP3    H2 7309   0.302   1.114   0.559 -0.2537 -0.3351 -0.8682
 2435TIP3   OH2 7310   4.952   0.201   0.133  0.3024  0.5444 -0.4622
 2435TIP3    H1 7311   4.991   0.114   0.125 -1.0375 -0.0774 -0.4704
 2435TIP3    H2 7312   5.019   0.261   0.097  1.2106 -0.4687 -0.5113
 2436TIP3   OH2 7313   3.887  -0.007   4.608  0.0951 -0.0351 -0.1774
 2436TIP3    H1 7314   3.940   0.020   4.682 -1.4771 -1.3340  1.5182
 2436TIP3    H2 7315   3.824   0.065   4.596 -0.5739 -0.4469  0.7376
 2437TIP3   OH2 7316   4.242   1.454   2.584 -0.0454  0.1408 -0.0353
 2437TIP3    H1 7317   4.155   1.490   2.605  0.6513  2.0016 -0.1142
 2437TIP3    H2 7318   4.272   1.507   2.510  0.4345 -1.6917 -1.2243
 2438TIP3   OH2 7319   5.327   5.039   2.794 -0.1091  0.2165 -0.2108
 2438TIP3    H1 7320   5.246   5.059   2.748 -0.7374 -0.8426  0.3923
 2438TIP3    H2 7321   5.332   5.105   2.863 -0.1078  0.6888 -0.6584
 2439TIP3   OH2 7322   0.840   2.661   3.945 -0.3685  0.6544  0.2286
 2439TIP3    H1 7323   0.807   2.572   3.953  0.5189  0.2691 -0.2934
 2439TIP3    H2 7324   0.832   2.697   4.033  0.7153 -0.4610  0.8075
 2440TIP3   OH2 7325   5.378   1.537   5.073 -0.1189 -0.2805  0.3334
 2440TIP3    H1 7326   5.427   1.574   5.000 -0.4626 -1.1116 -0.3462
 2440TIP3    H2 7327   5.287   1.537   5.043 -0.2388 -0.7918  0.6852
 2441TIP3   OH2 7328   5.462   2.144   1.577 -0.7256 -0.7942 -0.0033
 2441TIP3    H1 7329   5.489   2.196   1.654 -0.4649  0.0093 -0.6207
 2441TIP3    H2 7330   5.544   2.111   1.541 -0.8741 -1.4314  0.2360
 2442TIP3   OH2 7331   0.493   0.501   4.906 -0.3632 -1.2171  0.1434
 2442TIP3    H1 7332   0.574   0.459   4.878  0.5888  0.4978  0.1949
 2442TIP3    H2 7333   0.520   0.588   4.937 -2.3470 -0.0661 -1.0717
 2443TIP3   OH2 7334   3.614   2.875   2.915 -0.2374 -0.6443  0.3733
 2443TIP3    H1 7335   3.609   2.894   2.822 -3.1012  1.5458  0.8116
 2443TIP3    H2 7336   3.695   2.918   2.944  1.0432 -1.9170 -1.1225
 2444TIP3   OH2 7337   5.152   2.608   4.174 -0.1574  0.3232 -0.3097
 2444TIP3    H1 7338   5.135   2.588   4.266  1.1434  1.8746  0.3077
 2444TIP3    H2 7339   5.115   2.534   4.127 -1.3600 -0.2471  1.4158
 2445TIP3   OH2 7340   5.355   1.149   2.607 -0.1132 -0.1349  0.6570
 2445TIP3    H1 7341   5.385   1.107   2.526  0.6028  2.1142 -0.3310
 2445TIP3    H2 7342   5.436   1.175   2.652 -0.4168  2.5970 -0.1675
 2446TIP3   OH2 7343   1.484   0.775   3.367 -0.6845 -0.2487  0.2980
 2446TIP3    H1 7344   1.460   0.788   3.275 -1.8441  0.6369  0.6998
 2446TIP3    H2 7345   1.574   0.741   3.364 -0.7174 -0.2744 -1.1528
 2447TIP3   OH2 7346   0.776   2.705   3.631 -0.7397  0.4887 -0.3067
 2447TIP3    H1 7347   0.799   2.681   3.720  0.4546  0.7202 -0.5368
 2447TIP3    H2 7348   0.857   2.740   3.593 -0.7735 -1.1425 -2.0203
 2448TIP3   OH2 7349   4.740   5.665   0.862 -0.0712 -0.2624  0.0802
 2448TIP3    H1 7350   4.721   5.581   0.822 -0.5677 -0.9127  1.5764
 2448TIP3    H2 7351   4.726   5.650   0.956 -0.3544  1.5279  0.3630
 2449TIP3   OH2 7352   4.263   4.317   5.023 -0.2933 -0.0397  0.1621
 2449TIP3    H1 7353   4.332   4.305   4.958  1.0703  0.1237  1.5228
 2449TIP3    H2 7354   4.227   4.230   5.037  2.4604 -0.9340  2.4042
 2450TIP3   OH2 7355   2.574   1.308   1.111 -0.3361 -0.5114  0.1238
 2450TIP3    H1 7356   2.516   1.346   1.045 -0.8565 -0.3254  0.6779
 2450TIP3    H2 7357   2.657   1.354   1.101 -0.9568  0.8045  0.8001
 2451TIP3   OH2 7358   6.036   2.053   5.038  0.1267  0.1781 -0.1629
 2451TIP3    H1 7359   5.978   2.058   5.114 -0.6842 -0.9705 -0.6841
 2451TIP3    H2 7360   6.041   2.143   5.006 -1.7279  0.2574 -0.3503
 2452TIP3   OH2 7361   4.721   4.414   0.081 -0.1046 -0.0376  0.3588
 2452TIP3    H1 7362   4.637   4.413   0.127 -0.9747 -0.7290 -1.1454
 2452TIP3    H2 7363   4.736   4.322   0.058  0.1139  0.3131 -0.9896
 2453TIP3   OH2 7364   3.920   2.376   0.778 -0.4857 -0.3886  0.3350
 2453TIP3    H1 7365   3.905   2.381   0.683  1.5786 -1.1984 -0.0906
 2453TIP3    H2 7366   4.010   2.407   0.789 -0.2458 -1.5272  1.8629
 2454TIP3   OH2 7367   5.628   3.326   0.104  0.4989 -0.1861 -0.1786
 2454TIP3    H1 7368   5.534   3.340   0.115  0.2741 -0.3193 -1.7032
 2454TIP3    H2 7369   5.640   3.232   0.121  0.5436  0.0383  1.0863
 2455TIP3   OH2 7370   1.408   2.032   4.545  0.0289 -0.4581 -0.3086
 2455TIP3    H1 7371   1.374   1.984   4.620  1.1242 -0.4402  0.2157
 2455TIP3    H2 7372   1.331   2.047   4.489 -0.4514 -2.2571 -0.1979
 2456TIP3   OH2 7373   1.417   1.399   2.438 -0.5655  0.4000  0.0663
 2456TIP3    H1 7374   1.340   1.350   2.469  0.2424 -0.0080  1.5418
 2456TIP3    H2 7375   1.394   1.427   2.350 -1.1892 -2.4697 -0.7947
 2457TIP3   OH2 7376   3.271   4.660   4.379  0.0304 -0.1476  0.2551
 2457TIP3    H1 7377   3.276   4.684   4.471 -0.6093 -1.0933  0.5523
 2457TIP3    H2 7378   3.245   4.740   4.334 -0.5104  0.1141  1.0160
 2458TIP3   OH2 7379   5.120   5.209   3.354  0.0364  0.4630 -0.2390
 2458TIP3    H1 7380   5.153   5.289   3.314  0.4318  0.2969 -0.2449
 2458TIP3    H2 7381   5.160   5.138   3.303  0.4239  0.2544  0.3469
 2459TIP3   OH2 7382   4.473   4.486   3.854 -0.3851  0.0077 -0.6130
 2459TIP3    H1 7383   4.481   4.454   3.943 -2.9082  1.2177  0.1667
 2459TIP3    H2 7384   4.547   4.448   3.807  2.0288  0.6696  2.3458
 2460TIP3   OH2 7385   0.713   0.971   5.009  0.0663  0.7877 -0.0277
 2460TIP3    H1 7386   0.803   0.958   4.981 -0.3108 -0.7671 -0.6140
 2460TIP3    H2 7387   0.662   0.971   4.928 -0.9615 -3.0985  0.4185
 2461TIP3   OH2 7388   1.165   2.991   1.261  0.4353  0.2639 -0.0558
 2461TIP3    H1 7389   1.242   2.967   1.312 -0.5311  0.4491  1.5394
 2461TIP3    H2 7390   1.128   2.907   1.232  0.3858  0.0959  0.4838
 2462TIP3   OH2 7391   4.427   0.802   1.276  1.1226 -0.7576  0.1507
 2462TIP3    H1 7392   4.399   0.839   1.360  0.9976  1.0424 -0.6602
 2462TIP3    H2 7393   4.511   0.844   1.257  0.4009  0.0656 -1.3719
 2463TIP3   OH2 7394   3.512   5.045   3.590 -0.0811  0.3273 -0.0638
 2463TIP3    H1 7395   3.491   5.116   3.529 -2.7332  0.8594  1.3421
 2463TIP3    H2 7396   3.429   5.023   3.631  1.1424 -1.8440  1.4533
 2464TIP3   OH2 7397   0.246   2.223   4.273 -0.8081  0.0361  0.2968
 2464TIP3    H1 7398   0.184   2.290   4.247 -0.5838 -0.0460 -0.5025
 2464TIP3    H2 7399   0.269   2.179   4.191 -0.7104 -0.8021  0.7631
 2465TIP3   OH2 7400   0.540   4.066   2.408 -0.0182  0.5396  0.4861
 2465TIP3    H1 7401   0.596   4.133   2.369  0.0310  1.4821  2.0903
 2465TIP3    H2 7402   0.453   4.105   2.409 -1.1781 -1.4529 -3.3146
 2466TIP3   OH2 7403   6.255   5.850   1.368 -0.4418  0.5894  0.0527
 2466TIP3    H1 7404   6.300   5.884   1.290 -0.0783  0.3606  0.1638
 2466TIP3    H2 7405   6.182   5.910   1.381 -1.6511 -0.4510 -1.5895
 2467TIP3   OH2 7406   0.503   4.170   3.430  0.1415  0.5785 -0.4662
 2467TIP3    H1 7407   0.497   4.097   3.491  0.1258  0.4091 -0.6693
 2467TIP3    H2 7408   0.417   4.175   3.389  0.5228 -0.1077 -1.3783
 2468TIP3   OH2 7409   4.403   4.307   1.615  0.4019  0.2768 -0.1003
 2468TIP3    H1 7410   4.394   4.369   1.541 -2.5790  0.0716  0.0043
 2468TIP3    H2 7411   4.436   4.227   1.574 -1.6204  0.0173 -1.3879
 2469TIP3   OH2 7412   6.067   2.891   2.073  0.5480  0.1695 -0.8238
 2469TIP3    H1 7413   6.048   2.908   2.166  1.9545  0.9088 -0.6433
 2469TIP3    H2 7414   6.095   2.800   2.071  1.0625  0.3139 -0.4205
 2470TIP3   OH2 7415   4.478   0.138   1.170 -0.2504 -0.0822 -0.4601
 2470TIP3    H1 7416   4.410   0.196   1.137 -0.6838 -1.6315 -2.4418
 2470TIP3    H2 7417   4.550   0.147   1.108  0.0114 -1.0060 -0.3056
 2471TIP3   OH2 7418   1.671   3.219   1.664  0.3287 -0.0251 -0.0861
 2471TIP3    H1 7419   1.630   3.201   1.748  0.0533  0.5215 -0.0989
 2471TIP3    H2 7420   1.613   3.177   1.600  1.1478 -1.4229  0.0675
 2472TIP3   OH2 7421   0.372   1.220   1.373  0.0076  0.1662 -0.1531
 2472TIP3    H1 7422   0.325   1.242   1.453 -0.9470  0.9038 -0.9086
 2472TIP3    H2 7423   0.442   1.285   1.368 -0.8039  1.0178 -0.6547
 2473TIP3   OH2 7424   4.918   4.538   3.339 -0.1693  0.3353  0.1170
 2473TIP3    H1 7425   4.928   4.496   3.424  0.6783  0.1552 -0.0661
 2473TIP3    H2 7426   4.844   4.598   3.350 -0.8234 -0.5392  0.6392
 2474TIP3   OH2 7427   0.932   5.853   0.042  0.4466  0.0360 -0.4230
 2474TIP3    H1 7428   0.886   5.837   0.125  0.0439 -1.6885 -0.9422
 2474TIP3    H2 7429   1.010   5.902   0.067  0.0951 -0.0526  0.9207
 2475TIP3   OH2 7430   5.445   2.886   3.182 -0.2714 -0.5924 -0.0984
 2475TIP3    H1 7431   5.392   2.909   3.259  0.4376 -0.7884  0.4565
 2475TIP3    H2 7432   5.451   2.967   3.132  1.4303  0.2425  1.3628
 2476TIP3   OH2 7433   5.962   5.625   1.610  0.4314 -0.4107  0.2182
 2476TIP3    H1 7434   5.889   5.674   1.647  0.3650 -0.0026 -0.4383
 2476TIP3    H2 7435   5.992   5.568   1.681  0.0295  0.0418  0.7526
 2477TIP3   OH2 7436   2.026   2.105   4.110 -0.2212  0.3773 -0.1231
 2477TIP3    H1 7437   2.023   2.060   4.026  0.8404  2.1547 -1.1897
 2477TIP3    H2 7438   2.023   2.036   4.176  0.3366 -1.1380 -1.6485
 2478TIP3   OH2 7439   6.094   1.519   0.483  0.2546 -0.5422  0.3634
 2478TIP3    H1 7440   6.074   1.491   0.572 -1.0979  1.4906  0.7756
 2478TIP3    H2 7441   6.189   1.511   0.476  0.4951  0.0964  2.3076
 2479TIP3   OH2 7442   4.524   0.728   0.588 -0.5032 -0.8545  0.1384
 2479TIP3    H1 7443   4.536   0.654   0.528 -0.1375 -0.2368 -0.5578
 2479TIP3    H2 7444   4.562   0.698   0.671  2.6321 -0.3238 -0.9766
 2480TIP3   OH2 7445   1.730   3.825   2.925  0.7768  0.2677 -0.2638
 2480TIP3    H1 7446   1.657   3.800   2.868  0.4809  0.3683  0.0693
 2480TIP3    H2 7447   1.781   3.744   2.936  1.0925  0.3550 -1.0392
 2481TIP3   OH2 7448   1.498   2.376   3.925 -0.7282  0.0724 -0.3962
 2481TIP3    H1 7449   1.531   2.447   3.871 -0.4411 -0.1130 -0.4647
 2481TIP3    H2 7450   1.403   2.389   3.927 -0.6798  0.4222 -0.4543
 2482TIP3   OH2 7451   0.504   1.905   5.107 -1.0121  0.1538 -0.0120
 2482TIP3    H1 7452   0.420   1.859   5.108 -1.4315  0.6983 -2.6488
 2482TIP3    H2 7453   0.511   1.945   5.194 -2.5270 -1.4974  0.9352
 2483TIP3   OH2 7454   2.983   0.370   4.559 -0.1461  0.0192  0.4367
 2483TIP3    H1 7455   3.075   0.388   4.538  0.0751 -1.6229 -0.1519
 2483TIP3    H2 7456   2.988   0.309   4.633 -0.7818  0.0700  0.5249
 2484TIP3   OH2 7457   6.098   4.412   5.065 -0.1999  0.1443 -0.0716
 2484TIP3    H1 7458   6.141   4.495   5.046 -0.3286 -0.1307 -1.6964
 2484TIP3    H2 7459   6.042   4.396   4.989 -1.5856 -0.5385  1.0428
 2485TIP3   OH2 7460   5.105   0.315   0.494  0.3020 -0.6521  0.2950
 2485TIP3    H1 7461   5.084   0.354   0.409 -0.2606 -1.4102  0.0757
 2485TIP3    H2 7462   5.117   0.390   0.552  2.6971 -0.0227 -0.8739
 2486TIP3   OH2 7463   3.136   4.676   3.751  0.2794 -0.3844  0.6267
 2486TIP3    H1 7464   3.058   4.730   3.757  0.2037 -0.4754  0.4790
 2486TIP3    H2 7465   3.105   4.586   3.765  0.4459 -0.3649  1.1514
 2487TIP3   OH2 7466   0.117   0.105   1.685  0.5759  0.2104 -0.1016
 2487TIP3    H1 7467   0.201   0.102   1.730 -0.7452 -1.7711  2.4416
 2487TIP3    H2 7468   0.090   0.014   1.677 -1.0756  0.7548 -1.4407
 2488TIP3   OH2 7469   1.377   4.781   0.828  1.0845 -0.2171  0.2791
 2488TIP3    H1 7470   1.308   4.808   0.889  1.1276 -0.7202  0.5533
 2488TIP3    H2 7471   1.454   4.767   0.882  0.7733 -1.9851  0.3213
 2489TIP3   OH2 7472   3.940   5.831   2.736 -0.1110  0.2807 -0.5459
 2489TIP3    H1 7473   3.975   5.869   2.656 -1.8405 -0.5303 -1.7510
 2489TIP3    H2 7474   3.937   5.737   2.718 -0.9783  0.1393  0.2600
 2490TIP3   OH2 7475   4.850   1.838   1.269  0.0786 -0.3419  0.4523
 2490TIP3    H1 7476   4.806   1.753   1.265  1.5881 -1.1171 -1.7654
 2490TIP3    H2 7477   4.899   1.836   1.351 -1.5008 -0.7418  1.4169
 2491TIP3   OH2 7478   3.555   5.472   2.275  0.5109 -0.0948  0.7184
 2491TIP3    H1 7479   3.633   5.514   2.240 -0.2489  0.9305  0.1822
 2491TIP3    H2 7480   3.524   5.532   2.343 -0.8810  0.5380 -0.4082
 2492TIP3   OH2 7481   0.034   4.386   0.370  0.5420  0.1787  0.3290
 2492TIP3    H1 7482   0.069   4.468   0.405  0.9803 -0.2073  0.8131
 2492TIP3    H2 7483  -0.048   4.411   0.327  0.9962  0.9674 -0.0926
 2493TIP3   OH2 7484   0.771   4.564   2.281  0.1275  0.0903 -0.4766
 2493TIP3    H1 7485   0.782   4.633   2.215  0.2829  0.0861 -0.4556
 2493TIP3    H2 7486   0.855   4.518   2.281  0.9122  1.3903  1.2280
 2494TIP3   OH2 7487   4.277   0.568   2.419 -0.4038 -0.0939  0.0366
 2494TIP3    H1 7488   4.289   0.663   2.414  0.7996 -0.2434 -0.0936
 2494TIP3    H2 7489   4.308   0.545   2.507 -0.5597 -0.3876  0.0155
 2495TIP3   OH2 7490   0.232   2.940   0.427  0.1981 -0.7031 -0.0254
 2495TIP3    H1 7491   0.159   2.878   0.421  0.1905 -0.6104 -0.9156
 2495TIP3    H2 7492   0.190   3.026   0.429  0.2677 -0.6688 -0.0635
 2496TIP3   OH2 7493   2.225   3.895   2.301 -0.0079  0.1151  0.0005
 2496TIP3    H1 7494   2.134   3.919   2.320  0.3112  1.1061  0.3690
 2496TIP3    H2 7495   2.249   3.836   2.373  0.1979  1.3247  0.9602
 2497TIP3   OH2 7496   4.361   1.929   4.188  0.0507 -0.2908 -0.8509
 2497TIP3    H1 7497   4.368   1.859   4.123 -0.8686 -1.5199  0.3160
 2497TIP3    H2 7498   4.324   2.003   4.140  0.5965 -0.7312 -1.9975
 2498TIP3   OH2 7499   0.280   1.474   1.895 -0.3652  0.5453 -0.5183
 2498TIP3    H1 7500   0.371   1.449   1.909  0.1351  2.2686 -0.4381
 2498TIP3    H2 7501   0.234   1.444   1.974  0.2374  0.1788 -0.3047
 2499TIP3   OH2 7502   2.452   4.425   0.443 -0.4184 -0.0904  0.4663
 2499TIP3    H1 7503   2.366   4.464   0.429 -0.8958 -1.2237  0.0713
 2499TIP3    H2 7504   2.434   4.331   0.451  0.6020 -0.1900  2.0232
 2500TIP3   OH2 7505   0.549   4.227   0.264  0.3643 -0.7706 -0.5138
 2500TIP3    H1 7506   0.620   4.183   0.217  2.2971  1.0577  0.5116
 2500TIP3    H2 7507   0.542   4.178   0.347  1.7891  0.1347  0.1832
 2501TIP3   OH2 7508   5.332   1.445   0.505 -0.3534 -0.0192 -0.0197
 2501TIP3    H1 7509   5.353   1.529   0.545  2.0363  0.5411 -2.2153
 2501TIP3    H2 7510   5.269   1.467   0.436  1.0483  0.1753 -1.2678
 2502TIP3   OH2 7511   2.913   0.902   3.395 -0.0928 -0.2579 -0.4603
 2502TIP3    H1 7512   2.861   0.823   3.409 -1.8194  0.2925 -3.1234
 2502TIP3    H2 7513   3.004   0.872   3.402 -0.6547 -2.7213 -2.2146
 2503TIP3   OH2 7514   5.009   4.114   2.653 -0.0128 -0.3544 -0.3844
 2503TIP3    H1 7515   5.002   4.181   2.721  1.0354  0.2284 -0.8224
 2503TIP3    H2 7516   4.924   4.071   2.652 -0.0041 -0.4671  1.3889
 2504TIP3   OH2 7517   5.216   1.770   4.871 -0.0211 -0.1660 -0.0833
 2504TIP3    H1 7518   5.288   1.832   4.868 -0.5064  0.3647 -1.4444
 2504TIP3    H2 7519   5.204   1.752   4.964  0.2330  1.6362  0.3264
 2505TIP3   OH2 7520   0.759   2.894   1.062 -0.0164 -0.4903  0.2424
 2505TIP3    H1 7521   0.763   2.949   1.141 -2.4887 -1.0959  0.8847
 2505TIP3    H2 7522   0.807   2.943   0.996  0.3170  1.0594  1.5666
 2506TIP3   OH2 7523   5.628   2.097   4.628 -0.3089 -0.2273  0.1127
 2506TIP3    H1 7524   5.671   2.093   4.542 -0.8438 -2.0573 -0.1129
 2506TIP3    H2 7525   5.700   2.088   4.691 -0.2034 -2.7441 -0.2561
 2507TIP3   OH2 7526   3.477   1.398   3.961  0.0244 -0.2532  0.4860
 2507TIP3    H1 7527   3.530   1.420   4.038  0.1946  0.6976  0.1196
 2507TIP3    H2 7528   3.541   1.373   3.895 -0.1168 -0.9960  0.6306
 2508TIP3   OH2 7529   0.132   4.160   2.820  0.6087  0.1267 -0.0830
 2508TIP3    H1 7530   0.046   4.154   2.861  0.5780 -0.8166 -0.2772
 2508TIP3    H2 7531   0.192   4.180   2.892  0.2211  0.9145  0.0351
 2509TIP3   OH2 7532   2.699   2.554   0.100 -0.1101  0.1269  0.0041
 2509TIP3    H1 7533   2.654   2.500   0.165 -1.3668 -0.9413 -1.6839
 2509TIP3    H2 7534   2.784   2.511   0.088  0.3137  0.5752  1.1846
 2510TIP3   OH2 7535   5.901   4.293   3.288  0.1473 -0.2106 -0.3057
 2510TIP3    H1 7536   5.917   4.359   3.221 -0.9677 -1.0189 -1.4106
 2510TIP3    H2 7537   5.834   4.332   3.344  1.8740  0.9278  1.0676
 2511TIP3   OH2 7538   3.228   2.080   1.512  0.8961 -0.2349  0.9716
 2511TIP3    H1 7539   3.314   2.076   1.555  0.6664 -0.2912  1.4328
 2511TIP3    H2 7540   3.248   2.091   1.420  1.4233 -1.2374  0.9457
 2512TIP3   OH2 7541   4.389   3.517   2.967 -0.6302  0.5667  0.2507
 2512TIP3    H1 7542   4.373   3.597   3.017 -0.8726  0.7286 -0.0799
 2512TIP3    H2 7543   4.302   3.491   2.936 -0.7065 -0.4246  1.2466
 2513TIP3   OH2 7544   1.061   2.076   2.318  0.0954 -0.0903 -0.0315
 2513TIP3    H1 7545   0.984   2.022   2.334 -0.5127  0.3448 -1.3844
 2513TIP3    H2 7546   1.033   2.165   2.341  0.2931  0.0311 -0.2562
 2514TIP3   OH2 7547   4.965   0.376   1.163 -0.5599  0.3846  0.1577
 2514TIP3    H1 7548   4.896   0.443   1.162  0.0644  1.0521  0.4854
 2514TIP3    H2 7549   4.932   0.309   1.222 -0.6572  1.0048  0.8240
 2515TIP3   OH2 7550   1.319   4.363   0.529  0.0854 -0.1882  0.1898
 2515TIP3    H1 7551   1.381   4.305   0.573  2.7527  1.2511 -1.3736
 2515TIP3    H2 7552   1.312   4.439   0.586  0.3322 -0.0542  0.0440
 2516TIP3   OH2 7553   3.583   4.418   1.596  0.4667 -0.3276  0.2167
 2516TIP3    H1 7554   3.636   4.436   1.674  2.0689 -1.5600 -0.5184
 2516TIP3    H2 7555   3.618   4.477   1.529  1.8362 -2.0042 -0.6181
 2517TIP3   OH2 7556   5.736   4.079   4.460 -0.6653 -0.1323  0.0245
 2517TIP3    H1 7557   5.653   4.125   4.463 -0.5434  0.3178 -1.8852
 2517TIP3    H2 7558   5.751   4.063   4.366  0.6329 -1.6091  0.4283
 2518TIP3   OH2 7559   2.704   3.792   1.001  0.0466 -0.0553  0.3535
 2518TIP3    H1 7560   2.626   3.736   1.002  0.6407 -0.8827  0.4163
 2518TIP3    H2 7561   2.765   3.749   0.941  0.2269  0.9240 -0.1990
 2519TIP3   OH2 7562   1.230   3.099   0.374  0.2231 -0.6021  0.3723
 2519TIP3    H1 7563   1.233   3.080   0.280  1.7613  0.2898  0.2049
 2519TIP3    H2 7564   1.175   3.177   0.381 -0.4192 -1.0419  0.2941
 2520TIP3   OH2 7565   1.923   3.268   1.245  0.1548 -0.1281  0.1495
 2520TIP3    H1 7566   1.854   3.309   1.192  0.3091  0.7226  0.5962
 2520TIP3    H2 7567   1.877   3.232   1.321  0.3173  1.4291  1.0231
 2521TIP3   OH2 7568   6.265   0.810   2.633  0.2687 -0.2259  0.3681
 2521TIP3    H1 7569   6.265   0.861   2.714  2.6571 -0.6050  0.6850
 2521TIP3    H2 7570   6.237   0.872   2.566 -0.2036  0.5360  1.2465
 2522TIP3   OH2 7571   1.754   1.637   0.774 -0.2216  0.1197 -0.3036
 2522TIP3    H1 7572   1.754   1.594   0.860 -2.1721 -1.8297 -1.1759
 2522TIP3    H2 7573   1.846   1.650   0.754  0.3286 -0.6226  1.5042
 2523TIP3   OH2 7574   3.126   3.104   0.818 -0.3042  0.1538  0.5104
 2523TIP3    H1 7575   3.064   3.171   0.846 -0.1089 -0.1290  1.6620
 2523TIP3    H2 7576   3.209   3.151   0.809 -0.1308  0.0517  1.4787
 2524TIP3   OH2 7577   0.865   1.185   0.280 -0.0922 -0.0530  0.1692
 2524TIP3    H1 7578   0.842   1.092   0.277 -0.8581  0.1477 -0.4663
 2524TIP3    H2 7579   0.914   1.199   0.199 -1.6776  0.5154 -0.7278
 2525TIP3   OH2 7580   4.305   0.794   0.356 -0.0639 -0.3866  0.4818
 2525TIP3    H1 7581   4.230   0.798   0.296 -0.6191  0.9835  1.2052
 2525TIP3    H2 7582   4.268   0.760   0.438  0.7367 -2.4664  0.0397
 2526TIP3   OH2 7583   5.473   2.296   0.192  0.1123  0.4222 -0.0722
 2526TIP3    H1 7584   5.490   2.212   0.236 -1.4430 -0.5694 -1.2756
 2526TIP3    H2 7585   5.474   2.360   0.263 -3.5577 -1.2655  1.7960
 2527TIP3   OH2 7586   4.702   2.067   1.177  0.3286  0.6106 -0.2953
 2527TIP3    H1 7587   4.709   2.030   1.088 -1.7915  0.4626 -0.4323
 2527TIP3    H2 7588   4.736   1.998   1.234 -1.7858 -0.8662 -0.7180
 2528TIP3   OH2 7589   5.682   2.036   2.482 -0.4296  0.5054  0.1992
 2528TIP3    H1 7590   5.620   2.007   2.415  1.3266 -0.8988 -0.8892
 2528TIP3    H2 7591   5.757   2.070   2.433  0.9161 -0.5852  1.3892
 2529TIP3   OH2 7592   2.755   4.165   0.010  0.4388  0.4180 -0.2922
 2529TIP3    H1 7593   2.806   4.148   0.089  0.3791  2.6871  0.3164
 2529TIP3    H2 7594   2.782   4.097  -0.051  0.7151 -1.2176  1.5429
 2530TIP3   OH2 7595   6.268   4.269   1.482  0.3692 -0.4005 -0.2150
 2530TIP3    H1 7596   6.252   4.354   1.523  1.9526  0.3318 -1.0256
 2530TIP3    H2 7597   6.361   4.252   1.498  0.2786 -1.5699 -0.8226
 2531TIP3   OH2 7598   0.382   4.351   1.969 -0.2526  0.3198  0.1180
 2531TIP3    H1 7599   0.428   4.274   1.937 -0.3961  0.1619  0.2919
 2531TIP3    H2 7600   0.450   4.403   2.012 -0.1063  0.4189 -0.2302
 2532TIP3   OH2 7601   2.877   4.078   0.231 -0.3780  0.2033  0.0076
 2532TIP3    H1 7602   2.843   4.067   0.320  0.1657  0.7540  0.2882
 2532TIP3    H2 7603   2.967   4.046   0.235 -0.8377 -1.2749 -0.7382
 2533TIP3   OH2 7604   6.069   5.025   2.641  0.3084  0.1761  0.1774
 2533TIP3    H1 7605   6.037   4.964   2.707 -0.5648  0.8401  0.3856
 2533TIP3    H2 7606   6.117   5.092   2.690  0.0360  0.4277  0.1093
 2534TIP3   OH2 7607   2.285   1.262   1.170  0.0798 -0.7478  0.3789
 2534TIP3    H1 7608   2.262   1.254   1.263  3.1227 -2.2965  1.1139
 2534TIP3    H2 7609   2.315   1.353   1.161  1.5069 -1.0968  1.3935
 2535TIP3   OH2 7610   1.552   0.085   1.185  0.2231  0.4375 -0.1236
 2535TIP3    H1 7611   1.592   0.003   1.155  1.2418  1.2101 -0.9322
 2535TIP3    H2 7612   1.487   0.107   1.118 -1.5091 -0.6986  1.0765
 2536TIP3   OH2 7613   6.135   4.391   2.360 -0.1257 -0.3034  0.4000
 2536TIP3    H1 7614   6.195   4.460   2.388  0.2186 -0.8621  1.0615
 2536TIP3    H2 7615   6.167   4.366   2.274  1.1241 -1.1776  1.0945
 2537TIP3   OH2 7616   1.288   1.601   3.381 -0.0013  0.3682 -0.0238
 2537TIP3    H1 7617   1.233   1.607   3.303 -0.3645  0.6137  0.2495
 2537TIP3    H2 7618   1.257   1.523   3.426  0.9931 -0.4498 -0.7173
 2538TIP3   OH2 7619   4.916   2.810   4.902 -0.5156 -0.1563  1.2183
 2538TIP3    H1 7620   4.893   2.813   4.994 -0.2179  0.2357  1.2812
 2538TIP3    H2 7621   4.844   2.854   4.857 -0.9880 -0.9328  1.1942
 2539TIP3   OH2 7622   3.073   2.332   1.748  0.2983 -0.4447 -0.3427
 2539TIP3    H1 7623   3.056   2.271   1.676  0.5075  1.2033 -1.8559
 2539TIP3    H2 7624   3.153   2.300   1.788  0.3879 -1.1851 -1.0837
 2540TIP3   OH2 7625   3.672   5.255   0.556  0.2464  0.5773 -0.1432
 2540TIP3    H1 7626   3.654   5.171   0.600  1.8873  0.2734 -0.0115
 2540TIP3    H2 7627   3.596   5.268   0.500 -0.4321 -0.5885  0.4535
 2541TIP3   OH2 7628   5.732   4.326   2.468  0.3817  0.0830 -0.9347
 2541TIP3    H1 7629   5.680   4.308   2.547  2.7572  0.4580  0.7933
 2541TIP3    H2 7630   5.667   4.355   2.404 -1.7945 -1.3091  0.4857
 2542TIP3   OH2 7631   1.575   3.713   2.715 -0.6535 -0.1578 -0.2119
 2542TIP3    H1 7632   1.493   3.682   2.754 -1.6216  2.0168 -0.3888
 2542TIP3    H2 7633   1.583   3.663   2.634 -1.5507 -0.7629  0.0554
 2543TIP3   OH2 7634   5.725   3.831   0.128 -0.9017 -0.1711  0.0095
 2543TIP3    H1 7635   5.759   3.746   0.157  0.7292 -0.2918 -2.0391
 2543TIP3    H2 7636   5.798   3.891   0.137 -1.4395  0.5705 -0.4384
 2544TIP3   OH2 7637   5.083   5.765   4.872  0.2407 -0.3916  0.1134
 2544TIP3    H1 7638   5.086   5.699   4.942  2.7295  0.6424  1.1114
 2544TIP3    H2 7639   5.156   5.742   4.814 -0.1866  0.2515 -0.6999
 2545TIP3   OH2 7640   2.946   3.210   2.194 -0.3921 -0.0055  0.4716
 2545TIP3    H1 7641   2.998   3.277   2.151  1.8941 -1.4629  0.7936
 2545TIP3    H2 7642   2.863   3.210   2.146 -0.0241  2.2141 -0.2670
 2546TIP3   OH2 7643   3.236   2.120   3.587  0.0397 -1.0128  0.0922
 2546TIP3    H1 7644   3.322   2.088   3.615  0.7489  1.0416  0.4420
 2546TIP3    H2 7645   3.246   2.215   3.582 -1.6330 -0.8689 -1.9234
 2547TIP3   OH2 7646   4.824   1.721   4.504 -0.3196  0.1490  0.3617
 2547TIP3    H1 7647   4.830   1.712   4.599 -0.1749  4.1322  0.8985
 2547TIP3    H2 7648   4.913   1.711   4.473 -0.2676 -0.5115  0.7078
 2548TIP3   OH2 7649   1.584   2.949   4.975 -0.0546 -0.9484 -0.1392
 2548TIP3    H1 7650   1.663   2.904   4.946  0.2098  0.7162 -2.2462
 2548TIP3    H2 7651   1.521   2.937   4.903  0.2681  2.4752 -1.1875
 2549TIP3   OH2 7652   1.833   5.194   5.141 -0.0900 -0.4873 -0.2486
 2549TIP3    H1 7653   1.928   5.189   5.131 -0.0798  1.1835 -1.4760
 2549TIP3    H2 7654   1.820   5.259   5.211 -0.3500 -2.2007  1.3667
 2550TIP3   OH2 7655   4.191   1.799   1.402  0.4855  0.1490 -0.3118
 2550TIP3    H1 7656   4.227   1.758   1.323 -0.4377  0.0771 -0.7019
 2550TIP3    H2 7657   4.182   1.728   1.465 -0.2299 -0.0854 -0.6711
 2551TIP3   OH2 7658   1.291   5.600   0.205  0.2357  0.4863  0.5625
 2551TIP3    H1 7659   1.303   5.505   0.206 -3.5309 -0.1953 -1.0488
 2551TIP3    H2 7660   1.272   5.622   0.296  0.9161 -0.3226  0.9204
 2552TIP3   OH2 7661   3.359   4.356   3.349  0.7082 -0.1612  0.4041
 2552TIP3    H1 7662   3.269   4.381   3.371  1.0102  0.6203  0.7719
 2552TIP3    H2 7663   3.373   4.273   3.395 -0.4336 -1.2736 -1.1421
 2553TIP3   OH2 7664   2.558   1.946   3.984 -0.4322  0.3519 -0.0272
 2553TIP3    H1 7665   2.550   1.852   3.993  0.4817  0.2385 -0.3375
 2553TIP3    H2 7666   2.531   1.981   4.069 -1.2431 -0.1464 -0.0622
 2554TIP3   OH2 7667   5.214   3.530   0.563 -0.6635 -0.7919  0.9047
 2554TIP3    H1 7668   5.164   3.584   0.502 -0.7375 -0.8215  0.9389
 2554TIP3    H2 7669   5.166   3.536   0.645 -0.7557 -1.0282  0.8710
 2555TIP3   OH2 7670   2.752   3.599   1.682  0.4662 -0.2366 -0.9861
 2555TIP3    H1 7671   2.781   3.655   1.610 -0.7819  0.8120 -0.7074
 2555TIP3    H2 7672   2.772   3.649   1.761  1.9292 -1.4270 -0.5527
 2556TIP3   OH2 7673   6.153   4.816   0.568 -0.1226 -0.4167  0.0680
 2556TIP3    H1 7674   6.243   4.845   0.553  0.6049 -0.8063  3.0835
 2556TIP3    H2 7675   6.158   4.720   0.564 -0.7370 -0.4165 -1.1782
 2557TIP3   OH2 7676   1.159   0.641   0.838 -0.4953 -0.8370 -0.1438
 2557TIP3    H1 7677   1.180   0.556   0.876  0.4568 -0.9876 -0.9787
 2557TIP3    H2 7678   1.073   0.663   0.875  0.4070 -0.9134  2.1779
 2558TIP3   OH2 7679   3.679   1.010   1.776 -0.3944  0.0710  0.0940
 2558TIP3    H1 7680   3.701   0.918   1.766 -1.8088 -0.2737 -0.0611
 2558TIP3    H2 7681   3.750   1.057   1.733 -0.3757 -0.9984 -1.0826
 2559TIP3   OH2 7682   3.879   0.588   0.724 -0.0638 -0.5554 -0.2338
 2559TIP3    H1 7683   3.886   0.502   0.766  0.7324 -0.4174 -0.0736
 2559TIP3    H2 7684   3.786   0.597   0.706 -0.0702 -1.7864 -0.9594
 2560TIP3   OH2 7685   5.491   3.603   1.143  0.5311  0.1269 -0.1702
 2560TIP3    H1 7686   5.579   3.640   1.145  0.4492  0.3052  0.3035
 2560TIP3    H2 7687   5.453   3.634   1.060  0.9836 -0.1261 -0.4747
 2561TIP3   OH2 7688   0.527   2.746   2.150  0.6486 -1.0132  0.7632
 2561TIP3    H1 7689   0.432   2.753   2.149  0.5725 -1.6504  1.7502
 2561TIP3    H2 7690   0.546   2.670   2.095  0.5940 -0.8159  0.4726
 2562TIP3   OH2 7691   4.583   1.563   2.187  0.0180  0.5944  0.2515
 2562TIP3    H1 7692   4.488   1.549   2.178  0.1721 -0.8459  0.5435
 2562TIP3    H2 7693   4.608   1.608   2.106 -0.7579 -0.0265 -0.3607
 2563TIP3   OH2 7694   5.328   2.038   2.372  0.3686  0.4116 -0.1536
 2563TIP3    H1 7695   5.337   2.114   2.314 -0.7819 -0.8012 -2.0237
 2563TIP3    H2 7696   5.383   1.971   2.331 -0.6271 -0.5330  0.0345
 2564TIP3   OH2 7697   0.249   2.209   2.501 -0.1318 -0.0022 -0.0417
 2564TIP3    H1 7698   0.161   2.170   2.503  0.2715 -0.9390  0.1492
 2564TIP3    H2 7699   0.283   2.186   2.414 -0.4181  1.1618 -0.4722
 2565TIP3   OH2 7700   4.294   4.275   3.109 -0.4621 -0.1358  0.8757
 2565TIP3    H1 7701   4.317   4.323   3.189  0.7828 -1.9133  1.6564
 2565TIP3    H2 7702   4.342   4.320   3.039 -2.5851  2.2564  0.7961
 2566TIP3   OH2 7703   5.762   0.767   0.071  0.2942  0.2879 -0.0040
 2566TIP3    H1 7704   5.826   0.697   0.078  0.0841  0.2197  1.5655
 2566TIP3    H2 7705   5.723   0.756  -0.016  2.0878  0.0805 -0.8243
 2567TIP3   OH2 7706   5.702   4.866   4.565 -0.2470 -0.1840  0.2581
 2567TIP3    H1 7707   5.646   4.937   4.533 -1.5494 -1.1887  0.2026
 2567TIP3    H2 7708   5.760   4.908   4.628 -1.4946  0.8117  0.8073
 2568TIP3   OH2 7709   1.012   1.868   0.170 -0.2459 -0.0797 -0.3653
 2568TIP3    H1 7710   1.059   1.840   0.249  0.4891 -0.1165 -0.8030
 2568TIP3    H2 7711   0.949   1.932   0.202  1.6373  1.7115  0.0036
 2569TIP3   OH2 7712   3.382   3.689   1.749 -0.9147  0.3949 -0.3613
 2569TIP3    H1 7713   3.433   3.667   1.671 -1.1226 -0.9748 -0.1290
 2569TIP3    H2 7714   3.310   3.743   1.715 -0.4219  0.6922 -0.9621
 2570TIP3   OH2 7715   0.878   5.984   4.954 -0.6533  0.2120 -0.2413
 2570TIP3    H1 7716   0.824   5.965   5.030  0.9023 -2.9215  0.2308
 2570TIP3    H2 7717   0.817   5.983   4.880 -1.8044  0.9012  0.6615
 2571TIP3   OH2 7718   1.557   1.972   0.283 -0.0556  0.2507  0.5637
 2571TIP3    H1 7719   1.617   1.995   0.354  0.4463  0.5031  0.0688
 2571TIP3    H2 7720   1.539   1.879   0.296  0.3961  0.1866  0.7592
 2572TIP3   OH2 7721   4.609   5.062   1.570 -0.1259  0.0414  0.5311
 2572TIP3    H1 7722   4.540   5.011   1.529  1.0409 -0.5854 -0.7354
 2572TIP3    H2 7723   4.566   5.142   1.598 -1.4621 -0.5372  0.2219
 2573TIP3   OH2 7724   3.112   0.586   3.390 -0.8620 -0.0454  0.5994
 2573TIP3    H1 7725   3.111   0.581   3.486 -0.6287  2.0279  0.7547
 2573TIP3    H2 7726   3.142   0.675   3.371  0.5318 -0.8640 -1.4334
 2574TIP3   OH2 7727   5.185   0.839   0.726  0.0805  0.6557  0.0133
 2574TIP3    H1 7728   5.144   0.843   0.640  0.0212  1.7632  0.0690
 2574TIP3    H2 7729   5.253   0.772   0.718 -0.9014 -0.3099 -0.4427
 2575TIP3   OH2 7730   3.505   3.950   1.574  0.7903  0.2728  0.0072
 2575TIP3    H1 7731   3.600   3.943   1.563  0.8075 -0.5725  0.6006
 2575TIP3    H2 7732   3.490   4.043   1.592  1.3317  0.6770 -1.5239
 2576TIP3   OH2 7733   5.417   2.056   0.324 -0.7345 -0.1409  0.1676
 2576TIP3    H1 7734   5.428   1.967   0.355 -2.4238 -0.8008 -0.9648
 2576TIP3    H2 7735   5.386   2.105   0.400  0.7494 -0.3428  0.9413
 2577TIP3   OH2 7736   3.921   1.240   4.699 -0.4965 -0.3195 -0.0032
 2577TIP3    H1 7737   3.998   1.294   4.715 -1.9319  1.5032  1.2609
 2577TIP3    H2 7738   3.952   1.150   4.702  1.7346  0.3767 -0.6433
 2578TIP3   OH2 7739   2.400   2.082   4.547 -0.6739  0.2419  0.2223
 2578TIP3    H1 7740   2.381   2.162   4.596  0.8096  0.7881 -0.0193
 2578TIP3    H2 7741   2.456   2.031   4.606  1.1439  0.9113 -0.8160
 2579TIP3   OH2 7742   1.907   4.696   4.593 -0.6845  0.4084 -0.1352
 2579TIP3    H1 7743   1.864   4.748   4.661 -1.3263  0.8789 -0.8816
 2579TIP3    H2 7744   1.977   4.752   4.560 -1.0759  0.6327 -0.6110
 2580TIP3   OH2 7745   4.242   5.191   1.406  0.1050 -0.0100  0.3085
 2580TIP3    H1 7746   4.276   5.103   1.389  1.5802  0.4943  0.4882
 2580TIP3    H2 7747   4.150   5.177   1.429  0.0521 -1.4069 -0.6122
 2581TIP3   OH2 7748   6.108   1.380   1.551  0.2595  0.3606 -0.0973
 2581TIP3    H1 7749   6.121   1.459   1.603  1.3264  0.8359 -1.0527
 2581TIP3    H2 7750   6.195   1.357   1.519 -0.4298  0.5608 -2.3187
 2582TIP3   OH2 7751   4.427   0.275   3.546 -0.2108  0.0642  0.2653
 2582TIP3    H1 7752   4.399   0.323   3.468  0.6113 -1.4768 -1.0476
 2582TIP3    H2 7753   4.482   0.337   3.594  0.4583  0.6070 -1.1390
 2583TIP3   OH2 7754   0.685   5.558   3.613  0.0693  0.5554 -0.1138
 2583TIP3    H1 7755   0.645   5.620   3.554  0.2582  0.4700 -0.3330
 2583TIP3    H2 7756   0.767   5.599   3.639 -0.7015  1.2828  1.2930
 2584TIP3   OH2 7757   4.213   4.356   0.801 -0.0060 -0.3128  0.0093
 2584TIP3    H1 7758   4.177   4.435   0.761  1.4432  0.8639  0.9256
 2584TIP3    H2 7759   4.226   4.296   0.727 -2.3265 -0.2429 -0.5294
 2585TIP3   OH2 7760   2.697   4.817   3.952 -0.3831  0.2568 -0.8731
 2585TIP3    H1 7761   2.743   4.765   3.886 -0.0216  1.1492 -1.3370
 2585TIP3    H2 7762   2.669   4.753   4.017  0.4540 -0.4589 -1.1957
 2586TIP3   OH2 7763   2.438   1.946   1.384 -0.1270  0.5413 -0.8388
 2586TIP3    H1 7764   2.524   1.935   1.342  0.9993 -0.2318  1.4633
 2586TIP3    H2 7765   2.436   2.038   1.409  0.8320  0.2209  0.5642
 2587TIP3   OH2 7766   3.049   5.276   1.480  0.1026 -0.1033 -0.6194
 2587TIP3    H1 7767   2.983   5.309   1.419  0.4077  0.0023 -0.8927
 2587TIP3    H2 7768   3.060   5.345   1.544  1.3163  0.6822 -1.6294
 2588TIP3   OH2 7769   5.664   2.203   2.907  0.2326  0.6502 -0.1582
 2588TIP3    H1 7770   5.662   2.283   2.960 -0.9061 -0.6912  1.9405
 2588TIP3    H2 7771   5.681   2.133   2.970 -0.9563 -1.0053 -1.6012
 2589TIP3   OH2 7772   3.801   4.361   0.767  0.2229 -0.0596  0.1626
 2589TIP3    H1 7773   3.866   4.387   0.832  0.9073 -0.3153 -0.4118
 2589TIP3    H2 7774   3.791   4.438   0.712 -2.3123  1.1315  2.0641
 2590TIP3   OH2 7775   4.533   5.070   3.033  0.0831 -0.2326 -0.1966
 2590TIP3    H1 7776   4.554   5.162   3.046  1.0573 -0.5555  0.7223
 2590TIP3    H2 7777   4.586   5.024   3.099  0.0983 -1.4959 -1.0545
 2591TIP3   OH2 7778   3.701   5.979   2.475  0.2241 -0.7859 -0.2903
 2591TIP3    H1 7779   3.784   6.017   2.507 -0.8195  0.6697  0.8613
 2591TIP3    H2 7780   3.664   5.936   2.552 -0.5749 -0.4856 -0.4939
 2592TIP3   OH2 7781   4.765   5.826   3.763  0.4921 -0.2667  0.3850
 2592TIP3    H1 7782   4.793   5.744   3.723  0.7923  0.2009 -0.3917
 2592TIP3    H2 7783   4.846   5.876   3.774 -0.0060  1.5411 -2.8704
 2593TIP3   OH2 7784   3.164   0.311   1.293 -0.2388 -0.1875  0.4729
 2593TIP3    H1 7785   3.126   0.399   1.302  3.0580  1.5138 -0.3851
 2593TIP3    H2 7786   3.152   0.288   1.201  2.0905  1.1794 -0.2765
 2594TIP3   OH2 7787   5.828   4.366   3.905  0.2014 -0.8032 -0.4277
 2594TIP3    H1 7788   5.894   4.380   3.837 -0.4756 -0.2027 -0.9774
 2594TIP3    H2 7789   5.863   4.409   3.983  0.8951 -1.3281 -0.4376
 2595TIP3   OH2 7790   3.651   4.378   4.797 -0.3881 -0.5486 -0.6466
 2595TIP3    H1 7791   3.612   4.446   4.743 -2.5821 -0.3255  1.0866
 2595TIP3    H2 7792   3.654   4.415   4.885  1.0361 -1.6994 -0.1593
 2596TIP3   OH2 7793   3.486   3.752   0.226 -0.0098 -0.3428 -0.3144
 2596TIP3    H1 7794   3.565   3.797   0.197 -1.0878  1.7751 -0.1296
 2596TIP3    H2 7795   3.477   3.678   0.165  1.6113 -0.1236 -0.8649
 2597TIP3   OH2 7796   6.164   4.117   1.721  0.7745 -0.4390  0.1123
 2597TIP3    H1 7797   6.212   4.035   1.731  0.7388 -0.7300 -1.7339
 2597TIP3    H2 7798   6.184   4.146   1.632  2.1506  2.4722  1.2177
 2598TIP3   OH2 7799   6.293   2.872   3.784  0.3830  0.6840 -0.1730
 2598TIP3    H1 7800   6.231   2.894   3.853  0.2345  0.4072 -0.2165
 2598TIP3    H2 7801   6.290   2.947   3.724  1.3469  1.4516  0.6901
 2599TIP3   OH2 7802   5.314   5.715   4.621 -0.4449  0.2899  0.1467
 2599TIP3    H1 7803   5.230   5.671   4.611 -0.3679 -0.4992  2.3360
 2599TIP3    H2 7804   5.378   5.655   4.583 -0.7401  0.3077 -0.3759
 2600TIP3   OH2 7805   5.728   2.080   4.064  0.1575 -0.1593  0.2061
 2600TIP3    H1 7806   5.638   2.063   4.091 -0.1883  1.3522  0.0906
 2600TIP3    H2 7807   5.720   2.114   3.975  0.8755 -0.2381  0.1077
 2601TIP3   OH2 7808   4.351   0.216   2.942  0.1613  0.1336  0.2085
 2601TIP3    H1 7809   4.329   0.310   2.940 -0.0136  0.0950  0.3279
 2601TIP3    H2 7810   4.326   0.188   3.029  0.1419 -0.0431  0.1456
 2602TIP3   OH2 7811   6.150   0.513   3.054  0.0806  0.0383  0.0728
 2602TIP3    H1 7812   6.163   0.480   2.965  0.1663 -2.7363  1.0190
 2602TIP3    H2 7813   6.186   0.602   3.052  2.3712 -0.8248 -2.0426
 2603TIP3   OH2 7814   1.680   2.339   0.283 -0.1844 -0.6356 -1.1902
 2603TIP3    H1 7815   1.734   2.305   0.353 -0.6397  0.2588 -0.3672
 2603TIP3    H2 7816   1.590   2.322   0.312 -0.3763 -0.2379 -1.5409
 2604TIP3   OH2 7817   0.562   0.712   5.075  0.5820 -0.3000 -0.1039
 2604TIP3    H1 7818   0.484   0.712   5.129 -0.4826  0.3348 -1.5593
 2604TIP3    H2 7819   0.586   0.805   5.068 -0.3911 -0.1484 -2.1463
 2605TIP3   OH2 7820   5.592   3.485   0.890 -0.1250 -0.4817 -0.2078
 2605TIP3    H1 7821   5.637   3.424   0.948 -1.1857 -1.2687 -0.1780
 2605TIP3    H2 7822   5.657   3.554   0.872  0.4395 -0.5576  1.3595
 2606TIP3   OH2 7823   0.682   1.009   3.300 -0.1949 -0.2131 -0.9046
 2606TIP3    H1 7824   0.646   0.964   3.377  1.7818 -0.9980 -0.3896
 2606TIP3    H2 7825   0.737   1.078   3.336  0.2948 -0.2195 -1.6312
 2607TIP3   OH2 7826   2.628   3.673   2.649  0.3790  0.1994  0.3469
 2607TIP3    H1 7827   2.584   3.687   2.566 -1.1396  1.1492  1.2706
 2607TIP3    H2 7828   2.710   3.722   2.641  1.0662 -1.1039 -1.1633
 2608TIP3   OH2 7829   3.258   0.283   2.792 -0.1875 -0.3449 -0.1532
 2608TIP3    H1 7830   3.209   0.318   2.866  1.3415 -0.1336  0.7988
 2608TIP3    H2 7831   3.308   0.357   2.759 -0.3000 -0.6154 -0.9587
 2609TIP3   OH2 7832   3.990   2.880   0.757  0.0978  0.3035  0.1272
 2609TIP3    H1 7833   3.958   2.914   0.840  1.0957  2.4435 -0.2602
 2609TIP3    H2 7834   3.921   2.900   0.694  0.1138  0.3948  0.1382
 2610TIP3   OH2 7835   3.749   3.059   4.785  0.0399 -0.0336 -0.5979
 2610TIP3    H1 7836   3.714   3.100   4.864 -0.7493  1.7226 -1.8026
 2610TIP3    H2 7837   3.739   2.965   4.801  0.0276  0.2582  1.4190
 2611TIP3   OH2 7838   5.019   1.647   4.747 -0.2324  0.1696  0.6076
 2611TIP3    H1 7839   4.945   1.706   4.762  0.5587  0.7175  2.7091
 2611TIP3    H2 7840   5.096   1.696   4.776  0.9654 -0.5279 -1.1696
 2612TIP3   OH2 7841   1.438   1.644   0.046 -0.3067  0.5300 -0.0418
 2612TIP3    H1 7842   1.467   1.560   0.012  1.2073  0.8396  0.4196
 2612TIP3    H2 7843   1.343   1.645   0.030 -0.7851 -2.2181  1.9917
 2613TIP3   OH2 7844   2.433   3.731   0.036 -0.6022  0.1050  0.0819
 2613TIP3    H1 7845   2.509   3.772   0.078 -0.9873 -0.8028  1.7454
 2613TIP3    H2 7846   2.368   3.723   0.106 -1.1236 -1.8610 -0.5671
 2614TIP3   OH2 7847   6.060   3.123   4.409 -0.3268  0.2655 -0.5366
 2614TIP3    H1 7848   6.147   3.100   4.441 -1.1190 -0.8792  0.9267
 2614TIP3    H2 7849   6.024   3.041   4.374 -1.8600 -0.0015  1.4886
 2615TIP3   OH2 7850   3.127   1.547   0.874 -0.5924  0.2807  0.0358
 2615TIP3    H1 7851   3.160   1.632   0.901 -0.6669  0.4454 -0.3941
 2615TIP3    H2 7852   3.033   1.560   0.862 -0.9455 -0.3245  1.8240
 2616TIP3   OH2 7853   5.265   1.133   0.430 -0.7498 -0.0174  0.1146
 2616TIP3    H1 7854   5.322   1.069   0.387 -1.0729 -0.5385  0.4516
 2616TIP3    H2 7855   5.321   1.173   0.496 -0.3531  0.5355 -0.5429
 2617TIP3   OH2 7856   2.895   5.679   4.875  0.2551 -0.6867 -0.0504
 2617TIP3    H1 7857   2.903   5.632   4.958  0.3407 -0.9877 -0.2266
 2617TIP3    H2 7858   2.874   5.769   4.900  0.2526 -0.7821  0.2961
 2618TIP3   OH2 7859   5.936   4.980   1.678 -0.5358 -0.3534 -0.1813
 2618TIP3    H1 7860   5.947   5.070   1.709  1.3809 -0.4537 -0.4191
 2618TIP3    H2 7861   5.934   4.927   1.758 -2.0179 -0.1000 -0.0257
 2619TIP3   OH2 7862   2.281   3.090   0.416  0.0807  0.6631  0.3389
 2619TIP3    H1 7863   2.236   3.030   0.356  0.3878  0.3683  0.4008
 2619TIP3    H2 7864   2.229   3.087   0.496  2.2581 -2.7292  1.8770
 2620TIP3   OH2 7865   1.137   4.108   2.024  0.2830  0.5443  0.3955
 2620TIP3    H1 7866   1.194   4.129   1.950  1.0970 -0.2094  0.7905
 2620TIP3    H2 7867   1.057   4.072   1.983  1.5619 -1.9417 -0.1254
 2621TIP3   OH2 7868   3.982   5.838   3.325  0.3251  0.1235  0.6975
 2621TIP3    H1 7869   4.016   5.927   3.322  1.7468 -0.4159 -0.6992
 2621TIP3    H2 7870   3.977   5.811   3.233 -4.3104  0.2230  0.6775
 2622TIP3   OH2 7871   0.751   1.480   1.834 -0.0103 -0.4924 -0.2728
 2622TIP3    H1 7872   0.782   1.537   1.905 -1.7222 -0.1162  0.2378
 2622TIP3    H2 7873   0.686   1.533   1.788 -0.0939 -1.3117 -1.1268
 2623TIP3   OH2 7874   2.192   1.808   3.958  0.1920 -0.0892  0.0232
 2623TIP3    H1 7875   2.187   1.726   4.006 -0.5959  0.1825  0.4105
 2623TIP3    H2 7876   2.180   1.876   4.024 -0.6591  0.2953 -0.5142
 2624TIP3   OH2 7877   0.082   1.227   1.875 -0.0979 -0.1891 -0.1335
 2624TIP3    H1 7878   0.154   1.166   1.891 -0.1689 -0.0246  0.8479
 2624TIP3    H2 7879   0.115   1.284   1.804  0.9063  0.1343  0.5628
 2625TIP3   OH2 7880   3.236   3.658   2.470  0.2256  0.7577 -0.3761
 2625TIP3    H1 7881   3.142   3.648   2.458  0.6094 -2.5176 -1.7654
 2625TIP3    H2 7882   3.271   3.656   2.381  1.7471 -1.5068  0.1692
 2626TIP3   OH2 7883   0.497   5.205   5.077 -0.7706 -0.5603  0.2166
 2626TIP3    H1 7884   0.496   5.257   4.997 -0.1757 -0.4785  0.2587
 2626TIP3    H2 7885   0.535   5.121   5.051 -1.0541 -0.7191  0.3048
 2627TIP3   OH2 7886   4.448   4.258   4.818 -0.0154 -0.3095  0.1581
 2627TIP3    H1 7887   4.485   4.259   4.730  0.0246 -1.4211  0.1467
 2627TIP3    H2 7888   4.523   4.250   4.876 -0.1581 -2.1750  0.1521
 2628TIP3   OH2 7889   1.279   5.492   1.947  0.3364 -0.0503  0.0332
 2628TIP3    H1 7890   1.219   5.453   2.010 -0.0030  0.8176  0.2639
 2628TIP3    H2 7891   1.242   5.471   1.861 -0.0306  0.0760  0.1618
 2629TIP3   OH2 7892   5.599   2.594   2.216 -0.0337  0.1694 -1.0364
 2629TIP3    H1 7893   5.649   2.647   2.278  1.8531  1.4555 -3.5018
 2629TIP3    H2 7894   5.594   2.508   2.257  0.9560  0.9994  0.9671
 2630TIP3   OH2 7895   0.254   1.779   0.589  0.0195  0.3148  0.1393
 2630TIP3    H1 7896   0.245   1.872   0.569 -0.3181  0.1938 -0.2793
 2630TIP3    H2 7897   0.337   1.753   0.550 -0.9002 -0.0536 -1.6481
 2631TIP3   OH2 7898   2.699   2.711   1.756 -0.2992  0.0746  0.6399
 2631TIP3    H1 7899   2.748   2.778   1.709 -0.9292  0.7946  0.9938
 2631TIP3    H2 7900   2.764   2.644   1.777  0.2324  0.3151 -0.1817
 2632TIP3   OH2 7901   1.798   4.253   2.090  0.1410  0.4177  0.0197
 2632TIP3    H1 7902   1.863   4.277   2.156 -0.2481  0.1838  0.4966
 2632TIP3    H2 7903   1.715   4.256   2.137 -0.2123  0.8696 -0.6251
 2633TIP3   OH2 7904   1.842   1.349   0.540 -0.2119 -0.3073 -0.4677
 2633TIP3    H1 7905   1.869   1.306   0.621  0.6889  0.1918 -0.4944
 2633TIP3    H2 7906   1.858   1.442   0.556 -0.2914 -0.1789 -1.1204
 2634TIP3   OH2 7907   4.847   0.039   2.340 -0.0075 -0.3407  0.0933
 2634TIP3    H1 7908   4.890   0.075   2.418  0.0438 -0.8243  0.2937
 2634TIP3    H2 7909   4.919  -0.001   2.290 -0.0780 -0.2515 -0.0810
 2635TIP3   OH2 7910   6.186   3.292   2.525 -0.3002 -0.0240 -0.1703
 2635TIP3    H1 7911   6.218   3.381   2.542 -1.7701  0.7928 -1.4624
 2635TIP3    H2 7912   6.177   3.253   2.612  0.9923  0.8344  0.3922
 2636TIP3   OH2 7913   1.637   1.922   1.256  0.4953  0.1155  0.6681
 2636TIP3    H1 7914   1.616   1.852   1.195 -0.7241  1.3199 -0.3578
 2636TIP3    H2 7915   1.586   1.901   1.335  0.8606 -0.6158  0.7171
 2637TIP3   OH2 7916   4.667   0.065   0.023  0.0635  0.1480 -0.0470
 2637TIP3    H1 7917   4.658   0.147  -0.027  0.6604 -1.0035 -2.1644
 2637TIP3    H2 7918   4.756   0.069   0.059  0.3103  0.1962 -0.6421
 2638TIP3   OH2 7919   4.103   3.994   3.596 -0.1949  0.0074  0.0673
 2638TIP3    H1 7920   4.140   4.020   3.511 -0.2117 -0.2390 -0.0158
 2638TIP3    H2 7921   4.096   4.076   3.645  1.3885 -0.0723  0.4641
 2639TIP3   OH2 7922   6.226   1.842   2.058  0.3866  0.1068 -0.1667
 2639TIP3    H1 7923   6.162   1.913   2.049  0.9683  0.5959 -0.5133
 2639TIP3    H2 7924   6.250   1.821   1.968  2.2137  1.3229 -0.0219
 2640TIP3   OH2 7925   5.707   1.743   3.557  0.6289 -0.7894  0.1337
 2640TIP3    H1 7926   5.628   1.693   3.537  0.3484  0.2333 -1.4872
 2640TIP3    H2 7927   5.689   1.781   3.643 -0.7169 -0.4913 -0.2512
 2641TIP3   OH2 7928   1.855   5.480   1.248 -0.5126 -0.4228  0.3383
 2641TIP3    H1 7929   1.820   5.553   1.197  0.0836 -0.4584 -0.1388
 2641TIP3    H2 7930   1.787   5.413   1.243 -1.0647  0.0988  0.7856
 2642TIP3   OH2 7931   5.852   1.205   3.523 -0.1057  0.4985 -0.1501
 2642TIP3    H1 7932   5.761   1.178   3.535 -0.1292 -0.1241 -1.6062
 2642TIP3    H2 7933   5.853   1.297   3.549 -1.8435  1.4162 -2.8779
 2643TIP3   OH2 7934   2.344   0.817   2.453 -0.2986 -0.1095  0.5422
 2643TIP3    H1 7935   2.328   0.811   2.547 -1.7515  0.0508  0.3264
 2643TIP3    H2 7936   2.338   0.726   2.422  0.0419 -0.1452  0.5745
 2644TIP3   OH2 7937   3.892   0.212   1.037 -0.7746 -0.1285  0.4452
 2644TIP3    H1 7938   3.933   0.232   1.121  0.6856  0.2009 -0.3112
 2644TIP3    H2 7939   3.906   0.118   1.025  1.2204  0.2429 -0.5127
 2645TIP3   OH2 7940   3.836   2.904   3.384  0.3552  0.4329 -0.0322
 2645TIP3    H1 7941   3.823   2.986   3.336 -2.1169  0.3736  0.4184
 2645TIP3    H2 7942   3.784   2.914   3.463  0.1097 -1.5279  0.1050
 2646TIP3   OH2 7943   0.963   1.063   4.894 -0.1849 -0.4336 -0.0027
 2646TIP3    H1 7944   0.882   1.108   4.873 -1.2699 -2.4125 -0.3495
 2646TIP3    H2 7945   1.021   1.080   4.820 -1.4054 -1.4815 -1.2424
 2647TIP3   OH2 7946   0.464   1.032   4.671  0.1055  0.5364  0.0140
 2647TIP3    H1 7947   0.540   0.975   4.656  0.0219  0.7415 -1.3967
 2647TIP3    H2 7948   0.390   0.982   4.635 -0.1363  1.0772 -0.2517
 2648TIP3   OH2 7949   3.608   2.930   2.627  0.0441  0.5920  0.2995
 2648TIP3    H1 7950   3.587   2.887   2.544 -1.3502  0.7253  0.5655
 2648TIP3    H2 7951   3.691   2.975   2.610  0.6255 -0.7355 -0.5139
 2649TIP3   OH2 7952   3.080   5.449   3.120  0.7198  0.7312 -0.1117
 2649TIP3    H1 7953   3.064   5.521   3.060 -1.2589  0.5178  0.0678
 2649TIP3    H2 7954   3.171   5.458   3.146  1.1200  1.8471 -1.7840
 2650TIP3   OH2 7955   1.589   4.351  -0.011 -0.3508  0.2549 -1.1292
 2650TIP3    H1 7956   1.552   4.293   0.056  1.1919 -0.6647 -1.0287
 2650TIP3    H2 7957   1.684   4.341  -0.002 -0.0844  1.1832 -2.5437
 2651TIP3   OH2 7958   6.057   5.970   0.063 -0.6129  0.1934 -0.0173
 2651TIP3    H1 7959   6.116   5.896   0.075 -0.8649  0.1099  0.7717
 2651TIP3    H2 7960   6.113   6.047   0.065 -0.5034  0.1028  0.5345
 2652TIP3   OH2 7961   4.410   4.787   4.612 -0.0511  0.2017 -0.4806
 2652TIP3    H1 7962   4.374   4.716   4.666  0.4741 -0.6841 -1.2818
 2652TIP3    H2 7963   4.446   4.744   4.535  2.6803  1.0484  0.2210
 2653TIP3   OH2 7964   4.603   3.234   3.042  0.4014 -0.4468 -0.0510
 2653TIP3    H1 7965   4.513   3.233   3.074  0.5535 -1.0441  0.3801
 2653TIP3    H2 7966   4.643   3.308   3.087  0.3166 -0.6157  0.3067
 2654TIP3   OH2 7967   0.690   5.859   1.397  0.1028 -0.5122 -0.1621
 2654TIP3    H1 7968   0.745   5.795   1.442 -1.1343 -1.1210  0.5332
 2654TIP3    H2 7969   0.660   5.814   1.318 -0.2038 -0.5322 -0.0329
 2655TIP3   OH2 7970   4.125   4.583   2.194 -0.3017 -0.0622  0.1855
 2655TIP3    H1 7971   4.046   4.635   2.209 -0.9915 -1.1106  0.2970
 2655TIP3    H2 7972   4.166   4.578   2.280 -0.5965 -0.2620  0.3185
 2656TIP3   OH2 7973   3.917   0.534   3.095 -0.1739  0.3036 -0.3558
 2656TIP3    H1 7974   3.891   0.443   3.079 -0.5116  0.4610 -0.7121
 2656TIP3    H2 7975   3.946   0.566   3.009 -0.3321  0.6234 -0.2920
 2657TIP3   OH2 7976   1.260   3.367   3.180  0.4744  0.1357  0.5120
 2657TIP3    H1 7977   1.227   3.353   3.269  0.0052 -2.0382  0.0352
 2657TIP3    H2 7978   1.284   3.460   3.178 -1.8806  0.8661  2.1273
 2658TIP3   OH2 7979   6.296   3.878   1.646  0.0644  0.9658  0.7227
 2658TIP3    H1 7980   6.292   3.793   1.690 -0.9099  0.0102 -1.0895
 2658TIP3    H2 7981   6.388   3.902   1.649  0.2298  0.2668  2.0029
 2659TIP3   OH2 7982   0.158   4.266   0.982  0.2767  0.2206  0.0435
 2659TIP3    H1 7983   0.232   4.217   0.946 -1.1633 -2.4884  0.4776
 2659TIP3    H2 7984   0.162   4.249   1.076 -0.4898  0.6373  0.1599
 2660TIP3   OH2 7985   4.934   4.396   1.885  0.3273  0.3743 -0.0306
 2660TIP3    H1 7986   4.851   4.348   1.888  0.4073  0.2949  1.0488
 2660TIP3    H2 7987   4.928   4.459   1.956  0.7015  1.2052 -0.7236
 2661TIP3   OH2 7988   3.089   0.499   0.629 -0.2676 -0.3704 -0.0831
 2661TIP3    H1 7989   3.108   0.572   0.570 -1.0047 -0.0837  0.0321
 2661TIP3    H2 7990   3.088   0.422   0.572 -0.0586 -0.2172 -0.2967
 2662TIP3   OH2 7991   0.739   5.573   5.122  0.6400 -0.0162 -0.2101
 2662TIP3    H1 7992   0.738   5.616   5.207 -1.0033 -0.0384 -0.1792
 2662TIP3    H2 7993   0.722   5.481   5.141 -0.4198  0.0873 -0.5881
 2663TIP3   OH2 7994   5.816   3.767   3.228 -0.1296  0.0333 -0.5731
 2663TIP3    H1 7995   5.879   3.709   3.185  1.3323 -0.4074  2.0257
 2663TIP3    H2 7996   5.742   3.710   3.248 -0.0809 -0.1507 -0.8948
 2664TIP3   OH2 7997   4.989   0.694   2.360 -0.4341 -0.1558  0.1203
 2664TIP3    H1 7998   5.005   0.658   2.447  1.1746 -2.1713 -0.9269
 2664TIP3    H2 7999   4.997   0.619   2.301  0.9995  1.5466 -2.0175
 2665TIP3   OH2 8000   0.770   0.826   1.476 -0.1537 -0.1239 -0.0434
 2665TIP3    H1 8001   0.726   0.908   1.456  1.9056  1.2115  0.6523
 2665TIP3    H2 8002   0.812   0.840   1.560  0.4002 -1.8453  0.0151
 2666TIP3   OH2 8003   4.892   0.892   3.401  0.3201 -0.7015  0.2336
 2666TIP3    H1 8004   4.898   0.890   3.496 -1.1118  0.6594  0.3956
 2666TIP3    H2 8005   4.888   0.800   3.375  2.2488 -1.1452  1.3370
 2667TIP3   OH2 8006   0.149   0.014   2.187  0.0920 -0.0494  0.4244
 2667TIP3    H1 8007   0.186  -0.044   2.254  1.5416  1.0414  0.6334
 2667TIP3    H2 8008   0.146   0.100   2.229  0.7622  0.5965 -0.7849
 2668TIP3   OH2 8009   1.338   5.228   2.253 -0.0473 -0.1818  0.1745
 2668TIP3    H1 8010   1.396   5.227   2.177 -0.6696 -0.3019 -0.3057
 2668TIP3    H2 8011   1.366   5.305   2.303  1.6525 -1.1953  0.8487
 2669TIP3   OH2 8012   2.839   1.476   4.859  0.5186  0.2708  0.6544
 2669TIP3    H1 8013   2.765   1.535   4.844 -0.5681 -1.2368 -0.0965
 2669TIP3    H2 8014   2.855   1.481   4.953 -0.3650  0.7959  0.7844
 2670TIP3   OH2 8015   0.617   3.628   1.496 -0.1188 -0.3163 -0.3545
 2670TIP3    H1 8016   0.628   3.616   1.402 -1.2895 -0.1644 -0.5153
 2670TIP3    H2 8017   0.702   3.601   1.533  0.9323  1.1588 -1.5602
 2671TIP3   OH2 8018   2.129   4.203   2.586 -0.3301 -0.7236 -0.2616
 2671TIP3    H1 8019   2.162   4.223   2.674 -0.0807  0.4041 -0.5948
 2671TIP3    H2 8020   2.052   4.148   2.601  1.4981 -3.2484  0.5663
 2672TIP3   OH2 8021   2.154   0.776   0.172  0.0630 -0.1097 -0.4109
 2672TIP3    H1 8022   2.065   0.750   0.198  0.6916 -1.1406  0.7850
 2672TIP3    H2 8023   2.155   0.871   0.184 -1.1047  0.0347 -1.2127
 2673TIP3   OH2 8024   4.455   4.057   4.625  0.0118  0.7408  0.1815
 2673TIP3    H1 8025   4.457   3.968   4.661 -0.3325 -0.0467 -1.5924
 2673TIP3    H2 8026   4.366   4.087   4.640 -0.2349  0.2771 -0.3043
 2674TIP3   OH2 8027   0.438   0.023   1.068 -0.4123 -0.2818 -0.6007
 2674TIP3    H1 8028   0.434  -0.000   1.161 -1.9106  2.9967  0.2808
 2674TIP3    H2 8029   0.349   0.010   1.036 -0.5064  0.9449 -0.8908
 2675TIP3   OH2 8030   6.134   1.237   1.123 -0.5630 -0.1665 -0.5381
 2675TIP3    H1 8031   6.206   1.282   1.168 -0.5786 -0.3851 -0.2853
 2675TIP3    H2 8032   6.145   1.145   1.148 -0.0479 -0.4426 -1.6978
 2676TIP3   OH2 8033   2.660   0.781   2.393  0.1136 -0.5498 -0.2738
 2676TIP3    H1 8034   2.605   0.714   2.353 -0.3204  0.5174 -1.5557
 2676TIP3    H2 8035   2.612   0.808   2.472 -0.1858 -1.0763 -0.2739
 2677TIP3   OH2 8036   0.758   2.910   4.142 -0.2687  0.2961  0.2607
 2677TIP3    H1 8037   0.709   2.884   4.064  0.9763  1.5625 -0.9939
 2677TIP3    H2 8038   0.810   2.985   4.114  0.4728  0.5709  2.2340
 2678TIP3   OH2 8039   1.155   3.698   3.969 -0.5364 -0.1412  0.4970
 2678TIP3    H1 8040   1.179   3.633   4.034 -1.4453 -2.1562 -1.0602
 2678TIP3    H2 8041   1.192   3.780   4.002  3.2385 -1.8691  1.1845
 2679TIP3   OH2 8042   0.634   1.736   0.960  0.0340  0.1435 -0.8691
 2679TIP3    H1 8043   0.725   1.744   0.932 -0.2595  1.2066 -1.5673
 2679TIP3    H2 8044   0.594   1.677   0.896 -0.1842  1.0993 -1.6412
 2680TIP3   OH2 8045   5.826   2.234   0.475 -1.0569 -0.2138  0.0941
 2680TIP3    H1 8046   5.778   2.173   0.531  1.3786 -0.7472  1.8057
 2680TIP3    H2 8047   5.861   2.299   0.536 -0.9346  1.0575 -1.2807
 2681TIP3   OH2 8048   4.741  -0.011   3.263  0.0635 -0.5328 -0.2234
 2681TIP3    H1 8049   4.805  -0.021   3.192  0.1698  1.7322 -0.5264
 2681TIP3    H2 8050   4.688   0.064   3.236 -0.2504  0.0351  1.8670
 2682TIP3   OH2 8051   3.458   2.937   3.798  0.4204 -0.4414 -0.7639
 2682TIP3    H1 8052   3.406   2.892   3.865  1.2770  0.8930  0.8915
 2682TIP3    H2 8053   3.520   2.991   3.848  2.5338 -0.9661 -2.6440
 2683TIP3   OH2 8054   3.944   0.971   4.749  0.0691 -0.6676  0.3476
 2683TIP3    H1 8055   3.974   0.887   4.713 -2.2303 -1.5801  0.4105
 2683TIP3    H2 8056   3.902   0.948   4.832  0.2241  0.6837  0.8253
 2684TIP3   OH2 8057   5.802   0.830   1.509 -0.1329  0.1353 -0.3930
 2684TIP3    H1 8058   5.806   0.819   1.414  2.2115  0.3309 -0.3640
 2684TIP3    H2 8059   5.749   0.909   1.521 -0.7810 -0.1122 -1.5095
 2685TIP3   OH2 8060   4.002   5.818   3.598  0.1394  0.3236 -0.6883
 2685TIP3    H1 8061   4.096   5.808   3.584  0.2748  0.2254  0.2343
 2685TIP3    H2 8062   3.963   5.787   3.516  0.8447 -1.2440 -0.4767
 2686TIP3   OH2 8063   5.439   5.929   1.848 -0.0384  0.1279  0.1640
 2686TIP3    H1 8064   5.503   5.941   1.918  0.7529 -0.2418 -0.4771
 2686TIP3    H2 8065   5.370   5.875   1.888 -1.3284  2.6866  1.6558
 2687TIP3   OH2 8066   6.028   5.230   1.703 -0.4577  0.5570 -0.0837
 2687TIP3    H1 8067   6.031   5.321   1.731 -0.8341  0.8877 -1.0953
 2687TIP3    H2 8068   6.030   5.233   1.608  0.4419 -0.5391 -0.1228
 2688TIP3   OH2 8069   0.646   5.536   4.737  0.1180 -0.0954  0.5052
 2688TIP3    H1 8070   0.657   5.451   4.781  0.4788  0.0713  0.7327
 2688TIP3    H2 8071   0.713   5.592   4.775  1.6704 -0.4559 -1.5576
 2689TIP3   OH2 8072   0.929   3.982   3.925 -0.0373 -0.1132  0.1907
 2689TIP3    H1 8073   0.888   3.970   4.010  1.9767 -2.4269  0.9408
 2689TIP3    H2 8074   0.895   4.066   3.894 -1.5556  0.3557  2.8112
 2690TIP3   OH2 8075   4.765   5.703   2.693 -0.4872 -0.4391  0.5482
 2690TIP3    H1 8076   4.692   5.762   2.711  0.0239  0.4062 -0.0611
 2690TIP3    H2 8077   4.812   5.744   2.620 -0.8041 -2.2203 -0.7426
 2691TIP3   OH2 8078   5.891   3.032   0.698 -0.0498 -0.1529 -0.2603
 2691TIP3    H1 8079   5.855   2.989   0.621 -2.0450  0.0096  0.5272
 2691TIP3    H2 8080   5.820   3.087   0.730  0.5712 -0.5341  1.9322
 2692TIP3   OH2 8081   6.326   2.222   0.765 -0.0275  0.0400 -0.0745
 2692TIP3    H1 8082   6.356   2.132   0.778  0.7985  0.3230  0.0221
 2692TIP3    H2 8083   6.241   2.212   0.721  1.0213 -0.7516 -2.0506
 2693TIP3   OH2 8084   0.227   4.667   1.882 -0.5173  0.1921  0.0604
 2693TIP3    H1 8085   0.250   4.581   1.846 -2.6320  0.6294 -2.5736
 2693TIP3    H2 8086   0.299   4.724   1.855 -0.7135 -0.0758 -1.0530
 2694TIP3   OH2 8087   0.360   0.457   4.048 -0.7453  0.6001 -0.2952
 2694TIP3    H1 8088   0.323   0.386   4.102  0.8643 -0.5498 -0.6510
 2694TIP3    H2 8089   0.439   0.483   4.094 -0.6442  1.3057 -0.8509
 2695TIP3   OH2 8090   2.429   3.361   3.441 -0.4519 -0.4056 -0.2620
 2695TIP3    H1 8091   2.516   3.397   3.460 -0.9458  0.5669  0.2386
 2695TIP3    H2 8092   2.387   3.354   3.527 -1.8028  1.6080 -0.7029
 2696TIP3   OH2 8093   4.898   2.148   4.098  0.2665 -0.4457  0.3044
 2696TIP3    H1 8094   4.925   2.126   4.188  0.5940  0.8335  0.5390
 2696TIP3    H2 8095   4.802   2.142   4.100  0.1513  1.1773  1.2172
 2697TIP3   OH2 8096   3.459   0.295   4.522  0.6531  0.2344 -0.1929
 2697TIP3    H1 8097   3.453   0.375   4.575 -0.0874 -0.1323  0.3034
 2697TIP3    H2 8098   3.465   0.326   4.432  2.3077  0.8814  0.1166
 2698TIP3   OH2 8099   5.987   1.741   2.454  0.2506 -0.1254 -0.0448
 2698TIP3    H1 8100   6.019   1.651   2.443  0.1782 -0.4100  1.6851
 2698TIP3    H2 8101   6.062   1.795   2.431 -0.1591 -0.5240 -2.5986
 2699TIP3   OH2 8102   0.868   2.343   2.160  0.2774  0.2302  0.9973
 2699TIP3    H1 8103   0.906   2.307   2.240 -0.0102 -0.6140  0.7698
 2699TIP3    H2 8104   0.886   2.277   2.093 -2.8042 -0.9599  1.1654
 2700TIP3   OH2 8105   3.344   1.191   4.311 -0.1929  0.2100  0.1532
 2700TIP3    H1 8106   3.439   1.185   4.299 -0.1898  0.8771 -0.2176
 2700TIP3    H2 8107   3.333   1.241   4.392 -0.2332 -0.6103  0.6672
 2701TIP3   OH2 8108   4.179   5.423   1.184  0.7668 -0.4552  0.1050
 2701TIP3    H1 8109   4.209   5.352   1.241 -1.3669 -0.8162  0.8531
 2701TIP3    H2 8110   4.180   5.501   1.240  1.1127 -0.3039 -0.1108
 2702TIP3   OH2 8111   0.919   3.098   1.916  0.1480 -0.2258 -0.7696
 2702TIP3    H1 8112   0.999   3.112   1.967 -0.8654 -0.1442  0.8478
 2702TIP3    H2 8113   0.912   3.003   1.910  0.3607 -0.2338 -0.9168
 2703TIP3   OH2 8114   2.483   5.329   1.226 -0.3316 -0.2817 -0.2896
 2703TIP3    H1 8115   2.528   5.372   1.299  0.3714 -0.9003 -0.3471
 2703TIP3    H2 8116   2.511   5.378   1.149  0.0010 -0.4758 -0.2919
 2704TIP3   OH2 8117   2.102   1.129   4.593  0.3800 -0.3059  0.4679
 2704TIP3    H1 8118   2.026   1.114   4.536  0.3266 -0.3859  0.5597
 2704TIP3    H2 8119   2.148   1.045   4.594  0.5497 -0.2175  0.2969
 2705TIP3   OH2 8120   5.352   5.253   0.318 -0.0680 -0.1066 -0.3031
 2705TIP3    H1 8121   5.295   5.321   0.354 -1.1497 -0.5755 -1.0794
 2705TIP3    H2 8122   5.292   5.189   0.280  0.9819 -0.5451 -1.2878
 2706TIP3   OH2 8123   3.632   5.128   1.851  0.1146  0.1670  0.0984
 2706TIP3    H1 8124   3.555   5.136   1.795  0.7261 -1.9645 -1.1539
 2706TIP3    H2 8125   3.598   5.106   1.937 -0.7199  0.7066 -0.0871
 2707TIP3   OH2 8126   1.810   4.042   4.314  0.2106 -0.0308 -0.4241
 2707TIP3    H1 8127   1.803   4.128   4.355  1.3493  0.2692 -0.8256
 2707TIP3    H2 8128   1.807   3.981   4.387  0.0809  0.3864 -0.0724
 2708TIP3   OH2 8129   4.172   4.916   4.589 -0.2281  0.1351 -0.4749
 2708TIP3    H1 8130   4.176   4.996   4.641 -0.4855  0.6060 -1.1722
 2708TIP3    H2 8131   4.259   4.877   4.598  0.3423  1.1901 -1.2131
 2709TIP3   OH2 8132   4.613   5.155   4.304 -0.0303 -0.3488 -0.0026
 2709TIP3    H1 8133   4.645   5.223   4.245 -0.5818  0.9361  1.1286
 2709TIP3    H2 8134   4.540   5.196   4.350  1.0512 -0.9283  2.3593
 2710TIP3   OH2 8135   2.072   2.287   2.826  0.6437 -0.2036 -0.3375
 2710TIP3    H1 8136   1.981   2.312   2.846  0.4607 -0.1889 -1.1347
 2710TIP3    H2 8137   2.065   2.197   2.794  0.7879  0.1140 -1.2845
 2711TIP3   OH2 8138   3.319   3.992   4.554  0.5493 -0.2575 -0.2917
 2711TIP3    H1 8139   3.299   3.933   4.481  0.7281 -0.5749 -0.0813
 2711TIP3    H2 8140   3.337   4.076   4.511  0.7195 -0.4578 -0.6194
 2712TIP3   OH2 8141   2.250   1.580   1.777 -0.2766 -0.0599 -0.2254
 2712TIP3    H1 8142   2.190   1.595   1.851  0.2407 -2.1895  0.6772
 2712TIP3    H2 8143   2.312   1.515   1.809 -0.0608 -1.0830 -2.5659
 2713TIP3   OH2 8144   5.865   5.892   3.373  0.1500  0.0344 -0.1348
 2713TIP3    H1 8145   5.776   5.864   3.396  1.4485 -0.9865  4.7461
 2713TIP3    H2 8146   5.852   5.969   3.317 -3.8878  1.1029  1.8726
 2714TIP3   OH2 8147   2.884   1.850   5.060  0.4637  0.2883 -0.5412
 2714TIP3    H1 8148   2.795   1.865   5.030  0.8840  1.8336 -1.0987
 2714TIP3    H2 8149   2.939   1.867   4.984  1.2813  0.0507 -0.0201
 2715TIP3   OH2 8150   4.708   0.553   2.207  0.0673 -0.3843 -0.7689
 2715TIP3    H1 8151   4.774   0.572   2.141  2.0512 -2.2086  0.5440
 2715TIP3    H2 8152   4.697   0.458   2.204 -0.7837 -0.3687  0.6356
 2716TIP3   OH2 8153   0.331   1.424   3.367  0.9685 -0.4063 -0.0130
 2716TIP3    H1 8154   0.303   1.500   3.316  1.6331 -0.4696 -0.4940
 2716TIP3    H2 8155   0.335   1.352   3.303 -0.0236 -0.9473  0.5124
 2717TIP3   OH2 8156   0.678   2.554   1.319 -0.2001  0.1318 -0.1476
 2717TIP3    H1 8157   0.649   2.514   1.401 -1.5631 -2.8554 -1.9077
 2717TIP3    H2 8158   0.609   2.617   1.298 -0.9687 -0.6519 -0.0331
 2718TIP3   OH2 8159   0.174   4.822   2.592 -0.0290  0.7155 -0.3541
 2718TIP3    H1 8160   0.146   4.835   2.502 -1.0560 -1.9161 -0.5140
 2718TIP3    H2 8161   0.128   4.743   2.620  2.1544  0.0483  1.6706
 2719TIP3   OH2 8162   1.675   1.261   0.075  0.3622  0.4884  0.0606
 2719TIP3    H1 8163   1.768   1.282   0.070  0.5941 -0.2870  0.8319
 2719TIP3    H2 8164   1.672   1.165   0.077 -0.5214  0.4754 -1.0483
 2720TIP3   OH2 8165   1.204   4.834   1.840 -0.0758 -0.4426 -0.1275
 2720TIP3    H1 8166   1.134   4.887   1.878  0.8148  0.5400  0.1918
 2720TIP3    H2 8167   1.274   4.837   1.905 -0.5833 -3.4924  0.7342
 2721TIP3   OH2 8168   6.123   3.411   4.051 -0.1714  0.3819  0.1280
 2721TIP3    H1 8169   6.099   3.441   3.963 -1.0718  1.0449  0.5803
 2721TIP3    H2 8170   6.211   3.446   4.065  0.5015 -0.7754 -0.9668
 2722TIP3   OH2 8171   0.055   5.599   1.094 -0.6800 -0.3677  0.1778
 2722TIP3    H1 8172   0.109   5.646   1.157 -0.2173  0.9562 -1.1319
 2722TIP3    H2 8173   0.088   5.509   1.096  0.5348  0.0590  0.5433
 2723TIP3   OH2 8174   1.834   1.333   1.373 -0.4674 -0.3250  0.3724
 2723TIP3    H1 8175   1.894   1.288   1.433  0.6999  0.0872 -0.4407
 2723TIP3    H2 8176   1.763   1.270   1.357  0.2502 -1.2102  0.6084
 2724TIP3   OH2 8177   5.566   1.570   2.159  0.1173 -0.2803 -0.0455
 2724TIP3    H1 8178   5.495   1.589   2.221 -1.2482 -1.7682 -1.0765
 2724TIP3    H2 8179   5.635   1.531   2.213 -0.1222  0.5060  0.8636
 2725TIP3   OH2 8180   4.305   2.291   1.943 -0.3517  0.4257  0.6937
 2725TIP3    H1 8181   4.366   2.358   1.974  0.6602 -0.2301  0.1440
 2725TIP3    H2 8182   4.271   2.251   2.023  1.0796 -0.2179  1.0022
 2726TIP3   OH2 8183   1.135   0.914   1.399 -0.0258 -0.0125 -0.4556
 2726TIP3    H1 8184   1.135   0.965   1.480  1.0785 -0.3067 -0.2600
 2726TIP3    H2 8185   1.198   0.844   1.414 -0.5419 -0.6581 -1.2123
 2727TIP3   OH2 8186   2.624   1.904   4.611 -0.0850 -0.1079  0.5342
 2727TIP3    H1 8187   2.616   1.832   4.673 -1.7526  0.4898  1.0591
 2727TIP3    H2 8188   2.614   1.862   4.525 -1.8115 -0.4559  0.8587
 2728TIP3   OH2 8189   2.753   2.021   2.282 -0.7566 -0.3908 -0.3859
 2728TIP3    H1 8190   2.680   1.965   2.255  1.0973 -2.3003 -1.7006
 2728TIP3    H2 8191   2.780   1.987   2.367 -1.5404  0.5278  0.2589
 2729TIP3   OH2 8192   1.621   1.708   1.090 -0.3645 -0.7196  0.3305
 2729TIP3    H1 8193   1.606   1.628   1.140 -1.1073 -0.0531  1.2090
 2729TIP3    H2 8194   1.571   1.696   1.009 -0.6303 -1.0657  0.5451
 2730TIP3   OH2 8195   5.812   5.105   2.512 -0.4671  0.5322  0.0714
 2730TIP3    H1 8196   5.809   5.014   2.482  0.4841  0.5103  0.0154
 2730TIP3    H2 8197   5.892   5.111   2.563 -0.8234  1.1991  0.5700
 2731TIP3   OH2 8198   1.702   5.506   2.097  0.3522  0.3168  0.1476
 2731TIP3    H1 8199   1.649   5.441   2.051  0.1932 -1.6337  2.8404
 2731TIP3    H2 8200   1.639   5.571   2.127 -0.2051 -0.7339  1.3090
 2732TIP3   OH2 8201   5.054   3.270   4.365 -0.0959  0.0740 -0.6702
 2732TIP3    H1 8202   5.065   3.268   4.460  0.1567  1.5023 -0.6572
 2732TIP3    H2 8203   4.989   3.202   4.348 -0.6813  0.2748  0.6051
 2733TIP3   OH2 8204   4.025   3.089   4.095  0.0469 -0.0548 -0.1895
 2733TIP3    H1 8205   4.111   3.050   4.109 -1.3171 -4.3716 -1.9516
 2733TIP3    H2 8206   4.028   3.124   4.006 -0.1113 -0.5827 -0.4058
 2734TIP3   OH2 8207   1.661   1.441   4.003 -0.3082 -0.0371 -0.3231
 2734TIP3    H1 8208   1.603   1.470   3.932  0.7647  1.1080 -0.7764
 2734TIP3    H2 8209   1.722   1.380   3.961 -0.9708 -1.0180  0.0930
 2735TIP3   OH2 8210   4.278   3.269   2.728 -0.0032  0.1510  0.3214
 2735TIP3    H1 8211   4.249   3.178   2.728 -0.1671  0.1883 -0.8357
 2735TIP3    H2 8212   4.372   3.265   2.741 -0.1699 -0.0995  1.6111
 2736TIP3   OH2 8213   4.684   1.733   1.745  0.4803  0.2675 -0.1726
 2736TIP3    H1 8214   4.622   1.759   1.676  0.4040 -0.9459 -0.5856
 2736TIP3    H2 8215   4.764   1.711   1.698  0.4659 -0.4492  0.1269
 2737TIP3   OH2 8216   1.102   3.268   1.743 -0.6892 -0.0187 -0.5497
 2737TIP3    H1 8217   1.059   3.188   1.773 -0.5966 -0.2677 -1.0787
 2737TIP3    H2 8218   1.108   3.323   1.822 -1.6633 -0.1200 -0.3934
 2738TIP3   OH2 8219   6.006   1.346   0.684  0.3212 -1.2518  0.3007
 2738TIP3    H1 8220   6.060   1.296   0.746 -0.5346 -1.5606  0.8180
 2738TIP3    H2 8221   5.935   1.287   0.661  0.8437 -1.2855 -1.3242
 2739TIP3   OH2 8222   6.077   3.177   2.294 -0.0423  0.4793 -0.0066
 2739TIP3    H1 8223   6.059   3.092   2.333  1.0325  0.5921  0.8102
 2739TIP3    H2 8224   6.094   3.234   2.369 -0.5903  1.3743 -0.5496
 2740TIP3   OH2 8225   3.405   3.056   4.629  0.1838 -0.2548  0.3670
 2740TIP3    H1 8226   3.460   2.999   4.575  2.6786  0.4661  1.9780
 2740TIP3    H2 8227   3.370   2.998   4.698  0.8085 -0.2992  0.6518
 2741TIP3   OH2 8228   3.121   3.259   1.177 -0.8011  0.0194  0.0385
 2741TIP3    H1 8229   3.102   3.183   1.232 -2.9075  0.2510 -0.2898
 2741TIP3    H2 8230   3.116   3.334   1.236 -0.1574  0.0266  0.0863
 2742TIP3   OH2 8231   1.417   4.696   1.719  0.3188 -0.2169  0.3382
 2742TIP3    H1 8232   1.378   4.609   1.724 -0.6668 -0.0058 -2.3022
 2742TIP3    H2 8233   1.365   4.749   1.780 -0.4071 -1.0113  0.4182
 2743TIP3   OH2 8234   5.642   2.446   1.054 -0.3472 -0.2584 -0.4818
 2743TIP3    H1 8235   5.678   2.472   1.139 -1.5964  0.9951 -0.3037
 2743TIP3    H2 8236   5.716   2.407   1.008  0.9607  1.1975  0.2883
 2744TIP3   OH2 8237   2.072   1.322   4.010  0.2525  0.0000 -0.0190
 2744TIP3    H1 8238   2.106   1.232   4.017  2.5717  0.6849 -1.3108
 2744TIP3    H2 8239   1.994   1.313   3.956  1.1335 -1.1536 -1.1797
 2745TIP3   OH2 8240   6.028   2.003   3.094 -0.7296 -0.0740  0.1532
 2745TIP3    H1 8241   6.016   2.021   3.187  0.3221  1.2586  0.0618
 2745TIP3    H2 8242   5.990   2.080   3.050 -2.4826 -1.3106 -0.6138
 2746TIP3   OH2 8243   0.004   1.562   2.362 -0.2805 -0.2292 -0.0786
 2746TIP3    H1 8244   0.097   1.559   2.382 -0.2990 -0.5692 -0.0345
 2746TIP3    H2 8245  -0.027   1.643   2.403 -0.5596 -1.4838  2.4241
 2747TIP3   OH2 8246   3.749   4.215   3.362 -0.2644  0.2619 -0.1640
 2747TIP3    H1 8247   3.742   4.136   3.416  0.8082 -0.4694 -1.0500
 2747TIP3    H2 8248   3.699   4.281   3.409 -0.3920 -0.6907  1.0795
 2748TIP3   OH2 8249   5.866   5.793   0.297 -0.1385 -0.1591  0.1448
 2748TIP3    H1 8250   5.863   5.884   0.328  0.1665 -0.6247  1.6085
 2748TIP3    H2 8251   5.959   5.770   0.299 -0.1717 -0.4087 -0.5776
 2749TIP3   OH2 8252   3.863   4.103   4.844 -0.3335 -0.3699 -0.3367
 2749TIP3    H1 8253   3.835   4.097   4.936 -0.6413 -0.2601 -0.4215
 2749TIP3    H2 8254   3.790   4.065   4.795 -0.1669 -0.4306 -0.5353
 2750TIP3   OH2 8255   1.984   3.406   3.644 -0.0240 -0.1212  0.2863
 2750TIP3    H1 8256   2.020   3.494   3.635  0.7131 -0.0162  3.1564
 2750TIP3    H2 8257   1.947   3.404   3.733 -1.8220 -2.1065 -0.4214
 2751TIP3   OH2 8258   2.249   2.347   5.024 -0.2924 -0.5137  0.1983
 2751TIP3    H1 8259   2.235   2.261   4.984 -0.5811 -0.9178  1.1322
 2751TIP3    H2 8260   2.178   2.356   5.087  0.3289 -0.0355  0.8469
 2752TIP3   OH2 8261   3.907   5.957   1.536 -0.0330  0.3420 -0.4880
 2752TIP3    H1 8262   3.861   5.872   1.534  1.2910 -0.5168  2.0507
 2752TIP3    H2 8263   3.866   6.005   1.607  1.7600  0.2503  0.6625
 2753TIP3   OH2 8264   0.233   4.569   4.882  0.1710  0.1279  0.2942
 2753TIP3    H1 8265   0.199   4.600   4.967 -0.4828 -2.1441  0.9415
 2753TIP3    H2 8266   0.215   4.475   4.883  0.3852  0.0022 -2.2871
 2754TIP3   OH2 8267   2.477   0.995   3.373 -0.0078  0.2744  0.5599
 2754TIP3    H1 8268   2.457   1.085   3.348  0.3137  0.7422  1.9229
 2754TIP3    H2 8269   2.537   1.003   3.447 -1.5362 -1.0371  2.0155
 2755TIP3   OH2 8270   1.822   2.518   0.150 -0.5924  0.7700 -0.0947
 2755TIP3    H1 8271   1.910   2.488   0.172  0.0564  2.8821  0.3551
 2755TIP3    H2 8272   1.765   2.458   0.199  0.6277  0.2404  0.7433
 2756TIP3   OH2 8273   5.540   1.876   2.283  0.1101  0.1808  0.3072
 2756TIP3    H1 8274   5.624   1.836   2.259 -0.3784 -0.2883 -0.7019
 2756TIP3    H2 8275   5.504   1.907   2.200 -0.1565  1.5190  0.8964
 2757TIP3   OH2 8276   2.905   1.237   2.222 -0.4409 -0.2611 -0.2447
 2757TIP3    H1 8277   2.833   1.271   2.170  0.2281  0.1163 -0.9512
 2757TIP3    H2 8278   2.978   1.230   2.160  0.7813  1.4675  0.8970
 2758TIP3   OH2 8279   1.875   4.278   4.477  0.4695  0.1372  0.0275
 2758TIP3    H1 8280   1.827   4.361   4.473 -1.9300 -1.2039 -1.7511
 2758TIP3    H2 8281   1.867   4.251   4.569 -0.7855  0.7723  0.1333
 2759TIP3   OH2 8282   1.259   1.421   3.614 -0.3123 -0.5204 -0.2511
 2759TIP3    H1 8283   1.265   1.336   3.570  1.8253  0.9616 -3.2109
 2759TIP3    H2 8284   1.262   1.400   3.707 -0.2725 -3.7003 -0.8509
 2760TIP3   OH2 8285   4.719   3.048   0.041 -0.1961  0.1066 -0.1509
 2760TIP3    H1 8286   4.634   3.080   0.011 -0.8175 -1.0408  0.3063
 2760TIP3    H2 8287   4.699   2.965   0.084  1.3838 -1.1154 -1.6679
 2761TIP3   OH2 8288   5.486   5.455   1.654 -0.5075  0.1881  0.0713
 2761TIP3    H1 8289   5.457   5.451   1.745  1.5895  1.1678  0.8720
 2761TIP3    H2 8290   5.478   5.548   1.631 -1.9147 -0.1975 -1.1025
 2762TIP3   OH2 8291   5.415   3.597   2.679 -0.2550 -0.7611  0.0116
 2762TIP3    H1 8292   5.348   3.648   2.633 -3.1177 -1.7664  2.6754
 2762TIP3    H2 8293   5.450   3.657   2.745  0.3484 -0.7040 -0.3533
 2763TIP3   OH2 8294   2.522   4.626   2.687 -0.0702 -0.4169 -0.0999
 2763TIP3    H1 8295   2.522   4.555   2.752 -1.0981 -0.3150  0.0297
 2763TIP3    H2 8296   2.430   4.636   2.663  0.0863  0.7414 -0.2647
 2764TIP3   OH2 8297   4.279   1.102   3.712 -0.2292 -0.0400  0.5470
 2764TIP3    H1 8298   4.208   1.043   3.685  1.4982 -1.5711 -0.8586
 2764TIP3    H2 8299   4.303   1.149   3.633  1.7589 -1.1524  0.4308
 2765TIP3   OH2 8300   0.227   3.363   2.102 -0.7564 -0.2024  0.4510
 2765TIP3    H1 8301   0.311   3.342   2.145 -0.2379  0.2117 -0.3294
 2765TIP3    H2 8302   0.186   3.427   2.160  0.3286  1.0026 -0.0530
 2766TIP3   OH2 8303   0.599   0.651   4.004 -0.2716 -0.0121  0.0225
 2766TIP3    H1 8304   0.587   0.690   3.918  0.0217  1.3765  0.5925
 2766TIP3    H2 8305   0.554   0.710   4.064  0.1000 -0.5957  0.9049
 2767TIP3   OH2 8306   5.905   5.614   4.569  0.0979 -0.4613 -0.5919
 2767TIP3    H1 8307   5.957   5.625   4.490 -1.2943  0.2156 -1.4584
 2767TIP3    H2 8308   5.853   5.536   4.553 -0.0685 -0.4172 -0.2730
 2768TIP3   OH2 8309   0.987   2.202   0.804 -0.8826  0.0222 -0.1485
 2768TIP3    H1 8310   0.996   2.200   0.709 -2.4230 -3.2143 -0.3572
 2768TIP3    H2 8311   0.931   2.278   0.821 -1.8040 -0.1958 -1.9809
 2769TIP3   OH2 8312   1.414   0.329   0.301  0.4779  0.2451 -0.1927
 2769TIP3    H1 8313   1.404   0.253   0.358  1.0308  0.3825  0.0853
 2769TIP3    H2 8314   1.455   0.396   0.355 -1.3481  1.2656  0.0032
 2770TIP3   OH2 8315   1.161   5.601   4.008 -0.0816 -0.4723  0.1457
 2770TIP3    H1 8316   1.198   5.566   4.089 -0.0120  0.3532  0.4775
 2770TIP3    H2 8317   1.160   5.696   4.021 -1.3071 -0.4076 -0.2814
 2771TIP3   OH2 8318   6.047   1.019   2.453 -0.2839  0.4296  0.1296
 2771TIP3    H1 8319   6.119   0.976   2.408 -1.0011  0.6446 -1.2762
 2771TIP3    H2 8320   6.043   1.106   2.413 -0.4768  0.9124  1.1519
 2772TIP3   OH2 8321   2.240   1.796   0.232  0.4035 -0.5256 -0.4268
 2772TIP3    H1 8322   2.322   1.766   0.272  1.0156 -1.3580 -2.1994
 2772TIP3    H2 8323   2.172   1.763   0.289  1.2685  0.2442  1.1363
 2773TIP3   OH2 8324   6.288   5.016   1.419 -0.6014 -0.0091  0.0144
 2773TIP3    H1 8325   6.354   5.075   1.381 -0.6423  0.4318  0.6039
 2773TIP3    H2 8326   6.242   4.980   1.343  0.3013 -0.3101 -0.4087
 2774TIP3   OH2 8327   4.561   3.499   4.318  0.1545  0.2578 -0.1611
 2774TIP3    H1 8328   4.554   3.429   4.383 -1.6297 -1.3770 -1.9606
 2774TIP3    H2 8329   4.572   3.579   4.370  2.7417 -1.3191  1.9719
 2775TIP3   OH2 8330   2.654   5.044   1.902 -0.2692  0.7007  0.3185
 2775TIP3    H1 8331   2.563   5.070   1.887 -0.5185 -0.0415  0.5278
 2775TIP3    H2 8332   2.656   4.950   1.883  0.1117  0.3840  1.8161
 2776TIP3   OH2 8333   3.112   1.235   0.049  0.6111  0.3811  0.0396
 2776TIP3    H1 8334   3.178   1.237  -0.020 -0.2269 -3.2891 -1.0650
 2776TIP3    H2 8335   3.159   1.213   0.129  1.2307  2.2020  0.2315
 2777TIP3   OH2 8336   2.716   3.788   1.950  0.4563 -0.1540 -0.1383
 2777TIP3    H1 8337   2.656   3.730   1.995  0.3733  0.4342  0.5151
 2777TIP3    H2 8338   2.670   3.814   1.870 -0.1993  0.3493  0.3903
 2778TIP3   OH2 8339   3.186   3.467   0.665 -0.2567  0.2384 -0.2149
 2778TIP3    H1 8340   3.276   3.454   0.694 -0.5745 -1.5447  0.0784
 2778TIP3    H2 8341   3.162   3.385   0.620 -1.7230  0.6718 -0.2990
 2779TIP3   OH2 8342   3.781   1.436   4.132  0.5540 -0.2290  0.3510
 2779TIP3    H1 8343   3.833   1.506   4.093 -0.9836  0.2786 -0.9179
 2779TIP3    H2 8344   3.711   1.481   4.179  0.5901 -0.9043  1.0681
 2780TIP3   OH2 8345   4.999   2.811   1.014 -0.1300 -0.3452 -0.6530
 2780TIP3    H1 8346   5.018   2.790   0.922 -1.1127  1.2182 -1.2584
 2780TIP3    H2 8347   5.084   2.830   1.052  0.1599  0.6125 -1.7109
 2781TIP3   OH2 8348   4.156   5.573   4.096  0.0584  0.1753 -0.0210
 2781TIP3    H1 8349   4.107   5.633   4.152  0.3917 -0.0117  0.4845
 2781TIP3    H2 8350   4.097   5.553   4.024  0.2630  1.7874 -0.6763
 2782TIP3   OH2 8351   1.415   4.140   0.168 -0.5001  0.0822 -0.1220
 2782TIP3    H1 8352   1.335   4.169   0.212 -0.6919 -1.1865  0.4364
 2782TIP3    H2 8353   1.392   4.053   0.133  0.1935  0.3178 -1.2090
 2783TIP3   OH2 8354   1.633   4.075   3.019  0.0626 -0.0463 -0.0510
 2783TIP3    H1 8355   1.552   4.025   3.009 -0.5429  0.5909  1.3958
 2783TIP3    H2 8356   1.701   4.016   2.987 -0.8030 -1.1787  0.1177
 2784TIP3   OH2 8357   2.354   0.437   1.705  0.2807  0.2297 -0.2739
 2784TIP3    H1 8358   2.334   0.506   1.767 -1.9346  0.5801 -1.2838
 2784TIP3    H2 8359   2.269   0.403   1.677  1.2584 -1.9923 -0.8485
 2785TIP3   OH2 8360   1.877   1.217   2.561 -0.0850 -0.0705  0.2246
 2785TIP3    H1 8361   1.840   1.305   2.574 -0.2546 -0.1509  0.2902
 2785TIP3    H2 8362   1.876   1.206   2.466 -0.9841 -0.3868  0.2562
 2786TIP3   OH2 8363   1.912   1.195   0.756 -0.6846 -0.2653  0.1691
 2786TIP3    H1 8364   1.965   1.206   0.835 -2.5242  2.9841  1.1191
 2786TIP3    H2 8365   1.832   1.152   0.786 -0.6806 -0.6128 -0.2986
 2787TIP3   OH2 8366   5.018   2.793   0.217  0.2528 -0.3046  0.2521
 2787TIP3    H1 8367   5.098   2.745   0.195 -0.0571 -0.9090  0.4329
 2787TIP3    H2 8368   4.977   2.742   0.286  0.1030  0.4231  0.7168
 2788TIP3   OH2 8369   2.847   4.752   0.141  0.2420 -0.1826  0.2270
 2788TIP3    H1 8370   2.788   4.795   0.202 -0.9538 -2.1169  0.5313
 2788TIP3    H2 8371   2.842   4.659   0.164  2.1056 -0.6113 -0.8653
 2789TIP3   OH2 8372   1.346   5.763   2.416 -0.0254 -0.0824  0.1176
 2789TIP3    H1 8373   1.398   5.831   2.374  2.7616 -0.8626  2.0166
 2789TIP3    H2 8374   1.292   5.810   2.480  0.5842  0.5379  0.1918
 2790TIP3   OH2 8375   5.553   5.392   3.328  0.0543  0.4431 -0.2594
 2790TIP3    H1 8376   5.584   5.333   3.396 -1.4150  0.2733  0.2938
 2790TIP3    H2 8377   5.595   5.476   3.347 -0.9935  0.6404  1.4172
 2791TIP3   OH2 8378   3.893   0.648   1.172  0.0761  0.2037 -0.1717
 2791TIP3    H1 8379   3.853   0.574   1.127 -1.3998  0.1677  1.1195
 2791TIP3    H2 8380   3.978   0.660   1.128 -0.8342 -0.4519 -2.2452
 2792TIP3   OH2 8381   2.744   4.951   4.621  0.2356  0.3510  0.4407
 2792TIP3    H1 8382   2.758   4.996   4.704 -0.3419  0.7412  0.3283
 2792TIP3    H2 8383   2.715   4.863   4.646 -0.9354  0.7808  0.6643
 2793TIP3   OH2 8384   4.984   3.916   4.601 -0.1339 -0.4023 -0.0614
 2793TIP3    H1 8385   4.915   3.939   4.538 -1.7644  0.2500  1.8750
 2793TIP3    H2 8386   4.985   3.820   4.601 -0.6321 -0.4124 -0.5360
 2794TIP3   OH2 8387   3.093   3.827   2.182 -0.0782  0.7172 -0.5018
 2794TIP3    H1 8388   3.096   3.894   2.250  0.0909  0.8011 -0.5898
 2794TIP3    H2 8389   3.169   3.847   2.126 -1.1897  1.7393 -1.7317
 2795TIP3   OH2 8390   2.046   0.211   1.264 -0.1799  0.2768 -0.2049
 2795TIP3    H1 8391   1.997   0.184   1.341  2.1307  0.0502  1.2813
 2795TIP3    H2 8392   2.095   0.132   1.238  0.2951  0.7909 -0.9158
 2796TIP3   OH2 8393   3.542   1.295   1.514 -0.3034  0.2186 -0.3496
 2796TIP3    H1 8394   3.636   1.277   1.522 -0.4697 -0.9967 -0.9149
 2796TIP3    H2 8395   3.535   1.389   1.529  0.8202  0.1013  1.1732
 2797TIP3   OH2 8396   4.628   0.751   0.299 -0.6565  0.2160  0.7550
 2797TIP3    H1 8397   4.582   0.733   0.217  0.1037  0.8229  0.1814
 2797TIP3    H2 8398   4.690   0.679   0.309 -0.5500  0.2922  0.6447
 2798TIP3   OH2 8399   4.209   2.218   4.235  0.2831 -0.2577  0.1083
 2798TIP3    H1 8400   4.182   2.307   4.256  0.3594 -0.0695 -0.5652
 2798TIP3    H2 8401   4.292   2.228   4.190  0.1999 -0.6539 -0.1393
 2799TIP3   OH2 8402   0.342   2.567   2.817  0.1972  0.0506  0.6541
 2799TIP3    H1 8403   0.342   2.577   2.913  1.7723 -0.8413  0.7828
 2799TIP3    H2 8404   0.391   2.643   2.785 -0.3684  0.3731  0.5311
 2800TIP3   OH2 8405   2.011   0.396   0.550 -0.0771  0.4993  0.0554
 2800TIP3    H1 8406   2.001   0.379   0.643 -0.7979 -0.4407 -0.1741
 2800TIP3    H2 8407   2.056   0.480   0.545  1.0094  0.0099  1.2440
 2801TIP3   OH2 8408   1.921   1.755   0.157  0.3480 -0.2705  0.1384
 2801TIP3    H1 8409   1.946   1.677   0.206  0.8443 -0.1795  0.0329
 2801TIP3    H2 8410   1.847   1.727   0.103  1.1574 -0.9397 -0.6581
 2802TIP3   OH2 8411   2.408   5.298   4.516  0.2142  0.7652  0.0968
 2802TIP3    H1 8412   2.370   5.297   4.428 -0.2777  1.3376  0.3032
 2802TIP3    H2 8413   2.441   5.387   4.528 -1.1363  1.1520  1.0936
 2803TIP3   OH2 8414   5.045   5.358   3.042  0.0497 -0.0937 -0.3879
 2803TIP3    H1 8415   5.092   5.436   3.074 -0.4486  0.1005 -0.1190
 2803TIP3    H2 8416   4.955   5.387   3.030 -0.1351 -0.6245 -0.3145
 2804TIP3   OH2 8417   3.995   4.839   1.971  0.2812 -0.0701  0.6498
 2804TIP3    H1 8418   3.906   4.804   1.982  0.8469 -1.0589  2.4893
 2804TIP3    H2 8419   4.002   4.906   2.039 -0.1402  2.4533 -1.6379
 2805TIP3   OH2 8420   2.550   3.265   1.570 -0.3384 -0.1254 -0.0594
 2805TIP3    H1 8421   2.601   3.303   1.499 -0.3215 -1.9474 -1.0887
 2805TIP3    H2 8422   2.507   3.340   1.612  0.4296  1.0845 -1.3547
 2806TIP3   OH2 8423   4.081   0.183   1.240 -0.2795  0.2369  0.3690
 2806TIP3    H1 8424   4.040   0.210   1.322  0.5162  0.2633  0.7733
 2806TIP3    H2 8425   4.081   0.088   1.244  1.8114  0.2036  1.5119
 2807TIP3   OH2 8426   6.210   0.568   2.377 -0.3673  0.1784 -0.4193
 2807TIP3    H1 8427   6.302   0.547   2.392 -0.1135  0.7179 -1.1493
 2807TIP3    H2 8428   6.184   0.617   2.455 -0.7038 -1.9206  0.8606
 2808TIP3   OH2 8429   6.097   1.691   2.769 -0.4345  0.2446 -0.4458
 2808TIP3    H1 8430   6.033   1.752   2.805 -2.3036 -1.3113 -0.9706
 2808TIP3    H2 8431   6.058   1.605   2.782  1.0179 -0.6852 -1.8641
 2809TIP3   OH2 8432   2.310   1.732   2.106 -0.4158 -0.7147 -0.2966
 2809TIP3    H1 8433   2.267   1.666   2.051 -1.9983 -0.1554  0.1985
 2809TIP3    H2 8434   2.254   1.809   2.097  1.3120  0.5424 -0.7477
 2810TIP3   OH2 8435   1.523   4.134   0.879  0.6557  0.0443 -0.2658
 2810TIP3    H1 8436   1.428   4.129   0.881  0.6175 -1.9914 -2.6495
 2810TIP3    H2 8437   1.546   4.183   0.958 -2.4150  2.3860 -0.6538
 2811TIP3   OH2 8438   6.093   3.430   0.226 -0.6672 -0.1484  0.7909
 2811TIP3    H1 8439   6.173   3.426   0.174 -0.3311  1.8518  1.0571
 2811TIP3    H2 8440   6.022   3.431   0.162 -0.2764  1.8394  0.3251
 2812TIP3   OH2 8441   6.322   0.537   4.534 -0.2245 -0.3208 -0.8911
 2812TIP3    H1 8442   6.390   0.479   4.501  0.7264 -0.5949  1.3485
 2812TIP3    H2 8443   6.272   0.483   4.595  0.1993  0.9540  0.6448
 2813TIP3   OH2 8444   2.415   5.668   3.120 -0.0363 -0.3077  0.0973
 2813TIP3    H1 8445   2.423   5.713   3.204 -1.6854  1.3468 -0.5627
 2813TIP3    H2 8446   2.493   5.613   3.115 -0.1299 -0.8429  2.9080
 2814TIP3   OH2 8447   2.501   0.728   1.234  0.2728  0.6819  0.1130
 2814TIP3    H1 8448   2.471   0.665   1.300  0.7069  1.5667  1.1991
 2814TIP3    H2 8449   2.555   0.677   1.174 -1.4694 -0.4726 -0.5478
 2815TIP3   OH2 8450   4.159   5.608   1.369  0.2072 -0.4145 -0.0289
 2815TIP3    H1 8451   4.197   5.651   1.446  0.8093 -0.0115 -0.5461
 2815TIP3    H2 8452   4.087   5.556   1.405  1.2191 -1.1983  0.9835
 2816TIP3   OH2 8453   4.271   3.232   3.653 -0.5273  0.7947 -0.2780
 2816TIP3    H1 8454   4.317   3.249   3.571 -0.6061  1.2750 -0.2253
 2816TIP3    H2 8455   4.340   3.230   3.719 -0.6486  2.3983 -0.0665
 2817TIP3   OH2 8456   0.413   5.015   2.076  0.1928 -0.1095 -0.7698
 2817TIP3    H1 8457   0.343   5.080   2.067 -0.2721 -0.2414  1.2450
 2817TIP3    H2 8458   0.493   5.067   2.087 -0.0704  0.1304  0.0955
 2818TIP3   OH2 8459   5.178   2.450   0.220 -0.2846 -0.2249 -0.1123
 2818TIP3    H1 8460   5.246   2.395   0.181 -1.2183 -1.0758 -0.5693
 2818TIP3    H2 8461   5.203   2.540   0.196  0.9948 -0.4616  0.2486
 2819TIP3   OH2 8462   3.423   3.275   3.261 -0.8311 -0.2198  0.3591
 2819TIP3    H1 8463   3.494   3.338   3.273 -1.6203  1.1275 -1.5279
 2819TIP3    H2 8464   3.451   3.221   3.187 -0.7382 -1.2788  1.1448
 2820TIP3   OH2 8465   2.470   5.791   3.372 -0.3573  0.1295 -0.6773
 2820TIP3    H1 8466   2.508   5.775   3.459  0.3230 -2.0435 -1.2863
 2820TIP3    H2 8467   2.523   5.861   3.336  0.8186 -0.4490 -0.1472
 2821TIP3   OH2 8468   5.662   5.156   1.429  0.5220 -0.7054 -0.2625
 2821TIP3    H1 8469   5.734   5.116   1.380  0.1445  0.1118 -1.5462
 2821TIP3    H2 8470   5.584   5.109   1.398  0.1984  0.2891 -1.0109
 2822TIP3   OH2 8471   2.550   0.927   2.610  0.2633 -0.5446  0.0601
 2822TIP3    H1 8472   2.480   0.988   2.587 -0.2654 -1.4066 -0.6903
 2822TIP3    H2 8473   2.506   0.856   2.658  0.1482 -2.3105 -2.4763
 2823TIP3   OH2 8474   2.388   5.403   2.168 -0.1519 -0.4318 -0.0097
 2823TIP3    H1 8475   2.317   5.349   2.135 -1.4620  0.4468  1.2562
 2823TIP3    H2 8476   2.378   5.401   2.263  1.7744 -0.5999  0.2395
 2824TIP3   OH2 8477   1.105   4.508   0.156 -0.4785 -0.0081 -0.5422
 2824TIP3    H1 8478   1.038   4.574   0.173 -0.5947  0.1895 -1.6881
 2824TIP3    H2 8479   1.144   4.534   0.072  0.9252 -0.2111  0.0304
 2825TIP3   OH2 8480   3.935   5.054   4.873  0.1193  0.0343 -0.0316
 2825TIP3    H1 8481   3.968   5.037   4.961 -1.5022 -0.9765  0.4231
 2825TIP3    H2 8482   3.845   5.084   4.887 -0.3023 -0.5450 -1.3564
 2826TIP3   OH2 8483   0.491   1.670   2.582  0.2475 -0.4582  0.4981
 2826TIP3    H1 8484   0.420   1.673   2.518 -0.1832  0.4128  0.9980
 2826TIP3    H2 8485   0.492   1.579   2.612 -0.3708 -0.5814  0.1700
 2827TIP3   OH2 8486   6.320   3.783   2.374  0.1301 -0.3744 -0.8229
 2827TIP3    H1 8487   6.399   3.831   2.401  0.4732 -1.2302 -0.2552
 2827TIP3    H2 8488   6.275   3.843   2.315  1.3541  0.0370 -1.3916
 2828TIP3   OH2 8489   0.737   4.181   4.508 -0.3413  0.3107  0.4453
 2828TIP3    H1 8490   0.722   4.106   4.565  0.6286 -0.9790 -0.9340
 2828TIP3    H2 8491   0.672   4.171   4.438 -0.2413  0.8020  0.2755
 2829TIP3   OH2 8492   2.279   4.503   4.302  0.7260 -0.2502  0.1995
 2829TIP3    H1 8493   2.187   4.474   4.301  0.4581  0.5750 -0.6737
 2829TIP3    H2 8494   2.277   4.592   4.266  1.7232  0.2797  1.3691
 2830TIP3   OH2 8495   5.485   3.842   2.099 -0.0603  0.2208 -0.0183
 2830TIP3    H1 8496   5.403   3.842   2.050  0.1355  0.2720 -0.3468
 2830TIP3    H2 8497   5.547   3.886   2.042  0.6483 -1.3805 -0.5464
 2831TIP3   OH2 8498   1.636   5.361   1.428  0.2785 -0.3887 -0.1815
 2831TIP3    H1 8499   1.591   5.334   1.508  0.1937  2.1180  0.6891
 2831TIP3    H2 8500   1.619   5.455   1.421 -0.5077 -0.6258 -3.6620
 2832TIP3   OH2 8501   5.623   5.871   0.552 -0.3335  0.4967 -0.7214
 2832TIP3    H1 8502   5.595   5.962   0.547  0.8893  0.8915 -0.7789
 2832TIP3    H2 8503   5.718   5.875   0.556 -0.2128 -0.8114 -1.4589
 2833TIP3   OH2 8504   4.198   5.186   3.574  0.1749  1.2125  0.0393
 2833TIP3    H1 8505   4.126   5.157   3.519  0.3775  0.6262  0.0735
 2833TIP3    H2 8506   4.179   5.278   3.593 -0.7247  0.9764  0.3088
 2834TIP3   OH2 8507   2.738   0.956   1.307 -0.0904  0.0395  0.0045
 2834TIP3    H1 8508   2.784   0.906   1.374 -0.6498 -0.2074  0.2089
 2834TIP3    H2 8509   2.668   0.898   1.277 -0.1932  0.3619 -0.3924
 2835TIP3   OH2 8510   1.238   1.209   2.551 -0.0197 -0.0800 -0.4030
 2835TIP3    H1 8511   1.255   1.116   2.569  0.0319 -0.2087 -1.0979
 2835TIP3    H2 8512   1.178   1.236   2.621  2.6437  0.2836  1.9051
 2836TIP3   OH2 8513   3.764   4.434   2.880  0.2221 -0.3847  0.5313
 2836TIP3    H1 8514   3.749   4.362   2.943 -0.1272 -0.9296 -0.1627
 2836TIP3    H2 8515   3.702   4.502   2.907 -2.2569 -1.8181 -1.0616
 2837TIP3   OH2 8516   2.262   0.707   4.838  0.1441 -0.2398 -0.1995
 2837TIP3    H1 8517   2.200   0.721   4.909 -0.7128  1.5205 -1.2352
 2837TIP3    H2 8518   2.303   0.623   4.859 -3.4370 -2.1874 -0.0617
 2838TIP3   OH2 8519   0.172   0.734   2.546 -0.0467  0.1692  0.2681
 2838TIP3    H1 8520   0.078   0.734   2.566 -0.2994 -0.7255 -0.8136
 2838TIP3    H2 8521   0.178   0.688   2.462  1.4123 -0.1953  0.5541
 2839TIP3   OH2 8522   3.493   4.055   0.506 -0.1799  0.8019 -0.4836
 2839TIP3    H1 8523   3.416   4.021   0.459 -0.2716  1.2680 -0.6694
 2839TIP3    H2 8524   3.466   4.141   0.537  0.4562  1.1962 -1.0128
 2840TIP3   OH2 8525   5.258   4.237   0.377  0.5059 -0.2839 -0.1974
 2840TIP3    H1 8526   5.194   4.198   0.318 -0.9261 -0.1022  1.1637
 2840TIP3    H2 8527   5.313   4.163   0.403  0.6507 -0.5132 -1.1139
 2841TIP3   OH2 8528   2.342   3.045   2.760 -0.0678  0.1732 -0.6948
 2841TIP3    H1 8529   2.404   3.099   2.808 -1.4815  3.0009 -1.8234
 2841TIP3    H2 8530   2.270   3.032   2.822 -0.3967  0.9197 -0.9125
 2842TIP3   OH2 8531   2.051   0.917   3.119 -0.3011  0.2951 -0.4338
 2842TIP3    H1 8532   2.017   0.974   3.189 -3.3057 -0.9246 -0.7623
 2842TIP3    H2 8533   2.016   0.831   3.139 -0.0074 -0.3933 -2.6467
 2843TIP3   OH2 8534   1.289   1.780   3.826 -0.2920  0.7572 -0.1554
 2843TIP3    H1 8535   1.195   1.800   3.831 -0.7847 -1.2315 -0.2704
 2843TIP3    H2 8536   1.312   1.794   3.735 -1.5729 -2.6031 -1.1742
 2844TIP3   OH2 8537   6.277   3.579   3.753  0.3986 -0.5545  0.2214
 2844TIP3    H1 8538   6.341   3.555   3.821  0.0217  1.5364  1.4051
 2844TIP3    H2 8539   6.326   3.572   3.671  1.3086 -1.7321  0.8383
 2845TIP3   OH2 8540   2.477   5.354   1.641 -0.1624 -0.1369  0.5333
 2845TIP3    H1 8541   2.441   5.265   1.630  1.5749 -0.9473  1.0422
 2845TIP3    H2 8542   2.491   5.363   1.735  1.7416 -0.2233  0.2995
 2846TIP3   OH2 8543   6.350   1.949   0.433 -0.3414 -0.0785  0.2635
 2846TIP3    H1 8544   6.321   1.864   0.399  0.2073 -0.0110 -0.3979
 2846TIP3    H2 8545   6.303   2.013   0.379 -0.5169  0.0436  0.5569
 2847TIP3   OH2 8546   0.042   1.780   1.049  0.7555  0.0382 -0.6987
 2847TIP3    H1 8547  -0.016   1.716   1.091 -0.1139  0.0852 -1.7895
 2847TIP3    H2 8548   0.098   1.727   0.992  0.1974  0.2078 -1.4185
 2848TIP3   OH2 8549   6.064   5.115   4.010 -0.0035 -0.0858 -0.3479
 2848TIP3    H1 8550   6.068   5.024   3.981  1.2033 -0.6945  1.5280
 2848TIP3    H2 8551   6.008   5.158   3.946 -0.8297 -2.1951 -1.1381
 2849TIP3   OH2 8552   4.474   3.557   0.749 -0.4329  0.2259 -0.2670
 2849TIP3    H1 8553   4.391   3.604   0.737 -0.3219  0.3290 -0.6458
 2849TIP3    H2 8554   4.540   3.625   0.750 -0.3281  0.1235 -0.2108
 2850TIP3   OH2 8555   0.606   4.991   1.685  0.0836  0.3657  0.9253
 2850TIP3    H1 8556   0.527   4.946   1.714  0.2196  0.5872  1.6483
 2850TIP3    H2 8557   0.643   4.933   1.618  0.1539 -0.5034  1.7025
 2851TIP3   OH2 8558   0.487   3.597   0.634 -0.0175  0.1263 -0.3503
 2851TIP3    H1 8559   0.440   3.632   0.709  1.8388  0.4983  0.7025
 2851TIP3    H2 8560   0.566   3.651   0.627 -0.4293  0.5196 -3.0013
 2852TIP3   OH2 8561   3.797   2.133   0.810 -0.3608 -0.2900 -0.2370
 2852TIP3    H1 8562   3.708   2.154   0.781  0.8490  1.2788 -3.3630
 2852TIP3    H2 8563   3.836   2.218   0.831  0.6267 -0.8570  0.2785
 2853TIP3   OH2 8564   5.777   4.121   3.701  0.8079 -0.8641  0.6887
 2853TIP3    H1 8565   5.723   4.142   3.777  0.7143  0.6095  0.2594
 2853TIP3    H2 8566   5.796   4.028   3.709 -3.0034 -1.8471  0.1000
 2854TIP3   OH2 8567   2.061   5.620   3.919 -0.7877  0.4033 -0.6792
 2854TIP3    H1 8568   2.045   5.526   3.910 -2.6974  0.5976  0.2116
 2854TIP3    H2 8569   2.065   5.653   3.829  0.8026 -0.6267 -1.0221
 2855TIP3   OH2 8570   1.479   2.091   0.582 -0.6572 -0.0602  0.7460
 2855TIP3    H1 8571   1.444   2.087   0.493 -1.2750 -0.0461  0.9831
 2855TIP3    H2 8572   1.428   2.160   0.624 -0.5097 -0.2147  1.1778
 2856TIP3   OH2 8573   1.725   5.916   2.231  0.1839 -0.1390  0.4068
 2856TIP3    H1 8574   1.664   5.982   2.200 -0.0389 -0.8359 -0.6739
 2856TIP3    H2 8575   1.672   5.858   2.286 -0.3881 -1.2567 -1.2326
 2857TIP3   OH2 8576   0.248   4.940   5.034 -0.3002 -0.1446 -0.7597
 2857TIP3    H1 8577   0.323   4.939   5.093 -0.8407  1.1340 -0.0339
 2857TIP3    H2 8578   0.277   4.994   4.960 -0.7130  0.8832 -0.1817
 2858TIP3   OH2 8579   0.352   1.948   3.020  0.9393 -0.2278 -0.0763
 2858TIP3    H1 8580   0.314   1.929   2.934  0.9540 -0.0775 -0.1156
 2858TIP3    H2 8581   0.360   2.043   3.023 -0.3723 -0.1086  0.6506
 2859TIP3   OH2 8582   0.835   1.121   2.636  0.2873  0.4659  0.2495
 2859TIP3    H1 8583   0.863   1.212   2.649 -0.8618  1.3249 -2.6202
 2859TIP3    H2 8584   0.886   1.090   2.561  0.7015 -1.3413  1.2116
 2860TIP3   OH2 8585   4.041   2.711   4.303  0.2100  0.3489  0.1853
 2860TIP3    H1 8586   4.006   2.791   4.341 -1.5489 -0.3683  0.1626
 2860TIP3    H2 8587   3.997   2.703   4.218 -0.0623 -0.9051  0.4252
 2861TIP3   OH2 8588   4.375   2.898   1.476 -0.0066  0.0594 -0.5377
 2861TIP3    H1 8589   4.422   2.975   1.508  0.7301 -0.4179 -0.4354
 2861TIP3    H2 8590   4.286   2.929   1.460 -0.6120  0.2283  2.5095
 2862TIP3   OH2 8591   1.203   0.785   0.063  0.0751 -0.0412 -0.1178
 2862TIP3    H1 8592   1.108   0.772   0.068  0.1511 -0.3903  0.4795
 2862TIP3    H2 8593   1.225   0.828   0.146  0.1966  1.6240 -0.9626
 2863TIP3   OH2 8594   4.423   1.907   0.700 -0.0101  0.5671  0.2819
 2863TIP3    H1 8595   4.388   1.874   0.617 -0.2463  0.5757  0.3755
 2863TIP3    H2 8596   4.515   1.925   0.683  0.2846 -0.7474  0.4121
 2864TIP3   OH2 8597   0.878   5.172   5.100  0.2373 -0.5843 -0.0664
 2864TIP3    H1 8598   0.970   5.192   5.117 -0.0746  1.0140 -0.1060
 2864TIP3    H2 8599   0.878   5.136   5.011  0.8607 -1.0717  0.1177
 2865TIP3   OH2 8600   0.817   5.923   0.301 -0.0194 -0.0475 -0.0433
 2865TIP3    H1 8601   0.786   5.996   0.248  0.0108 -0.2606 -0.3528
 2865TIP3    H2 8602   0.812   5.955   0.391 -1.1907 -0.0935 -0.0825
 2866TIP3   OH2 8603   3.114   5.378   2.400  0.4497 -0.0914 -0.4084
 2866TIP3    H1 8604   3.140   5.359   2.490 -0.2684  2.7237  0.4858
 2866TIP3    H2 8605   3.019   5.363   2.398 -0.3508  3.7984  0.6284
 2867TIP3   OH2 8606   3.023   3.584   5.085 -0.2914 -0.3121 -0.3936
 2867TIP3    H1 8607   3.065   3.511   5.040  1.7633  0.5190  0.0359
 2867TIP3    H2 8608   2.970   3.544   5.153 -0.1505 -1.4315 -0.9285
 2868TIP3   OH2 8609   2.027   5.528   0.799 -0.0636  0.7173  0.2298
 2868TIP3    H1 8610   1.955   5.531   0.735  1.1082  1.0405 -1.1149
 2868TIP3    H2 8611   2.006   5.452   0.854 -0.5593 -0.2501 -1.2234
 2869TIP3   OH2 8612   3.319   2.648   2.371 -0.1018  0.2432 -0.0423
 2869TIP3    H1 8613   3.260   2.597   2.427 -0.7782  0.4926 -0.5173
 2869TIP3    H2 8614   3.261   2.697   2.313  0.5718  0.6579 -0.3791
 2870TIP3   OH2 8615   3.137   0.398   0.041 -0.1435 -0.8676  0.0393
 2870TIP3    H1 8616   3.050   0.421   0.011 -0.3249  1.1046  1.8372
 2870TIP3    H2 8617   3.163   0.325  -0.014 -1.5657  0.6224 -2.8237
 2871TIP3   OH2 8618   6.014   3.658   1.526  0.1760  0.3391 -0.1458
 2871TIP3    H1 8619   6.053   3.716   1.461 -0.6723  0.2282 -0.7822
 2871TIP3    H2 8620   6.016   3.707   1.608 -0.4840  1.2600 -0.6678
 2872TIP3   OH2 8621   4.058   1.661   1.983  0.0067  0.1344 -0.0464
 2872TIP3    H1 8622   4.036   1.568   1.985  0.0737  0.1086 -0.4004
 2872TIP3    H2 8623   4.051   1.689   2.074 -0.7258 -0.0497 -0.0418
 2873TIP3   OH2 8624   5.972   2.594   0.914 -0.4792  0.1374  0.5257
 2873TIP3    H1 8625   5.975   2.627   1.004 -1.4824  1.0844  0.2309
 2873TIP3    H2 8626   6.057   2.552   0.902  0.0330  0.8087  1.6103
 2874TIP3   OH2 8627   0.638   5.430   2.340  0.4111 -0.2938  0.2652
 2874TIP3    H1 8628   0.669   5.350   2.382  0.5458  0.6841  2.1376
 2874TIP3    H2 8629   0.614   5.487   2.413  1.8188  1.9847 -0.9350
 2875TIP3   OH2 8630   1.632   2.650   4.931  0.2360 -0.1725 -0.1270
 2875TIP3    H1 8631   1.557   2.695   4.893  1.0281 -0.1325 -1.7488
 2875TIP3    H2 8632   1.600   2.561   4.947  0.0663 -0.4433 -1.7338
 2876TIP3   OH2 8633   0.630   3.487   2.007 -0.2463  0.2981  0.0364
 2876TIP3    H1 8634   0.574   3.552   1.965 -0.1344  1.1501  1.1714
 2876TIP3    H2 8635   0.597   3.403   1.975 -1.2472  0.8453 -0.4114
 2877TIP3   OH2 8636   5.229   1.923   1.981 -0.3404  0.2641  0.5646
 2877TIP3    H1 8637   5.313   1.928   2.026 -0.8601 -0.4747  1.6534
 2877TIP3    H2 8638   5.230   1.998   1.920  1.3286 -0.0661  0.1279
 2878TIP3   OH2 8639   3.073   1.049   4.985 -0.7758  0.2768 -0.4732
 2878TIP3    H1 8640   3.140   0.987   5.011 -0.6419  1.0084  1.0005
 2878TIP3    H2 8641   3.091   1.128   5.036 -2.5090  0.6339 -0.3435
 2879TIP3   OH2 8642   2.417   2.081   3.000  0.1630  0.6289  0.0650
 2879TIP3    H1 8643   2.363   2.045   2.930  1.7962 -0.7011 -0.5785
 2879TIP3    H2 8644   2.377   2.048   3.081  0.1434 -0.5495 -0.4051
 2880TIP3   OH2 8645   4.210   2.486   3.103  0.3342  1.0969  0.8573
 2880TIP3    H1 8646   4.223   2.414   3.041 -2.0189 -0.3352  1.9158
 2880TIP3    H2 8647   4.162   2.552   3.052  2.5287  2.0248 -0.1267
 2881TIP3   OH2 8648   1.907   2.633   4.347 -0.9092 -0.4688 -0.0296
 2881TIP3    H1 8649   1.859   2.715   4.335 -0.9718 -0.3720  0.8210
 2881TIP3    H2 8650   1.901   2.590   4.262 -0.9727  0.3513 -0.4564
 2882TIP3   OH2 8651   1.364   2.701   5.111  0.2985 -0.1845  0.2281
 2882TIP3    H1 8652   1.317   2.744   5.040  0.3241 -0.3947  0.0850
 2882TIP3    H2 8653   1.401   2.773   5.162 -1.0981  0.0422  0.9782
 2883TIP3   OH2 8654   1.305   3.807   0.853 -0.4268 -0.0723 -0.0144
 2883TIP3    H1 8655   1.379   3.831   0.797 -0.7404  0.9598 -0.0120
 2883TIP3    H2 8656   1.229   3.809   0.795 -0.4620 -1.1566 -0.0213
 2884TIP3   OH2 8657   6.307   5.156   2.343 -0.0352 -0.4388 -0.8367
 2884TIP3    H1 8658   6.273   5.246   2.335 -1.5753 -0.8621  0.4843
 2884TIP3    H2 8659   6.346   5.138   2.257 -1.1306  0.9268 -1.6775
 2885TIP3   OH2 8660   3.513   2.006   4.480 -0.1984  0.3759  0.2730
 2885TIP3    H1 8661   3.539   2.054   4.402  1.3915 -0.5702  0.1711
 2885TIP3    H2 8662   3.570   2.040   4.549 -1.4163  1.0238  0.9881
 2886TIP3   OH2 8663   6.004   0.222   2.631 -0.5068  0.2159  0.6810
 2886TIP3    H1 8664   5.989   0.132   2.661  1.7395 -0.2113  0.7375
 2886TIP3    H2 8665   6.004   0.273   2.712  1.8975 -0.3694  1.1279
 2887TIP3   OH2 8666   2.320   0.736   5.161  0.1557 -0.2461 -0.2376
 2887TIP3    H1 8667   2.297   0.794   5.235 -2.2493  0.4114 -1.3805
 2887TIP3    H2 8668   2.242   0.737   5.106  0.9641 -2.7080 -1.5548
 2888TIP3   OH2 8669   0.014   2.411   0.357  0.1634 -0.0432  0.1514
 2888TIP3    H1 8670   0.001   2.475   0.427  0.1200 -0.1366  0.2295
 2888TIP3    H2 8671   0.073   2.346   0.395 -0.6284 -0.6136  0.4440
 2889TIP3   OH2 8672   3.538   4.239   3.803  0.0704  0.0252 -0.2567
 2889TIP3    H1 8673   3.490   4.254   3.884  1.4328  0.4471  0.5107
 2889TIP3    H2 8674   3.596   4.165   3.822  0.3468  0.0760 -0.8591
 2890TIP3   OH2 8675   2.710   5.384   3.037  0.9876  0.0800  0.3952
 2890TIP3    H1 8676   2.629   5.407   2.991  0.8072  0.6995  1.0053
 2890TIP3    H2 8677   2.778   5.433   2.991  1.1425 -1.0047 -0.5805
 2891TIP3   OH2 8678   3.547   5.174   3.973 -0.1235 -0.0785 -0.2285
 2891TIP3    H1 8679   3.552   5.205   3.883 -3.0227  0.0088 -0.4278
 2891TIP3    H2 8680   3.524   5.252   4.024  0.4321 -0.3450  0.4460
 2892TIP3   OH2 8681   0.321   4.206   4.689  0.1637  0.1232  0.3888
 2892TIP3    H1 8682   0.375   4.141   4.734  0.0309 -0.9025 -0.8899
 2892TIP3    H2 8683   0.273   4.250   4.760  1.2732 -0.2213  1.3820
 2893TIP3   OH2 8684   2.106   1.597   2.003  0.4243  0.1153  0.0961
 2893TIP3    H1 8685   2.030   1.655   2.008  1.2505  1.1277  3.7591
 2893TIP3    H2 8686   2.090   1.530   2.070  1.8351 -0.8489 -0.4824
 2894TIP3   OH2 8687   1.249   4.668   1.384  0.1579  0.2171  0.0658
 2894TIP3    H1 8688   1.245   4.668   1.480  0.3612 -0.0469  0.0750
 2894TIP3    H2 8689   1.336   4.634   1.364  0.8826  2.0774 -0.1764
 2895TIP3   OH2 8690   3.920   1.981   3.333 -0.0915  0.5198 -0.3107
 2895TIP3    H1 8691   3.875   2.066   3.331 -2.1334 -0.5068 -1.1100
 2895TIP3    H2 8692   3.997   1.996   3.387 -0.8876  2.6504  0.3501
 2896TIP3   OH2 8693   3.336   0.987   4.499 -0.0380 -0.1442 -0.1611
 2896TIP3    H1 8694   3.312   1.040   4.575  0.4728  0.1561 -0.2065
 2896TIP3    H2 8695   3.359   1.051   4.432  2.1800 -0.3997  0.2831
 2897TIP3   OH2 8696   1.308   1.820   1.744 -0.0285  0.0747  0.2912
 2897TIP3    H1 8697   1.269   1.903   1.771 -1.5558  0.2357 -2.0985
 2897TIP3    H2 8698   1.233   1.762   1.729  0.9025 -1.0778 -0.0905
 2898TIP3   OH2 8699   2.283   2.071   3.249 -0.0412  0.6008 -0.3881
 2898TIP3    H1 8700   2.267   1.995   3.304 -2.0653  1.0237 -0.2888
 2898TIP3    H2 8701   2.209   2.130   3.267 -0.5470  0.9769 -3.1507
 2899TIP3   OH2 8702   2.311   3.397   4.640  0.0285 -0.2186 -0.0250
 2899TIP3    H1 8703   2.345   3.321   4.686 -1.3505 -0.2282  1.0342
 2899TIP3    H2 8704   2.238   3.363   4.587 -0.3510  0.2993  0.1587
 2900TIP3   OH2 8705   5.320   2.720   0.750 -0.2462  0.2373  0.2187
 2900TIP3    H1 8706   5.338   2.670   0.830 -0.4343  0.5061  0.4313
 2900TIP3    H2 8707   5.224   2.723   0.746 -0.4019 -2.9701 -1.9933
 2901TIP3   OH2 8708   5.366   2.011   3.553 -0.2427 -0.3614 -0.0451
 2901TIP3    H1 8709   5.289   2.029   3.608 -0.9016 -1.0465 -0.7155
 2901TIP3    H2 8710   5.342   1.932   3.504  0.2287  0.3442 -1.4730
 2902TIP3   OH2 8711   2.074   0.111   4.922  0.6085 -0.5341  0.6061
 2902TIP3    H1 8712   2.135   0.059   4.870  1.4716 -1.2843  2.2981
 2902TIP3    H2 8713   2.129   0.171   4.972 -0.3847  3.1858 -2.2726
 2903TIP3   OH2 8714   4.030   5.277   3.153 -0.3587  0.1794 -0.7874
 2903TIP3    H1 8715   4.015   5.270   3.059  1.3196 -0.1371 -1.0608
 2903TIP3    H2 8716   4.105   5.220   3.170  0.5359  1.6352  0.4184
 2904TIP3   OH2 8717   5.011   5.570   0.638  0.0744  0.5333 -0.1015
 2904TIP3    H1 8718   5.006   5.495   0.697  2.0642  0.3181 -0.1562
 2904TIP3    H2 8719   5.083   5.622   0.672  0.4600  1.0404 -1.6375
 2905TIP3   OH2 8720   0.973   1.656   3.957 -0.0935  0.2786  0.2663
 2905TIP3    H1 8721   0.978   1.727   4.022  0.0628  0.3453  0.1810
 2905TIP3    H2 8722   0.980   1.701   3.873 -0.2753  0.1887  0.2021
 2906TIP3   OH2 8723   3.865   0.311   4.927  0.5544 -0.0168 -0.4443
 2906TIP3    H1 8724   3.848   0.405   4.937 -0.2299 -0.1402 -0.5123
 2906TIP3    H2 8725   3.959   0.302   4.936  0.3695  0.3212  3.4847
 2907TIP3   OH2 8726   5.322   2.808   4.375  0.4979 -0.4072  0.2054
 2907TIP3    H1 8727   5.323   2.898   4.407 -0.4449 -0.0702 -0.6727
 2907TIP3    H2 8728   5.283   2.814   4.288 -0.3274 -1.7686  0.4609
 2908TIP3   OH2 8729   5.935   0.650   1.106 -0.3583 -0.6773  0.5182
 2908TIP3    H1 8730   5.924   0.562   1.142 -1.6921  0.5286  3.3920
 2908TIP3    H2 8731   5.991   0.695   1.169 -0.6425  0.8504 -0.2747
 2909TIP3   OH2 8732   0.030   4.813   4.725  0.0558 -0.1887  0.0061
 2909TIP3    H1 8733   0.006   4.739   4.670  1.4523 -0.9448  0.3818
 2909TIP3    H2 8734   0.083   4.869   4.668 -1.8231  1.1004 -0.5929
 2910TIP3   OH2 8735   1.512   5.431   2.558 -0.0042  0.0025  0.5523
 2910TIP3    H1 8736   1.542   5.489   2.628  0.1313 -3.0291  3.3060
 2910TIP3    H2 8737   1.592   5.402   2.515  0.2541 -0.6515  1.4314
 2911TIP3   OH2 8738   3.403   3.286   2.880  0.5908  0.1149  0.0102
 2911TIP3    H1 8739   3.407   3.269   2.786  0.1448  0.7787 -0.1305
 2911TIP3    H2 8740   3.310   3.298   2.899  0.6507 -0.2867  0.5884
 2912TIP3   OH2 8741   1.034   3.326   4.900 -0.2407 -0.6100 -0.5841
 2912TIP3    H1 8742   1.035   3.331   4.804 -3.7459 -2.1072 -0.8444
 2912TIP3    H2 8743   0.994   3.241   4.919  0.0606 -0.2097  2.2246
 2913TIP3   OH2 8744   5.992   0.912   2.727  0.0366  0.4292  0.1244
 2913TIP3    H1 8745   6.032   0.967   2.659  0.5650 -2.6654 -2.2955
 2913TIP3    H2 8746   5.913   0.877   2.685 -0.5073 -0.3368  1.7175
 2914TIP3   OH2 8747   2.611   1.722   4.367 -0.3782  0.5508 -0.5720
 2914TIP3    H1 8748   2.652   1.642   4.334  1.3506  1.3581 -0.4917
 2914TIP3    H2 8749   2.535   1.734   4.311 -0.6470 -1.1044 -0.6290
 2915TIP3   OH2 8750   0.582   2.291   0.672  0.2564 -0.1472  0.4214
 2915TIP3    H1 8751   0.499   2.283   0.625  0.8633  2.0400 -1.1681
 2915TIP3    H2 8752   0.584   2.215   0.730 -2.3925 -0.7870 -0.1881
 2916TIP3   OH2 8753   0.888   4.019   1.893  0.1496  0.3202  0.0852
 2916TIP3    H1 8754   0.827   4.081   1.933  0.8300  0.0048  1.6914
 2916TIP3    H2 8755   0.836   3.974   1.827 -0.8350  1.3593  0.1171
 2917TIP3   OH2 8756   5.548   1.381   4.043  0.0242  0.2855  0.3908
 2917TIP3    H1 8757   5.521   1.382   3.952  2.9418 -1.2163 -0.6090
 2917TIP3    H2 8758   5.474   1.341   4.090 -0.3213 -1.9068 -1.8324
 2918TIP3   OH2 8759   2.944   0.191   4.319  0.5971 -0.3644  0.1297
 2918TIP3    H1 8760   3.032   0.180   4.354  0.5235 -0.1881  0.3697
 2918TIP3    H2 8761   2.907   0.264   4.368  0.4677 -0.1570 -0.2699
 2919TIP3   OH2 8762   0.795   4.787   4.652  0.0981  0.2337 -0.2402
 2919TIP3    H1 8763   0.842   4.778   4.735  0.8464  0.1768 -0.6657
 2919TIP3    H2 8764   0.816   4.875   4.621 -0.4680  0.3888 -0.2060
 2920TIP3   OH2 8765   1.711   4.862   3.573 -0.2401 -0.5519  0.2942
 2920TIP3    H1 8766   1.802   4.883   3.593 -0.1849 -0.6578  0.1452
 2920TIP3    H2 8767   1.664   4.944   3.590  0.0075 -0.2364 -0.5022
 2921TIP3   OH2 8768   2.714   4.895   1.344 -0.2381 -0.5742 -0.0896
 2921TIP3    H1 8769   2.756   4.823   1.295 -3.0255 -1.8615 -0.8312
 2921TIP3    H2 8770   2.692   4.856   1.429  0.6187  0.2912  0.5496
 2922TIP3   OH2 8771   4.362   0.469   3.827  0.1840 -0.4322  0.0999
 2922TIP3    H1 8772   4.294   0.426   3.776 -0.5725  1.0260 -0.1888
 2922TIP3    H2 8773   4.331   0.560   3.836  2.0275  0.2344  0.0689
 2923TIP3   OH2 8774   3.964   2.936   4.445  0.4365  0.0583  0.3158
 2923TIP3    H1 8775   3.929   3.002   4.386 -1.9318  0.2406  1.7939
 2923TIP3    H2 8776   4.009   2.985   4.514  2.1037 -0.1006 -0.6142
 2924TIP3   OH2 8777   3.224   2.096   0.211 -0.2218 -0.1449 -0.3604
 2924TIP3    H1 8778   3.254   2.164   0.271  3.5448 -2.2967  0.5263
 2924TIP3    H2 8779   3.256   2.123   0.125 -0.8983  0.3187 -0.4794
 2925TIP3   OH2 8780   3.379   4.632   1.354  0.5471 -0.1751  0.5133
 2925TIP3    H1 8781   3.335   4.575   1.417  1.1000 -1.1971  0.0105
 2925TIP3    H2 8782   3.316   4.644   1.283  0.0666  0.6615  1.0754
 2926TIP3   OH2 8783   6.242   1.858   3.412 -0.5077  0.3323  0.3175
 2926TIP3    H1 8784   6.280   1.919   3.476  1.3609 -1.3630  0.9445
 2926TIP3    H2 8785   6.298   1.867   3.335 -1.7325  1.1473 -0.5050
 2927TIP3   OH2 8786   5.305   4.445   0.134 -0.0078  0.2950  0.3165
 2927TIP3    H1 8787   5.249   4.373   0.105  1.4069 -1.0515  0.8058
 2927TIP3    H2 8788   5.251   4.494   0.196 -0.7330 -0.8288  0.5956
 2928TIP3   OH2 8789   4.498   0.101   2.533 -0.0687 -0.2227 -0.4384
 2928TIP3    H1 8790   4.451   0.168   2.484  0.1534  1.6137  1.6981
 2928TIP3    H2 8791   4.428   0.046   2.570 -0.2814 -0.6686 -1.4530
 2929TIP3   OH2 8792   5.075   5.122   0.320 -0.4201  0.8549 -0.3318
 2929TIP3    H1 8793   5.048   5.052   0.380  0.0630 -0.0377 -1.1437
 2929TIP3    H2 8794   5.082   5.199   0.376 -1.8275  0.4721  0.4262
 2930TIP3   OH2 8795   0.835   4.200   3.724  0.1752  0.2980  0.2835
 2930TIP3    H1 8796   0.851   4.130   3.662 -1.2589  0.1839  0.0184
 2930TIP3    H2 8797   0.897   4.269   3.699  1.1897 -0.6319  0.1907
 2931TIP3   OH2 8798   1.917   4.439   0.458  0.6069 -0.6007  0.1934
 2931TIP3    H1 8799   1.869   4.518   0.433 -0.2623 -1.5023 -1.1199
 2931TIP3    H2 8800   1.864   4.366   0.426  1.0165 -1.7858  2.0205
 2932TIP3   OH2 8801   2.246   5.299   2.591  0.4093  0.3601 -0.2242
 2932TIP3    H1 8802   2.262   5.388   2.623 -0.4590  0.9525 -1.3623
 2932TIP3    H2 8803   2.267   5.303   2.498 -1.0012 -0.2442 -0.5935
 2933TIP3   OH2 8804   0.186   2.889   1.474 -0.0258 -0.5470  0.0997
 2933TIP3    H1 8805   0.261   2.926   1.520 -0.3882  1.8431 -1.0895
 2933TIP3    H2 8806   0.219   2.865   1.388 -0.4839  0.0310 -0.2472
 2934TIP3   OH2 8807   2.988   4.982   0.726 -0.9314 -0.2767 -0.2949
 2934TIP3    H1 8808   2.902   4.947   0.745 -0.7314 -1.2254 -1.0504
 2934TIP3    H2 8809   3.048   4.929   0.779 -0.6607 -0.8816 -1.1787
 2935TIP3   OH2 8810   5.611   3.550   3.596  0.5588  0.4300  0.0996
 2935TIP3    H1 8811   5.633   3.606   3.670  0.6017  1.3397 -0.5853
 2935TIP3    H2 8812   5.570   3.473   3.635  0.5177  0.9310  1.0609
 2936TIP3   OH2 8813   4.548   2.068   3.424 -1.0693  0.2110  0.0153
 2936TIP3    H1 8814   4.635   2.078   3.385 -0.5443 -1.2095  0.7686
 2936TIP3    H2 8815   4.507   1.998   3.374 -1.6880  0.6945 -0.1646
 2937TIP3   OH2 8816   5.080   5.705   0.908 -0.5419  0.0721  0.4931
 2937TIP3    H1 8817   5.011   5.756   0.950 -1.3416 -0.9985  0.5261
 2937TIP3    H2 8818   5.039   5.620   0.889  0.0620  0.1770 -1.5631
 2938TIP3   OH2 8819   2.831   2.115   3.078  0.3914 -0.0923  0.3881
 2938TIP3    H1 8820   2.781   2.103   2.997 -0.0491 -0.5036  0.7177
 2938TIP3    H2 8821   2.868   2.028   3.097 -0.4276 -0.2704  1.2263
 2939TIP3   OH2 8822   3.225   0.459   2.419 -0.5019  0.0564  0.1346
 2939TIP3    H1 8823   3.156   0.394   2.402 -1.0021  0.6524 -0.1490
 2939TIP3    H2 8824   3.269   0.468   2.335 -0.2649 -0.1013  0.2406
 2940TIP3   OH2 8825   1.618   2.950   4.442 -0.3053 -0.0227  0.4334
 2940TIP3    H1 8826   1.646   2.997   4.521 -0.5808  0.4567  0.2498
 2940TIP3    H2 8827   1.528   2.924   4.459 -0.8358  1.2754 -0.2441
 2941TIP3   OH2 8828   3.072   0.001   4.601 -0.2248 -0.1954  0.3638
 2941TIP3    H1 8829   3.165  -0.009   4.583 -0.2731 -1.9043  0.9110
 2941TIP3    H2 8830   3.068   0.069   4.669  0.7479 -1.0157  1.2813
 2942TIP3   OH2 8831   4.758   2.161   3.637 -0.4053  0.0837  0.5814
 2942TIP3    H1 8832   4.816   2.086   3.624  2.2760  2.2795 -1.1841
 2942TIP3    H2 8833   4.674   2.122   3.661  1.1823 -3.3777  1.1070
 2943TIP3   OH2 8834   1.250   3.482   4.151  0.0409 -0.5301  0.5491
 2943TIP3    H1 8835   1.331   3.441   4.122 -0.5719 -1.0345 -0.5029
 2943TIP3    H2 8836   1.207   3.417   4.206 -0.8553 -1.2973 -0.9904
 2944TIP3   OH2 8837   3.977   3.438   4.855 -0.0913 -0.4171 -0.1369
 2944TIP3    H1 8838   3.931   3.379   4.914  0.3750 -1.9598 -1.2738
 2944TIP3    H2 8839   4.027   3.496   4.913 -0.8754 -0.8548  1.0038
 2945TIP3   OH2 8840   5.774   5.211   0.836 -0.0824  0.2139 -0.1017
 2945TIP3    H1 8841   5.779   5.159   0.755  1.8937 -1.1296  0.7795
 2945TIP3    H2 8842   5.847   5.273   0.828 -0.0580  0.2638  0.5079
 2946TIP3   OH2 8843   1.209   2.788   4.710  0.0445 -0.6625 -0.5111
 2946TIP3    H1 8844   1.211   2.702   4.751 -1.0723 -0.8949 -0.9011
 2946TIP3    H2 8845   1.215   2.850   4.782  1.5657 -1.0588 -0.2802
 2947TIP3   OH2 8846   5.764   3.303   3.226 -0.5733  0.1254  0.8141
 2947TIP3    H1 8847   5.737   3.306   3.135 -2.8594 -1.4701  1.3452
 2947TIP3    H2 8848   5.828   3.232   3.230 -1.1574 -0.4263  0.5725
 2948TIP3   OH2 8849   2.597   4.474   1.434 -0.5972  1.0882 -0.5681
 2948TIP3    H1 8850   2.599   4.449   1.342 -1.3988  0.9376 -0.5591
 2948TIP3    H2 8851   2.631   4.563   1.436 -1.9985  1.6673 -1.2223
 2949TIP3   OH2 8852   3.902   4.325   1.366 -0.6630 -0.3605  0.7856
 2949TIP3    H1 8853   3.835   4.258   1.353 -0.7694 -0.3706  1.3702
 2949TIP3    H2 8854   3.879   4.367   1.449 -0.8165  0.6638  0.2417
 2950TIP3   OH2 8855   2.814   3.156   3.455  0.2056 -0.5665  0.4939
 2950TIP3    H1 8856   2.817   3.162   3.359  1.0235  1.9162  0.6047
 2950TIP3    H2 8857   2.840   3.066   3.474  2.2241 -0.5151 -1.5738
 2951TIP3   OH2 8858   2.991   0.527   4.320 -0.1048 -0.1587 -0.4460
 2951TIP3    H1 8859   2.973   0.468   4.393  1.4387 -0.6728 -0.4405
 2951TIP3    H2 8860   3.041   0.599   4.360 -0.4406  0.2458 -0.7557
 2952TIP3   OH2 8861   0.223   5.044   4.574 -0.0328 -0.2300  0.1644
 2952TIP3    H1 8862   0.284   5.048   4.500  0.1079 -1.1678  0.2192
 2952TIP3    H2 8863   0.139   5.023   4.534 -0.1451  0.2109  0.1730
 2953TIP3   OH2 8864   1.216   1.089   0.485 -0.0827  0.3030 -0.0805
 2953TIP3    H1 8865   1.206   1.032   0.409  0.9908  0.5841 -0.4434
 2953TIP3    H2 8866   1.191   1.034   0.560 -2.6013  0.4521 -0.7208
 2954TIP3   OH2 8867   0.654   3.672   4.133  0.0400  0.5943 -0.0198
 2954TIP3    H1 8868   0.586   3.693   4.070  0.5048 -0.6423 -0.9747
 2954TIP3    H2 8869   0.735   3.698   4.091  0.2592  0.9383  0.6065
 2955TIP3   OH2 8870   1.774   4.884   4.752  0.2724 -0.6618  0.4843
 2955TIP3    H1 8871   1.690   4.931   4.757  0.4634 -0.0754 -1.2197
 2955TIP3    H2 8872   1.839   4.949   4.778  0.4675 -0.1413 -1.1920
 2956TIP3   OH2 8873   4.188   5.447   2.630  0.3552 -0.0317  0.3043
 2956TIP3    H1 8874   4.225   5.534   2.614 -0.2301  0.0384 -0.7710
 2956TIP3    H2 8875   4.232   5.416   2.709 -0.1287  1.6297  1.2640
 2957TIP3   OH2 8876   3.068   1.819   0.805 -0.3749 -0.3081 -0.1778
 2957TIP3    H1 8877   3.143   1.802   0.749  0.3787  0.0727  0.6865
 2957TIP3    H2 8878   3.002   1.755   0.777  0.7373 -1.5402 -0.0790
 2958TIP3   OH2 8879   1.723   1.326   2.059 -0.1760 -0.1838  0.1851
 2958TIP3    H1 8880   1.700   1.277   2.138 -1.0939  2.1862  1.4842
 2958TIP3    H2 8881   1.771   1.403   2.091  1.8305 -0.4869 -1.8211
 2959TIP3   OH2 8882   2.186   1.565   4.080  0.0328  0.1723 -0.6013
 2959TIP3    H1 8883   2.203   1.572   4.174  0.7420  0.7535 -0.7647
 2959TIP3    H2 8884   2.133   1.486   4.071 -3.1388  1.9922  0.6726
 2960TIP3   OH2 8885   4.789   5.847   1.893 -0.1811  0.2150 -0.4306
 2960TIP3    H1 8886   4.814   5.816   1.981 -0.4839  0.5630 -0.2196
 2960TIP3    H2 8887   4.747   5.771   1.852  0.9249 -0.2823 -0.6777
 2961TIP3   OH2 8888   1.069   5.188   3.506  0.0724  0.4577 -0.0479
 2961TIP3    H1 8889   1.000   5.248   3.535  1.0748  1.0182  1.3285
 2961TIP3    H2 8890   1.136   5.195   3.574  1.2532 -0.4710 -1.0708
 2962TIP3   OH2 8891   0.538   4.691   0.279  0.3190 -0.5155  0.0928
 2962TIP3    H1 8892   0.560   4.762   0.340 -0.7213  0.2259 -0.3739
 2962TIP3    H2 8893   0.490   4.628   0.332 -1.1000  0.4026 -0.0600
 2963TIP3   OH2 8894   3.151   5.640   1.104 -0.3009 -0.0110 -0.4689
 2963TIP3    H1 8895   3.107   5.653   1.187 -1.6331  2.1283 -1.4502
 2963TIP3    H2 8896   3.084   5.655   1.037  1.2922  0.8499 -1.9747
 2964TIP3   OH2 8897   1.963   1.842   4.580  0.2910  0.3888  0.0952
 2964TIP3    H1 8898   1.974   1.896   4.501 -0.8920 -1.3710 -1.3463
 2964TIP3    H2 8899   1.932   1.904   4.647  0.3841  1.7505 -1.0645
 2965TIP3   OH2 8900   3.436   5.760   1.405  0.1741  0.2954  0.0645
 2965TIP3    H1 8901   3.368   5.696   1.427  0.5067 -0.2754 -0.5458
 2965TIP3    H2 8902   3.391   5.844   1.408 -0.4547 -0.0346  0.1033
 2966TIP3   OH2 8903   6.030   5.298   0.799  0.2792  0.0506  0.2163
 2966TIP3    H1 8904   6.053   5.238   0.728 -1.1289  0.5829 -0.7514
 2966TIP3    H2 8905   6.077   5.379   0.778 -0.8906  0.5324 -0.7210
 2967TIP3   OH2 8906   3.685   3.175   2.223  0.5572  0.0599  0.5422
 2967TIP3    H1 8907   3.627   3.142   2.155 -2.1606  1.4271  2.0402
 2967TIP3    H2 8908   3.742   3.101   2.244 -0.9022 -1.5112 -0.7223
 2968TIP3   OH2 8909   4.591   2.705   5.038  0.0592 -0.0441 -0.2397
 2968TIP3    H1 8910   4.627   2.783   4.995 -0.5158  0.0206 -0.6023
 2968TIP3    H2 8911   4.520   2.676   4.981 -0.1722 -0.4403  0.2428
 2969TIP3   OH2 8912   2.671   0.676   1.589 -0.4622  0.5372  0.3500
 2969TIP3    H1 8913   2.647   0.586   1.611 -0.7065  1.0043  2.1572
 2969TIP3    H2 8914   2.598   0.729   1.620 -0.2443  1.3900 -0.5403
 2970TIP3   OH2 8915   1.788   4.408   2.486 -0.3799 -0.0394  0.7487
 2970TIP3    H1 8916   1.862   4.357   2.453 -1.5605 -1.3556  0.0056
 2970TIP3    H2 8917   1.747   4.352   2.552 -0.5849  0.7589  1.3109
 2971TIP3   OH2 8918   4.446   3.600   3.280  0.5947  0.4731  0.3073
 2971TIP3    H1 8919   4.402   3.640   3.204  0.6810 -0.1964 -0.1009
 2971TIP3    H2 8920   4.380   3.603   3.350  0.0239 -0.1626 -0.1882
 2972TIP3   OH2 8921   0.488   1.251   1.039 -0.0593 -0.4901  0.1283
 2972TIP3    H1 8922   0.510   1.265   0.947 -1.2109  0.2749 -0.0504
 2972TIP3    H2 8923   0.395   1.225   1.038 -0.1940 -0.0866  1.1000
 2973TIP3   OH2 8924   5.976   2.257   2.950  0.1124  0.1384 -0.7913
 2973TIP3    H1 8925   5.911   2.228   2.886 -0.6954  0.8777 -0.3268
 2973TIP3    H2 8926   5.990   2.350   2.929  0.5518  0.1382 -0.4960
 2974TIP3   OH2 8927   4.554   3.345   2.782 -0.5449  0.3782 -0.0518
 2974TIP3    H1 8928   4.605   3.280   2.830 -0.7011 -0.4609 -0.9688
 2974TIP3    H2 8929   4.527   3.409   2.848  0.1397 -0.1563  0.7650
 2975TIP3   OH2 8930   3.409   0.800   1.174 -0.2047 -0.1076  0.1957
 2975TIP3    H1 8931   3.336   0.816   1.114  0.2800  1.4766 -0.0297
 2975TIP3    H2 8932   3.453   0.885   1.181  1.8518 -1.0920  0.0267
 2976TIP3   OH2 8933   4.182   5.026   0.519  0.2894 -0.5980  0.5352
 2976TIP3    H1 8934   4.144   5.098   0.570  0.0754 -0.9685  0.9089
 2976TIP3    H2 8935   4.254   5.067   0.470 -0.9739  0.2489 -0.6795
 2977TIP3   OH2 8936   4.136   1.786   4.649  0.6639 -0.5355  0.0822
 2977TIP3    H1 8937   4.178   1.799   4.564  0.2788 -0.0229 -0.0431
 2977TIP3    H2 8938   4.064   1.849   4.649 -0.5180 -1.8453  0.0167
 2978TIP3   OH2 8939  -0.018   1.476   0.271  0.9968  0.2754 -0.3733
 2978TIP3    H1 8940   0.054   1.531   0.300  1.3097 -0.4694  0.3123
 2978TIP3    H2 8941  -0.002   1.463   0.178  1.3828  0.6564 -0.3636
 2979TIP3   OH2 8942   1.460   2.295   4.408  0.7395 -0.2859 -0.0341
 2979TIP3    H1 8943   1.448   2.232   4.338  1.0455  0.4159 -0.7412
 2979TIP3    H2 8944   1.461   2.380   4.364 -1.9978  0.4377  1.1218
 2980TIP3   OH2 8945   0.293   5.215   0.148 -0.0020 -0.3382 -0.6594
 2980TIP3    H1 8946   0.372   5.212   0.203 -0.2186 -0.3648 -0.3479
 2980TIP3    H2 8947   0.326   5.235   0.061  0.5300 -1.8692 -0.8576
 2981TIP3   OH2 8948   4.613   4.277   0.779 -0.3952  0.0571 -0.3065
 2981TIP3    H1 8949   4.697   4.239   0.754  0.0273  1.0205 -0.4105
 2981TIP3    H2 8950   4.548   4.216   0.745  0.2477 -1.7672  1.5196
 2982TIP3   OH2 8951   4.800   4.843   0.243  0.2618  0.5460 -0.3026
 2982TIP3    H1 8952   4.867   4.776   0.232  0.1963  0.6956 -1.8300
 2982TIP3    H2 8953   4.769   4.832   0.333  2.0570  0.2398  0.3058
 2983TIP3   OH2 8954   2.064   0.662   3.481 -0.4590 -0.0836  0.0291
 2983TIP3    H1 8955   2.044   0.574   3.451 -1.8377 -1.0589  3.4194
 2983TIP3    H2 8956   2.133   0.651   3.547  0.2284  1.5556 -0.3417
 2984TIP3   OH2 8957   1.640   0.137   4.232 -0.2963  0.0082  0.4754
 2984TIP3    H1 8958   1.638   0.232   4.225 -1.0118 -0.0520 -0.2950
 2984TIP3    H2 8959   1.557   0.114   4.274 -0.9537 -0.3790 -0.9860
 2985TIP3   OH2 8960   1.183   1.492   0.243 -0.2944  0.9863  0.0442
 2985TIP3    H1 8961   1.148   1.561   0.186 -1.5969  1.0776  0.9106
 2985TIP3    H2 8962   1.184   1.414   0.188 -2.0028  0.9614 -0.0105
 2986TIP3   OH2 8963   1.389   5.795   3.422 -0.3359  0.3821 -0.9028
 2986TIP3    H1 8964   1.327   5.792   3.496  0.3333 -1.5803 -0.3739
 2986TIP3    H2 8965   1.393   5.888   3.399 -1.8046  0.8401  0.4663
 2987TIP3   OH2 8966   3.277   2.248   1.015  0.2274  0.2827  0.1002
 2987TIP3    H1 8967   3.216   2.187   0.973  0.9163 -0.1120 -0.3550
 2987TIP3    H2 8968   3.224   2.325   1.035 -0.0740  0.5993 -1.7462
 2988TIP3   OH2 8969   0.503   1.354   2.260  0.2635  0.0982  0.2042
 2988TIP3    H1 8970   0.475   1.364   2.169 -0.5711 -1.9803  0.1793
 2988TIP3    H2 8971   0.422   1.335   2.308  0.7251  0.9138  1.3483
 2989TIP3   OH2 8972   5.829   4.824   3.008 -0.1747 -0.0879  0.3864
 2989TIP3    H1 8973   5.765   4.752   3.012 -2.4919  1.8384 -0.0595
 2989TIP3    H2 8974   5.899   4.791   2.952 -1.8189 -1.5189 -0.9198
 2990TIP3   OH2 8975   0.324   1.897   0.157 -0.3682  0.3810  0.2190
 2990TIP3    H1 8976   0.418   1.881   0.171 -0.7080  0.0106  2.5454
 2990TIP3    H2 8977   0.320   1.948   0.076  1.6558 -1.3281 -1.0769
 2991TIP3   OH2 8978   4.312   4.256   0.504  0.0321 -0.0334 -0.7697
 2991TIP3    H1 8979   4.290   4.163   0.508  3.8132 -1.0599  0.2735
 2991TIP3    H2 8980   4.401   4.259   0.468  0.1984  3.1451 -0.4144
 2992TIP3   OH2 8981   4.476   1.617   4.467 -0.3555  0.6295 -0.0264
 2992TIP3    H1 8982   4.400   1.657   4.426 -0.9092 -1.1728 -0.8339
 2992TIP3    H2 8983   4.536   1.598   4.394 -0.0825  0.0559  0.3396
 2993TIP3   OH2 8984   4.222   0.870   1.868  0.3222  0.7500 -0.0220
 2993TIP3    H1 8985   4.314   0.892   1.881  0.9925 -2.0915  0.8523
 2993TIP3    H2 8986   4.223   0.803   1.800 -0.9497 -0.1515  0.8125
 2994TIP3   OH2 8987   3.572   1.596   3.035 -0.1005  0.2613 -0.3578
 2994TIP3    H1 8988   3.502   1.534   3.016 -0.3784  0.9288 -1.5787
 2994TIP3    H2 8989   3.643   1.542   3.069 -0.5356 -0.6577 -0.8713
 2995TIP3   OH2 8990   6.305   3.473   0.048  0.1311 -0.4139  0.2656
 2995TIP3    H1 8991   6.305   3.510  -0.040 -1.3980 -0.2810  0.3068
 2995TIP3    H2 8992   6.347   3.539   0.102  0.7516 -0.3408 -0.2831
 2996TIP3   OH2 8993   3.570   0.060   1.310 -0.1500 -0.3001 -0.0500
 2996TIP3    H1 8994   3.499   0.004   1.341 -1.6415  0.7936 -1.3167
 2996TIP3    H2 8995   3.618   0.005   1.248 -1.2837 -0.3982 -0.8872
 2997TIP3   OH2 8996   1.309   3.169   4.711 -0.0619 -0.2255  0.5115
 2997TIP3    H1 8997   1.350   3.155   4.626 -0.0289 -2.1057  0.7960
 2997TIP3    H2 8998   1.226   3.212   4.692 -0.1332 -0.7968 -0.4791
 2998TIP3   OH2 8999   0.837   3.011   3.589  0.0848  0.2615  0.1527
 2998TIP3    H1 9000   0.859   2.995   3.680  0.7709  1.6439  0.2538
 2998TIP3    H2 9001   0.898   2.957   3.539  1.5022  1.5163  0.4850
 2999TIP3   OH2 9002   0.738   1.385   0.001  0.0259  0.1497  0.5688
 2999TIP3    H1 9003   0.748   1.441   0.079 -0.5894  1.3805 -0.2049
 2999TIP3    H2 9004   0.650   1.348   0.010  0.0713  0.0515  0.6080
 3000TIP3   OH2 9005   1.013   4.382   3.667 -0.0439 -0.4759 -0.1546
 3000TIP3    H1 9006   1.083   4.435   3.704 -0.7405  0.3447  0.0342
 3000TIP3    H2 9007   1.045   4.358   3.580  0.8302 -0.8584  0.2670
 3001TIP3   OH2 9008   4.798   2.797   4.024 -0.2476  0.3391  0.0119
 3001TIP3    H1 9009   4.785   2.740   4.100  0.7844 -0.6394 -0.5040
 3001TIP3    H2 9010   4.836   2.739   3.958  2.4702  1.9512  0.0096
 3002TIP3   OH2 9011   1.846   4.283   2.983 -0.0886 -0.1332  0.0456
 3002TIP3    H1 9012   1.768   4.227   2.986 -1.4991  1.4249 -2.6904
 3002TIP3    H2 9013   1.835   4.343   3.056 -0.1335 -1.4647  1.1718
 3003TIP3   OH2 9014   0.953   5.584   3.381  0.5598  0.3952  0.6822
 3003TIP3    H1 9015   0.948   5.615   3.471  0.4359 -0.2805  0.9126
 3003TIP3    H2 9016   1.033   5.532   3.378  0.5880  0.4500  0.3832
 3004TIP3   OH2 9017   2.580   5.016   4.418 -0.1708 -0.4988  0.1678
 3004TIP3    H1 9018   2.624   4.993   4.500 -1.1098 -0.2139  0.7598
 3004TIP3    H2 9019   2.640   5.077   4.376 -0.0750  0.0625  1.0744
 3005TIP3   OH2 9020   3.460   3.688   3.951 -0.1364 -0.6494  0.7081
 3005TIP3    H1 9021   3.469   3.660   3.860  0.9075  2.3922 -0.2297
 3005TIP3    H2 9022   3.370   3.666   3.975 -0.6185 -0.9564 -1.2492
 3006TIP3   OH2 9023   4.927   5.947   3.506  0.1100  0.0113  0.4609
 3006TIP3    H1 9024   4.890   5.860   3.524 -0.7631  0.2887  0.0793
 3006TIP3    H2 9025   5.008   5.950   3.556  0.7017 -1.4314 -0.3470
 3007TIP3   OH2 9026   5.809   2.691   0.313  0.1918 -0.0216  0.1867
 3007TIP3    H1 9027   5.770   2.606   0.333 -0.3865  0.3289  0.5750
 3007TIP3    H2 9028   5.838   2.684   0.222 -1.1296 -0.1658 -0.2402
 3008TIP3   OH2 9029   4.288   2.664   1.822 -0.5718 -0.9352  0.4275
 3008TIP3    H1 9030   4.206   2.712   1.815  0.2014  0.2779 -0.7099
 3008TIP3    H2 9031   4.303   2.629   1.734  0.6743 -0.1898  0.3190
 3009TIP3   OH2 9032   0.144   1.710   3.508 -0.5253 -0.7259  0.9057
 3009TIP3    H1 9033   0.128   1.710   3.413  0.1232  1.1334  0.7514
 3009TIP3    H2 9034   0.219   1.768   3.519  1.0825 -2.9293  2.3441
 3010TIP3   OH2 9035   4.159   0.310   3.719 -0.5119 -0.1827  0.2097
 3010TIP3    H1 9036   4.144   0.247   3.789 -2.4648 -1.0053 -0.8618
 3010TIP3    H2 9037   4.233   0.275   3.669 -0.9125 -1.0988  0.2389
 3011TIP3   OH2 9038   1.457   4.968   2.850 -0.1156  0.0148  0.3897
 3011TIP3    H1 9039   1.381   4.990   2.903  0.6078 -0.2303  1.5648
 3011TIP3    H2 9040   1.529   4.959   2.913  0.4722 -1.7295 -0.4584
 3012TIP3   OH2 9041   0.722   4.631   3.145  0.8961 -0.5299 -0.2868
 3012TIP3    H1 9042   0.675   4.659   3.223  3.0948  1.5389  0.4223
 3012TIP3    H2 9043   0.667   4.658   3.071  0.4148  0.7615  0.5182
 3013TIP3   OH2 9044   0.061   5.033   2.102 -1.2268 -0.0015 -0.2082
 3013TIP3    H1 9045   0.033   5.083   2.025  2.3519  0.3699 -1.4352
 3013TIP3    H2 9046   0.081   4.946   2.068  4.1254  1.1471 -0.8286
 3014TIP3   OH2 9047   3.886   4.374   4.332 -0.3210  0.1940  0.3789
 3014TIP3    H1 9048   3.803   4.407   4.296 -0.7605 -0.6589  0.5917
 3014TIP3    H2 9049   3.873   4.376   4.427 -0.3304 -0.5326  0.3945
 3015TIP3   OH2 9050   5.075   2.429   1.362 -0.1305  0.4259  0.7020
 3015TIP3    H1 9051   5.058   2.517   1.396 -0.6836  0.4638  0.3434
 3015TIP3    H2 9052   5.105   2.379   1.438  2.0457  1.3948  0.5507
 3016TIP3   OH2 9053   5.745   3.964   0.441 -0.5968 -0.6047 -0.0317
 3016TIP3    H1 9054   5.758   3.948   0.535 -1.1113  3.0430  0.8065
 3016TIP3    H2 9055   5.663   3.918   0.420 -0.4905 -1.4528  1.2850
 3017TIP3   OH2 9056   1.905   5.275   2.639  0.1759  0.0532  0.5285
 3017TIP3    H1 9057   1.832   5.215   2.631 -0.1067  0.4199  0.3170
 3017TIP3    H2 9058   1.982   5.219   2.649 -0.1357 -0.3288  0.7769
 3018TIP3   OH2 9059   2.069   4.384   3.918 -0.3088  0.3741 -0.2108
 3018TIP3    H1 9060   1.995   4.325   3.936 -0.5340  0.8154  0.3668
 3018TIP3    H2 9061   2.132   4.365   3.987 -0.3009  0.6630 -0.1350
 3019TIP3   OH2 9062   1.048   3.761   4.418 -0.3527  0.0900  0.2551
 3019TIP3    H1 9063   1.106   3.794   4.350 -0.1137  0.4581  0.6316
 3019TIP3    H2 9064   0.997   3.838   4.445 -0.1538  0.0417  0.7781
 3020TIP3   OH2 9065   2.840   2.326   2.786 -0.3733  0.4408  0.3515
 3020TIP3    H1 9066   2.773   2.258   2.797  1.1442 -1.1618  0.0536
 3020TIP3    H2 9067   2.859   2.355   2.875 -1.2161  0.6828  0.4616
 3021TIP3   OH2 9068   3.019   2.906   3.722  0.6001  0.5886  0.8383
 3021TIP3    H1 9069   2.949   2.936   3.665 -0.3780 -0.8745  1.1924
 3021TIP3    H2 9070   3.093   2.963   3.703  0.6772 -0.4729 -2.6555
 3022TIP3   OH2 9071   1.057   5.404   2.351 -0.1483 -0.1291 -0.4575
 3022TIP3    H1 9072   1.043   5.336   2.416 -1.8663 -0.4311 -1.0889
 3022TIP3    H2 9073   1.144   5.439   2.371  0.1219 -1.4390  0.8366
 3023TIP3   OH2 9074   4.891   3.565   3.228  0.1353  0.5799 -0.4542
 3023TIP3    H1 9075   4.921   3.608   3.308 -0.8013  1.0393 -0.3260
 3023TIP3    H2 9076   4.887   3.635   3.163 -0.7722  0.5809 -0.4202
 3024TIP3   OH2 9077   2.615   1.041   1.589 -0.2762  0.0637 -0.3868
 3024TIP3    H1 9078   2.703   1.034   1.626 -0.0350  0.6292 -0.8316
 3024TIP3    H2 9079   2.627   1.091   1.508 -1.2773  1.8982  0.5322
 3025TIP3   OH2 9080   3.153   3.812   4.407  0.2253  0.2679  0.4198
 3025TIP3    H1 9081   3.066   3.853   4.404 -0.0260 -0.2308  0.6982
 3025TIP3    H2 9082   3.136   3.719   4.392  0.7415  0.2047  0.2225
 3026TIP3   OH2 9083   5.057   2.035   0.139 -0.7229  0.4775  0.1463
 3026TIP3    H1 9084   5.075   2.079   0.056  0.0064 -0.0403  0.0137
 3026TIP3    H2 9085   5.053   2.106   0.203  1.8838  0.6986  0.1826
 3027TIP3   OH2 9086   1.489   4.955   4.612  0.5509 -0.0655 -0.2597
 3027TIP3    H1 9087   1.479   4.874   4.562 -0.4781  0.9439 -1.7521
 3027TIP3    H2 9088   1.557   5.003   4.566  2.8756 -0.9902  1.9621
 3028TIP3   OH2 9089   0.316   3.415   1.697 -0.1662 -0.4012  0.0770
 3028TIP3    H1 9090   0.303   3.426   1.603 -0.6050  1.4054  0.3137
 3028TIP3    H2 9091   0.230   3.431   1.735  0.6297  2.2418  0.9876
 3029TIP3   OH2 9092   4.283   5.132   3.110 -0.0035  0.2875  0.2771
 3029TIP3    H1 9093   4.314   5.181   3.187  2.0565  1.2171 -1.0345
 3029TIP3    H2 9094   4.363   5.097   3.071 -1.1927 -1.8600 -0.3814
 3030TIP3   OH2 9095   5.976   5.248   2.007  0.6353  0.3824  0.0455
 3030TIP3    H1 9096   5.939   5.262   1.920  2.2474  0.9780 -0.5853
 3030TIP3    H2 9097   5.936   5.167   2.037 -1.1714  0.9971 -0.5558
 3031TIP3   OH2 9098   3.424   2.733   4.095 -0.3014 -0.2844 -0.1485
 3031TIP3    H1 9099   3.384   2.818   4.112 -1.5082 -0.9938  0.7207
 3031TIP3    H2 9100   3.356   2.669   4.120  0.7818 -1.5069 -0.2303
 3032TIP3   OH2 9101   4.302   5.237   1.871  0.2723 -0.4322  0.6056
 3032TIP3    H1 9102   4.283   5.261   1.962  1.1300  0.2273  0.6227
 3032TIP3    H2 9103   4.249   5.158   1.856 -0.5178 -0.0780  1.4068
 3033TIP3   OH2 9104   4.614   4.997   1.197 -0.4820  0.6737 -0.4351
 3033TIP3    H1 9105   4.688   4.960   1.245  0.3832 -0.1356 -2.2930
 3033TIP3    H2 9106   4.611   5.089   1.225  0.5877  0.4730  0.4123
 3034TIP3   OH2 9107   5.894   4.488   3.057  0.4985  0.8152 -0.4526
 3034TIP3    H1 9108   5.868   4.571   3.096 -0.2569 -0.0236  0.8914
 3034TIP3    H2 9109   5.870   4.497   2.964  0.3096  2.0286 -0.3066
 3035TIP3   OH2 9110   2.263   1.815   4.598 -0.2370  0.4990 -0.1319
 3035TIP3    H1 9111   2.298   1.904   4.602  1.1305 -0.0315  0.4941
 3035TIP3    H2 9112   2.169   1.825   4.613 -0.1227  1.8522 -0.2380
 3036TIP3   OH2 9113   0.494   2.366   3.519  0.4500 -0.1802  0.0570
 3036TIP3    H1 9114   0.401   2.345   3.510 -0.4453  2.4111  1.9400
 3036TIP3    H2 9115   0.515   2.415   3.439  0.0503 -0.2845 -0.1175
 3037TIP3   OH2 9116   0.657   3.206   3.131 -0.4895 -0.3159 -0.0442
 3037TIP3    H1 9117   0.563   3.186   3.133 -0.9425  1.6272  1.3348
 3037TIP3    H2 9118   0.665   3.277   3.068  0.0903 -0.6249 -0.3209
 3038TIP3   OH2 9119   5.353   1.828   4.334  0.4142  0.3656 -0.0592
 3038TIP3    H1 9120   5.355   1.857   4.243 -2.5757  2.2159  0.3207
 3038TIP3    H2 9121   5.352   1.909   4.385 -2.5102 -0.4147  1.3405
 3039TIP3   OH2 9122   4.084   5.716   2.235 -0.1476  0.5366  0.0374
 3039TIP3    H1 9123   4.078   5.784   2.168 -0.6993  1.1997  0.7472
 3039TIP3    H2 9124   4.029   5.645   2.202  0.7769  0.2376 -0.9126
 3040TIP3   OH2 9125   3.489   2.178   3.293 -0.0658 -0.2414  0.0456
 3040TIP3    H1 9126   3.540   2.189   3.213  0.3398 -1.3627  0.1289
 3040TIP3    H2 9127   3.419   2.243   3.286  1.4000  1.4216 -0.0225
 3041TIP3   OH2 9128   4.542   5.451   4.657  0.2765  0.1637 -0.3513
 3041TIP3    H1 9129   4.562   5.474   4.748  0.5881 -1.0397 -0.0849
 3041TIP3    H2 9130   4.626   5.457   4.612 -0.0578  1.7511 -0.8180
 3042TIP3   OH2 9131   3.441   0.938   1.446  0.1638 -0.1785  0.6473
 3042TIP3    H1 9132   3.431   1.009   1.382  1.6551  0.1516  0.7455
 3042TIP3    H2 9133   3.352   0.907   1.461 -0.4746  1.3637  0.2548
 3043TIP3   OH2 9134   1.103   2.259   1.552  0.4152 -0.4564 -0.0948
 3043TIP3    H1 9135   1.120   2.230   1.463  2.3517 -3.2589  1.0564
 3043TIP3    H2 9136   1.008   2.255   1.561  0.1657  0.1478 -2.0547
 3044TIP3   OH2 9137   0.534   1.665   4.271 -0.5543 -0.6397  0.7051
 3044TIP3    H1 9138   0.490   1.584   4.294  0.3677 -1.2217  0.4624
 3044TIP3    H2 9139   0.538   1.665   4.175  1.0305 -1.1880  0.7542
 3045TIP3   OH2 9140   3.943   1.881   3.037 -0.6326 -0.2963 -0.5500
 3045TIP3    H1 9141   3.917   1.889   3.129 -0.0609 -0.6274 -0.3566
 3045TIP3    H2 9142   3.948   1.786   3.022 -0.2628 -0.2379 -0.7936
 3046TIP3   OH2 9143   4.430   2.987   3.519  0.3001 -0.2697  1.1190
 3046TIP3    H1 9144   4.511   3.005   3.470  0.8959  2.4424  2.8439
 3046TIP3    H2 9145   4.395   3.074   3.539  0.3264 -1.0622  5.7404
 3047TIP3   OH2 9146   0.607   3.261   1.453  0.3610  0.0860  0.8765
 3047TIP3    H1 9147   0.532   3.313   1.424  1.3117 -0.0548 -2.1628
 3047TIP3    H2 9148   0.670   3.325   1.484  0.7715  0.6443 -1.0226
 3048TIP3   OH2 9149   4.521   4.118   3.411 -0.2229  0.0882  0.6630
 3048TIP3    H1 9150   4.443   4.070   3.440  1.4527 -4.5809 -1.6269
 3048TIP3    H2 9151   4.507   4.132   3.317  1.1285  0.4267  0.4999
 3049TIP3   OH2 9152   4.925   0.954   2.277  0.2065  0.2162  0.3664
 3049TIP3    H1 9153   5.008   0.997   2.294  1.2035 -1.4995  0.0729
 3049TIP3    H2 9154   4.942   0.861   2.292 -1.4321 -0.2678 -0.4702
 3050TIP3   OH2 9155   4.859   1.430   2.897 -0.0438  0.0315  0.1773
 3050TIP3    H1 9156   4.771   1.391   2.891  0.2288 -1.0040  2.1833
 3050TIP3    H2 9157   4.900   1.408   2.813 -1.9459  1.2894 -1.1743
 3051TIP3   OH2 9158   3.836   0.923   2.124  0.3351  0.7304 -0.7404
 3051TIP3    H1 9159   3.902   0.985   2.093 -0.2210  0.9321 -1.5869
 3051TIP3    H2 9160   3.872   0.837   2.104 -0.8016  0.8367 -3.9437
 3052TIP3   OH2 9161   2.844   1.273   0.066 -0.1824 -0.1547 -0.2093
 3052TIP3    H1 9162   2.799   1.335   0.123  0.1429  0.4746 -0.6255
 3052TIP3    H2 9163   2.937   1.291   0.080 -0.0989  0.0744 -0.9994
 3053TIP3   OH2 9164   3.119   4.732   0.832  0.4160 -0.4619  0.2596
 3053TIP3    H1 9165   3.067   4.653   0.818  1.1424 -0.6398 -1.6494
 3053TIP3    H2 9166   3.165   4.746   0.749 -0.3546  2.4489  0.2118
 3054TIP3   OH2 9167   3.439   2.687   2.949  0.4814  0.1970 -0.6925
 3054TIP3    H1 9168   3.372   2.708   2.884 -1.5946 -0.1178  1.2176
 3054TIP3    H2 9169   3.491   2.767   2.955  0.4278  0.4077 -2.3366
 3055TIP3   OH2 9170   6.159   4.579   0.285 -0.0215  0.0842 -0.5014
 3055TIP3    H1 9171   6.211   4.617   0.214  0.6248  0.0361 -0.0632
 3055TIP3    H2 9172   6.089   4.643   0.300  0.5006  0.6467 -0.4147
 3056TIP3   OH2 9173   0.897   0.335   3.611  0.4077  0.1733 -0.2146
 3056TIP3    H1 9174   0.960   0.392   3.566  0.3421  1.6615  1.4707
 3056TIP3    H2 9175   0.863   0.389   3.682 -3.1292 -0.4152 -1.2934
 3057TIP3   OH2 9176   0.956   5.258   1.202  0.3188 -0.1054  0.2313
 3057TIP3    H1 9177   0.930   5.331   1.258 -1.6510 -0.9639  0.4917
 3057TIP3    H2 9178   0.926   5.180   1.248 -1.1119 -0.8604 -1.8602
 3058TIP3   OH2 9179   6.268   5.621   3.865  0.2272 -0.0585  0.3509
 3058TIP3    H1 9180   6.211   5.604   3.940  1.4330 -1.2524  1.0303
 3058TIP3    H2 9181   6.321   5.542   3.857  0.3703  0.1833 -1.5572
 3059TIP3   OH2 9182   5.201   1.606   2.899  0.5413  0.2164  0.1371
 3059TIP3    H1 9183   5.221   1.521   2.937 -0.9283 -0.1039  0.2608
 3059TIP3    H2 9184   5.275   1.624   2.841  1.3057 -0.7200  0.7897
 3060TIP3   OH2 9185   4.543   5.517   3.482  0.4168 -0.3351  0.0883
 3060TIP3    H1 9186   4.593   5.473   3.551 -0.2367 -0.7223  0.3234
 3060TIP3    H2 9187   4.487   5.579   3.529  0.6318  0.0585 -0.1686
 3061TIP3   OH2 9188   0.208   2.214   0.348 -0.2870  0.0835 -0.3278
 3061TIP3    H1 9189   0.171   2.131   0.378  1.7988 -0.8671 -0.2570
 3061TIP3    H2 9190   0.211   2.206   0.253  0.6245 -0.2460 -0.2747
 3062TIP3   OH2 9191   3.960   4.869   1.173  0.3553 -0.1665  0.8298
 3062TIP3    H1 9192   3.916   4.892   1.256  0.2593 -0.7847  0.9522
 3062TIP3    H2 9193   4.050   4.898   1.185  0.8156 -1.9132  1.8726
 3063TIP3   OH2 9194   3.727   3.639   1.714  0.2570 -0.3168  0.2218
 3063TIP3    H1 9195   3.688   3.725   1.729  1.1178  0.6407 -2.4532
 3063TIP3    H2 9196   3.667   3.597   1.652 -0.2828 -1.7891  1.6881
 3064TIP3   OH2 9197   2.606   3.847   0.205  0.2657 -0.1604  0.1068
 3064TIP3    H1 9198   2.699   3.829   0.213  0.1457 -0.8248  0.1181
 3064TIP3    H2 9199   2.594   3.933   0.246  0.7468 -0.4343  0.8471
 3065TIP3   OH2 9200   4.997   3.547   2.066 -0.1155  0.5382  0.2108
 3065TIP3    H1 9201   4.980   3.525   1.975 -0.3682 -0.3894  0.4699
 3065TIP3    H2 9202   5.092   3.562   2.070  0.6935 -3.5261  0.5607
 3066TIP3   OH2 9203   5.476   1.882   4.074  0.2745 -0.0836  0.0933
 3066TIP3    H1 9204   5.426   1.915   3.999  0.7382  0.1650 -0.1089
 3066TIP3    H2 9205   5.511   1.798   4.045 -0.8216 -0.7315  0.5733
 3067TIP3   OH2 9206   4.956  -0.022   5.008 -0.0645  0.2302 -0.4727
 3067TIP3    H1 9207   5.011   0.005   4.934 -0.5793 -0.4668 -1.1245
 3067TIP3    H2 9208   4.997   0.019   5.084 -0.8117  2.8537 -1.3775
 3068TIP3   OH2 9209   4.730   3.944   1.656 -0.6921 -0.0708 -0.2347
 3068TIP3    H1 9210   4.788   4.016   1.680 -0.5200 -0.6692  1.2161
 3068TIP3    H2 9211   4.787   3.879   1.615 -0.3995 -0.4480  0.7480
 3069TIP3   OH2 9212   0.008   0.466   3.922 -0.4192  0.3754 -0.2241
 3069TIP3    H1 9213   0.047   0.425   3.844  1.0321 -0.4327  0.8890
 3069TIP3    H2 9214  -0.029   0.548   3.889 -0.3332 -0.1936 -1.8632
 3070TIP3   OH2 9215   4.799   2.663   1.529  0.1722 -0.0931  0.0268
 3070TIP3    H1 9216   4.804   2.601   1.456 -0.1516 -0.6800  0.4922
 3070TIP3    H2 9217   4.866   2.728   1.510  0.4830 -0.5614 -0.5004
 3071TIP3   OH2 9218   0.841   3.342   0.696 -0.0525 -0.4295  0.2560
 3071TIP3    H1 9219   0.798   3.394   0.765 -1.1092 -1.1316  0.1442
 3071TIP3    H2 9220   0.935   3.348   0.717 -0.3527 -0.6989  1.8168
 3072TIP3   OH2 9221   0.764   2.830   0.239 -0.8317  0.3912 -0.4277
 3072TIP3    H1 9222   0.706   2.845   0.313 -0.0530 -0.0378  0.2881
 3072TIP3    H2 9223   0.823   2.905   0.239  1.4823 -1.2497  1.6495
 3073TIP3   OH2 9224   4.436   4.811   2.571  0.1213  0.2414  0.1880
 3073TIP3    H1 9225   4.493   4.736   2.553  1.0271  1.3601 -2.0372
 3073TIP3    H2 9226   4.414   4.802   2.664  0.6299 -2.4394  0.1417
 3074TIP3   OH2 9227   0.520   5.853   2.070  0.4316  0.0238 -0.0601
 3074TIP3    H1 9228   0.577   5.927   2.047  1.3864 -0.8080 -0.4136
 3074TIP3    H2 9229   0.579   5.786   2.103 -0.2239 -1.2318 -1.3363
 3075TIP3   OH2 9230   3.178   2.441   0.220  1.0140  0.7777 -0.6719
 3075TIP3    H1 9231   3.238   2.369   0.200  1.5132  0.8281  0.5479
 3075TIP3    H2 9232   3.225   2.494   0.285 -0.1042  1.1630 -0.1503
 3076TIP3   OH2 9233   4.808   1.126   1.891 -0.4249 -0.1088 -0.0702
 3076TIP3    H1 9234   4.780   1.058   1.952 -1.2551 -0.2405 -0.5753
 3076TIP3    H2 9235   4.727   1.154   1.848 -0.2628  1.9378  0.8678
 3077TIP3   OH2 9236   2.314   2.811   2.432  1.0320 -0.3523 -0.6686
 3077TIP3    H1 9237   2.265   2.729   2.434  1.0905 -0.3835 -0.4418
 3077TIP3    H2 9238   2.310   2.840   2.341  0.4602 -0.2749 -0.6196
 3078TIP3   OH2 9239   5.967   2.359   0.249  0.1140 -0.0414  0.3493
 3078TIP3    H1 9240   5.950   2.339   0.341  0.9660 -1.9509  0.1419
 3078TIP3    H2 9241   6.057   2.330   0.234 -0.3982 -0.9134 -1.3717
 3079TIP3   OH2 9242   2.849   0.654   0.709  0.3186  0.0370  0.1468
 3079TIP3    H1 9243   2.912   0.586   0.731 -1.0380 -1.3974 -0.2166
 3079TIP3    H2 9244   2.810   0.626   0.626 -2.0768 -0.1429  1.2324
 3080TIP3   OH2 9245   3.532   3.621   1.533  0.0331  0.2581  0.1852
 3080TIP3    H1 9246   3.581   3.680   1.477 -0.3929  0.9903  0.5769
 3080TIP3    H2 9247   3.489   3.560   1.473  2.3676 -1.2138 -0.1530
 3081TIP3   OH2 9248   1.025   0.206   4.386 -0.3074  0.4081 -0.3469
 3081TIP3    H1 9249   1.103   0.261   4.372 -0.3514  0.0173 -2.5077
 3081TIP3    H2 9250   0.954   0.268   4.399  0.1631  0.7830  0.5498
 3082TIP3   OH2 9251   2.081   0.158   3.485  0.5428  0.4564 -0.1975
 3082TIP3    H1 9252   2.055   0.120   3.569  0.0103 -0.3889 -0.7390
 3082TIP3    H2 9253   2.116   0.085   3.435 -0.8397  0.5891 -1.3973
 3083TIP3   OH2 9254   0.074   4.992   2.871  0.7424 -0.0345 -0.5020
 3083TIP3    H1 9255   0.021   5.060   2.829 -0.0042  0.5861  1.3197
 3083TIP3    H2 9256   0.022   4.912   2.861  0.6295  0.0796 -0.8533
 3084TIP3   OH2 9257   0.673   3.232   2.494 -0.1164  0.1008 -0.0654
 3084TIP3    H1 9258   0.752   3.204   2.447  0.1609  0.1246  0.3745
 3084TIP3    H2 9259   0.605   3.170   2.467 -0.6828  1.6941 -2.5718
 3085TIP3   OH2 9260   2.780   5.180   4.313 -0.0737  0.4899 -0.4228
 3085TIP3    H1 9261   2.863   5.214   4.348 -0.6637  1.7064 -0.1213
 3085TIP3    H2 9262   2.741   5.255   4.268 -0.7142 -0.2464 -1.1156
 3086TIP3   OH2 9263   5.843   4.571   3.541  0.4228  0.0780 -0.8344
 3086TIP3    H1 9264   5.908   4.615   3.485  1.4991 -1.3657 -0.7699
 3086TIP3    H2 9265   5.775   4.638   3.555  1.0564  1.0938 -2.2835
 3087TIP3   OH2 9266   4.851   1.433   2.149 -0.6420 -0.1889  0.3885
 3087TIP3    H1 9267   4.764   1.471   2.162  0.4345  2.4707  0.4106
 3087TIP3    H2 9268   4.876   1.400   2.235 -1.3054 -0.2542  0.5593
 3088TIP3   OH2 9269   1.644   3.297   3.905 -0.2843 -0.3104 -0.1469
 3088TIP3    H1 9270   1.722   3.306   3.960 -0.7589 -2.6549  1.0346
 3088TIP3    H2 9271   1.630   3.203   3.897 -2.9536  0.0110 -0.3767
 3089TIP3   OH2 9272   3.240   2.796   2.145  0.2544  0.2787 -0.0450
 3089TIP3    H1 9273   3.210   2.874   2.097  1.2953 -0.3236 -1.7805
 3089TIP3    H2 9274   3.323   2.774   2.104  0.2020 -1.4799  0.7200
 3090TIP3   OH2 9275   6.299   5.545   4.284  0.0562 -0.0491 -0.0851
 3090TIP3    H1 9276   6.265   5.612   4.225  1.3069  0.7352  0.0591
 3090TIP3    H2 9277   6.330   5.475   4.227  0.4779  0.3331 -0.3320
 3091TIP3   OH2 9278   4.473   3.683   4.133  0.1962  0.1876 -0.1902
 3091TIP3    H1 9279   4.447   3.619   4.067 -2.2014  1.8591 -1.0203
 3091TIP3    H2 9280   4.461   3.638   4.216 -3.0581 -0.0710 -0.6610
 3092TIP3   OH2 9281   5.806   1.496   4.811 -0.4885 -0.3044  0.6430
 3092TIP3    H1 9282   5.896   1.530   4.803 -1.0634  1.1831  0.1126
 3092TIP3    H2 9283   5.817   1.402   4.821  1.1227 -0.2204  0.0292
 3093TIP3   OH2 9284   3.707   5.368   2.959 -0.7142  0.9958 -0.2145
 3093TIP3    H1 9285   3.650   5.292   2.972 -0.1097  0.1495 -2.1706
 3093TIP3    H2 9286   3.651   5.433   2.917 -0.6374  0.7204 -0.7532
 3094TIP3   OH2 9287   4.433   2.011   1.812 -0.7537  0.0860  0.1580
 3094TIP3    H1 9288   4.393   2.095   1.790 -0.6162  0.4308  1.1649
 3094TIP3    H2 9289   4.460   2.020   1.904  0.7617 -0.4688 -0.1961
 3095TIP3   OH2 9290   2.777   3.702   4.998  0.1818  0.3834  0.1436
 3095TIP3    H1 9291   2.851   3.662   5.044 -1.8900 -2.7232  1.1185
 3095TIP3    H2 9292   2.805   3.706   4.907  0.8532 -2.8927  0.0889
 3096TIP3   OH2 9293   4.621   5.168   0.032 -0.1826  0.2223  0.1740
 3096TIP3    H1 9294   4.538   5.158  -0.015  0.0007 -1.0510  0.1011
 3096TIP3    H2 9295   4.647   5.259   0.015 -0.9670  0.2853 -0.7816
 3097TIP3   OH2 9296   1.201   2.762   2.945  0.4281 -0.1805  0.1446
 3097TIP3    H1 9297   1.262   2.831   2.919 -0.6917  0.8538  0.1754
 3097TIP3    H2 9298   1.118   2.808   2.959  0.5412 -0.8366  4.0954
 3098TIP3   OH2 9299   3.387   5.688   2.477  0.4779  0.0179  0.4710
 3098TIP3    H1 9300   3.379   5.783   2.474  0.0385  0.0082  1.0265
 3098TIP3    H2 9301   3.297   5.656   2.471  0.6162 -0.3596  0.3473
 3099TIP3   OH2 9302   6.166   5.805   2.671  0.3003  0.3386  0.2900
 3099TIP3    H1 9303   6.157   5.736   2.605  2.0829  1.0107 -0.7122
 3099TIP3    H2 9304   6.257   5.801   2.698 -0.3552  0.1204  2.7523
 3100TIP3   OH2 9305   1.093   3.967   4.240  0.0265 -0.4625 -0.1816
 3100TIP3    H1 9306   1.129   3.988   4.154  3.1003  0.2523  1.1385
 3100TIP3    H2 9307   1.135   4.029   4.299 -0.8773 -1.8392  2.0431
 3101TIP3   OH2 9308   6.241   4.815   3.555  0.4973  0.5371  0.3664
 3101TIP3    H1 9309   6.295   4.881   3.599  1.2509  0.1815 -0.0034
 3101TIP3    H2 9310   6.272   4.732   3.589  2.0634  0.1423 -1.7571
 3102TIP3   OH2 9311   2.287   4.663   2.224  0.9982 -0.0291 -0.2565
 3102TIP3    H1 9312   2.247   4.748   2.205 -0.3728 -0.0335  2.1742
 3102TIP3    H2 9313   2.228   4.622   2.286  3.0436 -1.5704  0.8116
 3103TIP3   OH2 9314   6.273   3.800   4.910  0.0920 -0.3761 -0.2763
 3103TIP3    H1 9315   6.189   3.790   4.864 -1.1120 -0.5008  1.8230
 3103TIP3    H2 9316   6.338   3.770   4.847 -1.5009 -1.0833 -1.6848
 3104TIP3   OH2 9317   4.956   2.503   1.749 -0.0356  0.7466  0.2837
 3104TIP3    H1 9318   4.898   2.480   1.821  0.9625  3.5811  2.1797
 3104TIP3    H2 9319   4.897   2.528   1.678 -1.0402 -2.2517 -0.1022
 3105TIP3   OH2 9320   0.096   5.786   2.683 -0.1100 -0.6037 -0.4194
 3105TIP3    H1 9321   0.154   5.732   2.630  1.2739  1.0660 -0.6761
 3105TIP3    H2 9322   0.116   5.876   2.657 -1.6442  0.1039  0.6910
 3106TIP3   OH2 9323   0.445   5.741   4.414 -0.1727  0.2007 -0.3691
 3106TIP3    H1 9324   0.513   5.677   4.396  1.1228  1.8820 -1.7866
 3106TIP3    H2 9325   0.363   5.693   4.399  0.7217 -1.2655 -0.8229
 3107TIP3   OH2 9326   4.562   3.288   4.524 -0.0328 -0.1680  0.2546
 3107TIP3    H1 9327   4.560   3.248   4.437 -1.0914 -0.1542  0.2549
 3107TIP3    H2 9328   4.508   3.230   4.578 -0.2584  0.3929  0.6441
 3108TIP3   OH2 9329   6.051   2.282   1.415  0.0614  0.0936  0.3794
 3108TIP3    H1 9330   6.114   2.346   1.448 -0.3847  0.5472  0.3723
 3108TIP3    H2 9331   6.077   2.199   1.456  1.3498  0.0286 -0.5338
 3109TIP3   OH2 9332   2.641   5.861   1.915  0.2853 -0.3303 -0.1313
 3109TIP3    H1 9333   2.709   5.820   1.968  0.4513 -0.4299 -0.4149
 3109TIP3    H2 9334   2.575   5.890   1.977 -0.4354 -2.1278 -0.0016
 3110TIP3   OH2 9335   5.075   2.703   4.656 -0.2182  0.7215 -0.4462
 3110TIP3    H1 9336   5.166   2.686   4.681 -0.4448  0.8064  0.4624
 3110TIP3    H2 9337   5.037   2.746   4.732 -1.8148 -1.9329  0.3440
 3111TIP3   OH2 9338   3.092   0.197   2.509 -0.5056 -0.4462 -0.0088
 3111TIP3    H1 9339   3.147   0.234   2.578  0.5634 -1.1037 -0.4821
 3111TIP3    H2 9340   3.003   0.213   2.539 -0.1028 -1.6208  2.0422
 3112TIP3   OH2 9341   1.833   2.500   3.823 -0.6169 -0.3623 -0.1634
 3112TIP3    H1 9342   1.743   2.532   3.813 -0.9413 -0.3495  2.2330
 3112TIP3    H2 9343   1.833   2.415   3.780 -1.0893  0.6158 -2.2433
 3113TIP3   OH2 9344   1.695   5.930   0.602 -0.2387 -0.0516 -0.1398
 3113TIP3    H1 9345   1.642   5.979   0.539 -0.9064 -0.0572  0.3987
 3113TIP3    H2 9346   1.731   5.857   0.552 -0.6411  0.0268 -0.5478
 3114TIP3   OH2 9347   5.115   1.045   4.128 -0.2265  0.0412  0.0094
 3114TIP3    H1 9348   5.132   0.995   4.048 -0.1518 -1.4008  0.8780
 3114TIP3    H2 9349   5.200   1.049   4.172 -0.9215 -2.7623  1.9223
 3115TIP3   OH2 9350   1.097   5.310   1.499 -0.0338  0.1834  0.4042
 3115TIP3    H1 9351   1.077   5.354   1.581  1.3060  0.6887  0.4915
 3115TIP3    H2 9352   1.051   5.226   1.504 -0.8715  0.6777  1.1727
 3116TIP3   OH2 9353   0.238   1.667   1.383  1.2335  0.1113 -0.2295
 3116TIP3    H1 9354   0.333   1.672   1.381  1.2375 -0.0605 -1.3875
 3116TIP3    H2 9355   0.213   1.649   1.292  0.2550 -2.9647  0.5219
 3117TIP3   OH2 9356   5.532   4.493   4.810  0.0860 -0.1659 -0.3424
 3117TIP3    H1 9357   5.564   4.508   4.721  1.0719 -0.8704 -0.1259
 3117TIP3    H2 9358   5.496   4.578   4.838 -0.9693 -0.1481 -1.6861
 3118TIP3   OH2 9359   1.378   5.624   4.657 -0.4323 -0.0328 -0.3767
 3118TIP3    H1 9360   1.369   5.571   4.577  0.2047 -0.0902 -0.4089
 3118TIP3    H2 9361   1.452   5.681   4.640  0.1412 -0.5205  0.4416
 3119TIP3   OH2 9362   1.770   4.600   3.510 -0.1131  0.3705  0.2297
 3119TIP3    H1 9363   1.847   4.609   3.567  0.7665  1.1627 -1.0161
 3119TIP3    H2 9364   1.749   4.690   3.485  0.7832 -0.0155 -2.2336
 3120TIP3   OH2 9365   5.628   0.526   1.028  0.3697  0.3218  0.1589
 3120TIP3    H1 9366   5.624   0.484   1.114 -1.2578  0.4488  0.1825
 3120TIP3    H2 9367   5.712   0.573   1.028  0.7973 -0.4003  1.3176
 3121TIP3   OH2 9368   4.977   2.030   2.147 -0.0848  0.5609 -0.1396
 3121TIP3    H1 9369   4.999   1.958   2.087  0.0942  0.7576 -0.3111
 3121TIP3    H2 9370   4.942   1.986   2.225  2.2109  0.1129  0.7296
 3122TIP3   OH2 9371   5.525   3.365   2.322  0.2813 -0.4434  0.4490
 3122TIP3    H1 9372   5.505   3.287   2.373 -0.3092 -0.2395  0.5277
 3122TIP3    H2 9373   5.605   3.400   2.362 -0.2164 -0.2410  1.2899
 3123TIP3   OH2 9374   2.922   2.361   4.840  0.0469  0.2460  0.9784
 3123TIP3    H1 9375   2.829   2.382   4.846 -0.2128 -0.8154  0.8088
 3123TIP3    H2 9376   2.942   2.315   4.922  0.4161  0.4348  0.9976
 3124TIP3   OH2 9377   0.990   0.041   3.573 -0.1491 -0.3469 -0.2009
 3124TIP3    H1 9378   1.037   0.028   3.491  0.1077  0.5443 -0.1993
 3124TIP3    H2 9379   0.964   0.133   3.572  1.8285  0.3029  1.7401
 3125TIP3   OH2 9380   0.593   0.956   3.046  0.4187  0.1302  0.0234
 3125TIP3    H1 9381   0.629   0.994   3.126  0.1060  2.7846 -0.9805
 3125TIP3    H2 9382   0.662   0.965   2.981 -0.3903  0.9553 -0.7585
 3126TIP3   OH2 9383   1.087   1.268   1.805  0.6657 -0.9834  1.0351
 3126TIP3    H1 9384   1.046   1.331   1.746  0.6170 -1.1348  0.9052
 3126TIP3    H2 9385   1.017   1.206   1.826 -0.3678  1.0345  4.1210
 3127TIP3   OH2 9386   0.697   3.450   0.039 -0.6296  0.0470  0.1238
 3127TIP3    H1 9387   0.668   3.505  -0.034 -1.4038  0.6067  0.8271
 3127TIP3    H2 9388   0.721   3.367  -0.001  3.1018  1.5985 -1.3670
 3128TIP3   OH2 9389   4.691   2.126   4.701 -0.0698  0.2910 -0.1414
 3128TIP3    H1 9390   4.663   2.213   4.673 -0.9231  1.4351  3.6646
 3128TIP3    H2 9391   4.610   2.075   4.704  0.1549 -0.1007 -0.6272
 3129TIP3   OH2 9392   5.066   2.776   2.098  0.7087  0.1491  0.2003
 3129TIP3    H1 9393   4.973   2.756   2.083  0.9706 -2.1015  1.1731
 3129TIP3    H2 9394   5.107   2.764   2.012  0.0329  2.0458 -0.4535
 3130TIP3   OH2 9395   5.684   1.761   3.833  0.4851 -0.6194 -0.3753
 3130TIP3    H1 9396   5.621   1.713   3.888  0.0163  0.2247 -0.1537
 3130TIP3    H2 9397   5.766   1.757   3.882 -0.2409  1.3396  1.1771
 3131TIP3   OH2 9398   6.224   4.202   3.743 -0.1830 -0.7763  0.4432
 3131TIP3    H1 9399   6.149   4.261   3.731  1.2158  0.6016 -3.0482
 3131TIP3    H2 9400   6.268   4.235   3.821 -0.1969  2.0604 -0.6197
 3132TIP3   OH2 9401   0.629   3.872   2.172 -0.2705  0.3465 -0.2424
 3132TIP3    H1 9402   0.583   3.885   2.255  0.1897  1.9631 -0.2138
 3132TIP3    H2 9403   0.582   3.799   2.130 -0.2036 -0.8346  1.6266
 3133TIP3   OH2 9404   0.067   0.118   3.378  0.4489  0.3541 -0.3778
 3133TIP3    H1 9405  -0.018   0.091   3.412  0.7697  1.5172  1.5420
 3133TIP3    H2 9406   0.122   0.126   3.456  2.0494  0.5545 -1.4746
 3134TIP3   OH2 9407   2.330   2.288   2.525  0.1011  0.3527  0.3021
 3134TIP3    H1 9408   2.339   2.318   2.435  1.2178  2.1871  0.9623
 3134TIP3    H2 9409   2.308   2.195   2.518 -0.4417  0.6030 -1.8404
 3135TIP3   OH2 9410   3.686   2.471   0.988  0.7669 -0.0931 -0.0068
 3135TIP3    H1 9411   3.607   2.498   0.941  0.0659  1.3008  1.8078
 3135TIP3    H2 9412   3.737   2.420   0.925 -0.3637  1.1705 -2.0227
 3136TIP3   OH2 9413   3.064   5.684   2.980 -0.2648 -0.1632 -0.4923
 3136TIP3    H1 9414   3.101   5.752   3.035  0.5894 -0.9636 -0.0551
 3136TIP3    H2 9415   3.023   5.731   2.907 -1.1829  0.8960  0.6692
 3137TIP3   OH2 9416   3.143   4.379   3.123 -0.3108 -0.2403 -0.5937
 3137TIP3    H1 9417   3.175   4.464   3.093 -0.6681 -0.0459 -0.4265
 3137TIP3    H2 9418   3.164   4.318   3.052 -0.3567  0.0491 -0.8529
 3138TIP3   OH2 9419   2.639   1.551   4.137  0.2902  0.0759  0.6892
 3138TIP3    H1 9420   2.666   1.463   4.110 -0.4948  0.0036  0.1121
 3138TIP3    H2 9421   2.548   1.540   4.165  0.2125  0.6912  0.6809
 3139TIP3   OH2 9422   5.642   0.797   3.784  0.5460 -0.3263  0.3553
 3139TIP3    H1 9423   5.664   0.704   3.794  0.7585 -0.2324  0.8170
 3139TIP3    H2 9424   5.705   0.830   3.719  1.0794 -0.3027  0.8755
 3140TIP3   OH2 9425   6.038   2.605   2.321 -0.0133 -0.0763  0.0644
 3140TIP3    H1 9426   6.007   2.519   2.292 -0.0286  0.6176 -2.1996
 3140TIP3    H2 9427   6.127   2.589   2.352 -0.7388 -1.2234  1.6680
 3141TIP3   OH2 9428   6.157   5.029   0.829  0.2633 -0.0335  0.0851
 3141TIP3    H1 9429   6.142   5.054   0.738 -1.0074 -1.1325 -0.0489
 3141TIP3    H2 9430   6.079   4.979   0.853  0.4692  0.4424  1.8624
 3142TIP3   OH2 9431   3.186   0.833   1.480 -0.2932 -0.0318 -0.1241
 3142TIP3    H1 9432   3.092   0.832   1.496 -0.0125 -0.9834  1.6725
 3142TIP3    H2 9433   3.208   0.742   1.461  0.2119  0.2508 -0.9358
 3143TIP3   OH2 9434   1.492   0.761   0.752 -0.0049 -0.1667 -0.0468
 3143TIP3    H1 9435   1.486   0.777   0.846  0.1917 -0.6972  0.0619
 3143TIP3    H2 9436   1.574   0.713   0.742  1.3048  2.0597 -0.7922
 3144TIP3   OH2 9437   1.429   2.911   1.101  0.3361  1.5066 -0.1901
 3144TIP3    H1 9438   1.502   2.926   1.041  1.6833  0.3728  1.1028
 3144TIP3    H2 9439   1.422   2.993   1.150 -0.0026  2.0113 -1.0531
 3145TIP3   OH2 9440   3.363   1.391   0.987 -0.2740 -0.1032 -0.0473
 3145TIP3    H1 9441   3.286   1.425   0.942 -0.3192  0.1026  0.1833
 3145TIP3    H2 9442   3.424   1.465   0.990  0.2031 -0.4519 -0.8262
 3146TIP3   OH2 9443   4.998   4.785   1.146  0.7596 -0.2194 -0.4581
 3146TIP3    H1 9444   4.929   4.834   1.102  1.1319  0.9570  0.2210
 3146TIP3    H2 9445   5.074   4.844   1.144  1.3564 -0.9587 -0.0327
 3147TIP3   OH2 9446   3.044   4.257   3.861 -0.1302 -0.4444  0.9562
 3147TIP3    H1 9447   3.133   4.269   3.894  0.1836 -2.8921  1.2251
 3147TIP3    H2 9448   2.988   4.276   3.936  0.4386 -2.9025  2.1187
 3148TIP3   OH2 9449   2.723   4.135   0.488  0.0985 -0.2581  0.5309
 3148TIP3    H1 9450   2.661   4.129   0.415 -0.2997  2.0919  0.5911
 3148TIP3    H2 9451   2.702   4.060   0.543 -2.7239  0.4146  0.5436
 3149TIP3   OH2 9452   0.016   1.234   1.478  0.1812  0.7414 -0.0874
 3149TIP3    H1 9453   0.084   1.238   1.546  0.3274 -0.2441 -0.1577
 3149TIP3    H2 9454  -0.009   1.142   1.475 -3.4317  1.4461  2.1432
 3150TIP3   OH2 9455   1.040   4.319   1.066 -0.3884  0.0364  0.0312
 3150TIP3    H1 9456   1.069   4.335   0.976  0.3548 -0.3789  0.1876
 3150TIP3    H2 9457   1.021   4.226   1.070 -0.9676  0.1542  0.1583
 3151TIP3   OH2 9458   1.115   5.774   1.345  0.5570 -0.7279  0.2804
 3151TIP3    H1 9459   1.072   5.849   1.302 -0.1128 -1.4300 -0.3132
 3151TIP3    H2 9460   1.118   5.707   1.277  3.1110 -0.5448  0.1438
 3152TIP3   OH2 9461   0.928   1.728   0.905 -0.4059  0.1815 -0.2668
 3152TIP3    H1 9462   0.996   1.781   0.947 -1.5674  1.0922  0.5514
 3152TIP3    H2 9463   0.941   1.640   0.938  1.4858 -0.0640 -1.5379
 3153TIP3   OH2 9464   0.822   3.238   3.831  0.1752  0.2259  0.0857
 3153TIP3    H1 9465   0.838   3.151   3.867  0.0671 -0.8642 -2.2929
 3153TIP3    H2 9466   0.895   3.291   3.862  0.9284 -1.0502  0.5609
 3154TIP3   OH2 9467   4.819   1.830   4.209  0.2380 -0.2206 -0.6270
 3154TIP3    H1 9468   4.745   1.874   4.250  1.1268  0.9112 -0.1988
 3154TIP3    H2 9469   4.816   1.741   4.243 -1.0433 -0.2643 -0.7931
 3155TIP3   OH2 9470   0.879   0.942   0.089  0.4510  0.2427  0.7380
 3155TIP3    H1 9471   0.846   1.017   0.040  0.8056  1.4033  2.1945
 3155TIP3    H2 9472   0.805   0.882   0.095  0.3180  0.2007 -0.9070
 3156TIP3   OH2 9473   1.065   4.908   0.097 -0.1946  0.3893  0.0286
 3156TIP3    H1 9474   1.154   4.890   0.070 -0.3722 -0.6709  0.1272
 3156TIP3    H2 9475   1.067   4.903   0.193 -0.6682 -1.2695 -0.0118
 3157TIP3   OH2 9476   5.078   1.544   3.854 -0.6481  0.2803  0.3122
 3157TIP3    H1 9477   4.991   1.512   3.876 -0.6531 -0.8429 -1.2005
 3157TIP3    H2 9478   5.132   1.523   3.931 -1.2630 -0.9197  0.4403
 3158TIP3   OH2 9479   2.767   5.093   3.372  0.2086  0.1305  0.1278
 3158TIP3    H1 9480   2.839   5.134   3.324 -0.9174  2.8749  0.5965
 3158TIP3    H2 9481   2.714   5.051   3.305  1.2100 -0.2555 -0.4375
 3159TIP3   OH2 9482   2.431   4.624   0.685  0.3120  0.2818  0.0373
 3159TIP3    H1 9483   2.354   4.668   0.647 -1.0955 -0.1331  2.2370
 3159TIP3    H2 9484   2.498   4.692   0.688 -0.2684  0.9349 -0.9769
 3160TIP3   OH2 9485   5.868   2.027   3.638  0.1103 -0.3303 -0.2182
 3160TIP3    H1 9486   5.878   1.960   3.570 -4.3442 -0.4326 -1.0642
 3160TIP3    H2 9487   5.782   2.010   3.676  0.5330  2.5110  2.4094
 3161TIP3   OH2 9488   3.066   3.978   4.732 -0.0574 -0.2199 -0.0592
 3161TIP3    H1 9489   3.157   3.981   4.703 -0.0371  0.7843  0.0761
 3161TIP3    H2 9490   3.071   3.954   4.825 -0.0652 -2.2669 -0.5252
 3162TIP3   OH2 9491   4.381   2.138   1.432  0.4494 -0.6215 -0.3190
 3162TIP3    H1 9492   4.360   2.163   1.522  1.8129 -1.1000  0.1681
 3162TIP3    H2 9493   4.477   2.143   1.428  0.6618 -3.3716 -0.8606
 3163TIP3   OH2 9494   1.082   5.437   1.734 -0.6976  0.1059  0.0093
 3163TIP3    H1 9495   1.121   5.497   1.671 -0.5040 -1.1547 -1.1022
 3163TIP3    H2 9496   1.057   5.493   1.808  0.9751  1.2970 -0.2791
 3164TIP3   OH2 9497   1.917   1.862   3.524 -0.1533 -0.2737  0.0595
 3164TIP3    H1 9498   1.992   1.829   3.574 -0.3276  0.7149  1.0371
 3164TIP3    H2 9499   1.851   1.882   3.591 -0.3991  1.1025 -0.5525
 3165TIP3   OH2 9500   3.936   0.569   1.648 -0.2878  0.2106 -0.2933
 3165TIP3    H1 9501   3.969   0.636   1.589  0.1133  2.3909  2.1897
 3165TIP3    H2 9502   3.968   0.486   1.612  1.7005  1.6053 -1.9207
 3166TIP3   OH2 9503   1.804   4.474   0.971  0.1999 -0.7634  0.2845
 3166TIP3    H1 9504   1.820   4.410   0.902  1.6947 -0.6045  0.4433
 3166TIP3    H2 9505   1.873   4.458   1.035 -0.2191  0.1169  0.9786
 3167TIP3   OH2 9506   0.712   4.135   2.064  0.5140 -0.6675 -0.1658
 3167TIP3    H1 9507   0.677   4.191   2.133 -1.0062 -1.2983 -0.3947
 3167TIP3    H2 9508   0.703   4.046   2.098  0.4677 -0.9407 -0.8654
 3168TIP3   OH2 9509   4.438   1.366   4.614 -0.2532  0.1165 -0.2753
 3168TIP3    H1 9510   4.421   1.458   4.594  0.9233  0.3784 -0.1768
 3168TIP3    H2 9511   4.528   1.366   4.649 -0.1123 -1.1107 -0.6089
 3169TIP3   OH2 9512   0.173   5.648   4.786 -0.7429  0.0319 -0.0213
 3169TIP3    H1 9513   0.199   5.580   4.724  2.1582  2.1732 -1.3871
 3169TIP3    H2 9514   0.211   5.620   4.869  0.9972  0.2237 -0.7163
 3170TIP3   OH2 9515   4.999   3.639   5.084 -0.3086  0.2621 -0.4278
 3170TIP3    H1 9516   4.990   3.544   5.095  0.5786  0.2553  0.3091
 3170TIP3    H2 9517   5.083   3.650   5.039 -0.7449  0.6680 -1.1601
 3171TIP3   OH2 9518   5.125   0.939   2.558  0.5328 -1.0649  0.3124
 3171TIP3    H1 9519   5.171   0.896   2.630 -0.6097 -1.0125  1.1055
 3171TIP3    H2 9520   5.071   1.006   2.601  2.0637  1.0128 -0.8701
 3172TIP3   OH2 9521   2.594   0.420   1.597  0.4301 -0.0921 -0.1680
 3172TIP3    H1 9522   2.517   0.421   1.653  0.7458 -1.1815  0.3258
 3172TIP3    H2 9523   2.575   0.354   1.530  0.8753 -0.3001 -0.1003
 3173TIP3   OH2 9524   1.359   2.891   3.806  0.3449  0.0679  0.1796
 3173TIP3    H1 9525   1.365   2.821   3.871  0.8453  0.5707  0.6829
 3173TIP3    H2 9526   1.323   2.848   3.728 -0.0670 -0.5855  0.7166
 3174TIP3   OH2 9527   3.170   0.431   4.914  0.1379  0.0965  0.0666
 3174TIP3    H1 9528   3.200   0.522   4.907 -0.4887  0.2875 -0.1547
 3174TIP3    H2 9529   3.112   0.431   4.990  0.8346 -0.3181  0.6169
 3175TIP3   OH2 9530   6.024   5.211   3.537 -0.2950 -0.1521 -0.1706
 3175TIP3    H1 9531   5.968   5.277   3.579 -0.8590 -0.6257 -0.1668
 3175TIP3    H2 9532   6.112   5.228   3.572 -0.3172  0.9918 -0.6526
 3176TIP3   OH2 9533   3.428   3.269   4.818  0.1362  0.1707  1.2068
 3176TIP3    H1 9534   3.482   3.228   4.885 -1.3272  0.0741  2.3648
 3176TIP3    H2 9535   3.420   3.202   4.750  2.8109  0.7730  0.1861
 3177TIP3   OH2 9536   4.205   4.999   0.832  0.5544  0.2605  0.2326
 3177TIP3    H1 9537   4.205   4.903   0.837  1.1107  0.2881  0.9607
 3177TIP3    H2 9538   4.239   5.019   0.744 -1.7459 -0.2185 -0.8296
 3178TIP3   OH2 9539   4.970   0.265   3.808 -0.3289 -0.5131 -0.0444
 3178TIP3    H1 9540   5.038   0.333   3.804 -0.1820 -0.6332  0.3353
 3178TIP3    H2 9541   5.010   0.190   3.764  0.4929 -1.1679  1.7031
 3179TIP3   OH2 9542   3.358   4.014   3.270  0.2039 -0.0423 -0.2723
 3179TIP3    H1 9543   3.359   3.986   3.361  1.3949  0.3742 -0.1436
 3179TIP3    H2 9544   3.425   3.960   3.228  0.8601  0.9611 -0.5296
 3180TIP3   OH2 9545   3.205   5.205   3.951 -0.1846  0.7682 -0.5515
 3180TIP3    H1 9546   3.262   5.134   3.981 -0.1954  0.8207 -0.4037
 3180TIP3    H2 9547   3.121   5.162   3.935  0.0984  0.5456 -1.5227
 3181TIP3   OH2 9548   0.973   3.094   4.059  0.7877  0.1499  0.6494
 3181TIP3    H1 9549   1.056   3.051   4.083  0.9900 -0.0696 -0.4186
 3181TIP3    H2 9550   0.963   3.163   4.124  1.6477 -0.0241  0.9861
 3182TIP3   OH2 9551   1.372   4.834   3.958 -0.7665 -0.0312  0.2011
 3182TIP3    H1 9552   1.329   4.919   3.944  0.1612  0.4009 -0.1590
 3182TIP3    H2 9553   1.397   4.806   3.870 -1.0723 -0.6884  0.3228
 3183TIP3   OH2 9554   5.318   4.723   3.098  0.6045 -0.2925  0.0985
 3183TIP3    H1 9555   5.383   4.729   3.168  0.6062 -0.7955  0.1397
 3183TIP3    H2 9556   5.241   4.683   3.139  0.3270  0.1248  0.0033
 3184TIP3   OH2 9557   2.062   5.604   4.845 -0.2787  0.2085 -0.1261
 3184TIP3    H1 9558   2.043   5.618   4.938 -0.3298 -0.9173  0.0414
 3184TIP3    H2 9559   2.064   5.509   4.835  0.2910  0.3188 -1.1637
 3185TIP3   OH2 9560   2.922   1.735   3.614  0.2274  0.0159  0.0400
 3185TIP3    H1 9561   2.959   1.651   3.641  1.0996 -0.0614 -1.3189
 3185TIP3    H2 9562   2.859   1.712   3.546  0.0185  0.4214  0.0952
 3186TIP3   OH2 9563   4.695   2.429   0.451  0.1085  0.1045 -0.0343
 3186TIP3    H1 9564   4.690   2.334   0.440 -0.0072  0.0301  0.6223
 3186TIP3    H2 9565   4.769   2.442   0.510  0.4242  0.4583 -0.5000
 3187TIP3   OH2 9566   0.305   2.599   3.429 -0.2054 -0.6006 -0.3390
 3187TIP3    H1 9567   0.293   2.592   3.335 -0.8497 -1.6169 -0.2041
 3187TIP3    H2 9568   0.396   2.625   3.441 -0.6167  1.5434 -1.2831
 3188TIP3   OH2 9569   2.914   5.468   4.107  0.3480  0.4186 -0.2266
 3188TIP3    H1 9570   2.832   5.446   4.152  1.2651  1.0278  1.8843
 3188TIP3    H2 9571   2.888   5.481   4.016 -1.5244 -1.5095 -0.0559
 3189TIP3   OH2 9572   1.845   4.426   4.955  0.2342 -0.1244 -0.2577
 3189TIP3    H1 9573   1.899   4.430   4.876  1.5841  2.0126  0.6966
 3189TIP3    H2 9574   1.799   4.510   4.958 -0.9902 -0.7832  0.4454
 3190TIP3   OH2 9575   4.099   4.101   2.431 -0.4022 -0.0052  0.6567
 3190TIP3    H1 9576   4.041   4.093   2.356  2.4797  0.4684 -1.8341
 3190TIP3    H2 9577   4.118   4.011   2.458  0.7225 -0.3385 -1.1102
 3191TIP3   OH2 9578   1.946   5.826   2.100 -0.7095 -0.0937  0.2064
 3191TIP3    H1 9579   1.858   5.802   2.129 -0.8330 -0.1244 -0.1926
 3191TIP3    H2 9580   1.936   5.846   2.007  0.0982 -2.1511 -0.3590
 3192TIP3   OH2 9581   4.322   0.584   1.107 -0.1091  0.8435  0.5191
 3192TIP3    H1 9582   4.363   0.656   1.155 -0.6873  2.0471 -0.7458
 3192TIP3    H2 9583   4.250   0.555   1.164  1.6866 -0.5345  2.2355
 3193TIP3   OH2 9584   4.768   1.346   3.166 -0.2819 -0.0032  0.1579
 3193TIP3    H1 9585   4.769   1.313   3.076  0.1317 -1.2572  0.6082
 3193TIP3    H2 9586   4.843   1.405   3.170  0.0274 -0.3675 -0.1721
 3194TIP3   OH2 9587   1.482   1.344   0.271  0.3006 -0.4710 -0.2295
 3194TIP3    H1 9588   1.552   1.303   0.221  1.0473 -0.8127  1.0492
 3194TIP3    H2 9589   1.403   1.296   0.244  0.7804 -1.0829 -0.5918
 3195TIP3   OH2 9590   3.916   0.348   3.939 -0.9794  0.1050  0.0512
 3195TIP3    H1 9591   3.835   0.372   3.983 -0.5893  0.0677  0.8047
 3195TIP3    H2 9592   3.956   0.282   3.996  0.0318  0.7967  0.1612
 3196TIP3   OH2 9593   4.986   4.805   3.454  0.4064 -0.0839  0.3054
 3196TIP3    H1 9594   4.968   4.895   3.429 -0.7211 -0.8032 -1.7484
 3196TIP3    H2 9595   4.901   4.769   3.480  0.8768 -0.5183  1.3326
 3197TIP3   OH2 9596   5.245   3.990   2.738 -0.0877  0.0294 -0.4436
 3197TIP3    H1 9597   5.273   4.017   2.826 -1.1432 -0.4095  0.0605
 3197TIP3    H2 9598   5.174   4.050   2.716 -1.7319 -1.5450  0.2327
 3198TIP3   OH2 9599   4.550   3.973   4.308 -0.0967 -0.4272 -0.0887
 3198TIP3    H1 9600   4.508   3.966   4.222  1.7105  3.4397 -1.5156
 3198TIP3    H2 9601   4.493   4.032   4.358  1.0581  0.8422 -0.2459
 3199TIP3   OH2 9602   0.854   3.544   2.149 -0.6929  0.2428 -0.1398
 3199TIP3    H1 9603   0.787   3.528   2.082 -3.4073  2.0274  1.9017
 3199TIP3    H2 9604   0.881   3.635   2.134  0.1876  0.0072 -0.0241
 3200TIP3   OH2 9605   1.339   0.969   2.587 -0.1725  0.1445  0.2155
 3200TIP3    H1 9606   1.352   0.928   2.501 -0.5823  1.8588 -0.7041
 3200TIP3    H2 9607   1.426   1.000   2.612 -0.3750  1.3216 -0.4891
 3201TIP3   OH2 9608   4.254   5.859   4.947  0.4428  0.0348  0.6802
 3201TIP3    H1 9609   4.239   5.950   4.976 -1.4606 -0.3773  1.1071
 3201TIP3    H2 9610   4.220   5.806   5.018 -0.0774 -1.0186 -0.3338
 3202TIP3   OH2 9611   1.865   2.905   4.884 -0.4485 -0.9205  0.0350
 3202TIP3    H1 9612   1.875   2.973   4.818 -0.2886  0.7599  1.7069
 3202TIP3    H2 9613   1.937   2.844   4.866  0.9271  0.6461 -0.0588
 3203TIP3   OH2 9614   0.575   0.765   3.495 -0.0878 -0.1307 -0.8489
 3203TIP3    H1 9615   0.488   0.755   3.533 -0.0408  1.8722 -0.0963
 3203TIP3    H2 9616   0.563   0.748   3.402 -0.9573 -1.3425 -0.5461
 3204TIP3   OH2 9617   4.382   4.209   3.740  0.3780  0.0548  0.3480
 3204TIP3    H1 9618   4.309   4.230   3.682 -0.2578  0.1183  1.1431
 3204TIP3    H2 9619   4.344   4.211   3.828  0.7189 -2.4203  0.6314
 3205TIP3   OH2 9620   2.809   1.356   3.859 -0.2376  0.2635 -0.2526
 3205TIP3    H1 9621   2.740   1.411   3.821 -0.5906  0.1320  0.1908
 3205TIP3    H2 9622   2.827   1.395   3.944  0.0295  0.1237 -0.2444
 3206TIP3   OH2 9623   1.575   3.540   2.474 -0.1746  0.0304 -0.1635
 3206TIP3    H1 9624   1.515   3.470   2.450  1.0717 -0.5164 -1.8593
 3206TIP3    H2 9625   1.632   3.501   2.541 -0.5131 -0.0420  0.0849
 3207TIP3   OH2 9626   5.176   4.076   1.659  0.1594  0.1531  0.6210
 3207TIP3    H1 9627   5.119   3.999   1.666 -0.0547  0.0789 -1.3792
 3207TIP3    H2 9628   5.261   4.041   1.630 -0.1434  0.6769 -1.0410
 3208TIP3   OH2 9629   2.731   0.555   0.489  0.4324 -0.2908 -0.6056
 3208TIP3    H1 9630   2.748   0.504   0.410 -0.2170  1.7942 -2.1689
 3208TIP3    H2 9631   2.636   0.546   0.503  0.2311  0.7992 -1.1618
 3209TIP3   OH2 9632   1.170   0.714   4.854 -0.3052  0.2246  0.0618
 3209TIP3    H1 9633   1.204   0.791   4.809  0.1767  0.4339  0.7815
 3209TIP3    H2 9634   1.111   0.749   4.920 -0.8802 -0.0764 -0.2827
 3210TIP3   OH2 9635   0.496   5.394   1.313  0.1081  0.4866 -0.1843
 3210TIP3    H1 9636   0.448   5.396   1.397 -2.0450 -0.4874 -1.3195
 3210TIP3    H2 9637   0.519   5.302   1.300  0.1770  0.5877 -0.8053
 3211TIP3   OH2 9638   1.422   2.288   4.695  0.3712 -0.0750  0.2568
 3211TIP3    H1 9639   1.429   2.303   4.601  0.6980  0.3471  0.3447
 3211TIP3    H2 9640   1.478   2.212   4.712  1.8074  0.9718  0.3783
 3212TIP3   OH2 9641   4.503   1.045   4.567 -0.6168  0.2602 -0.4469
 3212TIP3    H1 9642   4.495   1.015   4.658 -1.4172  2.2265  0.1855
 3212TIP3    H2 9643   4.573   1.109   4.569  0.9633 -1.3327 -1.7395
 3213TIP3   OH2 9644   1.211   2.787   1.004 -0.3912  0.5489  0.3476
 3213TIP3    H1 9645   1.187   2.739   1.083  1.2761  0.4798  0.8450
 3213TIP3    H2 9646   1.301   2.817   1.020  0.5563 -0.7116 -2.0699
 3214TIP3   OH2 9647   2.174   5.681   3.646  0.1288  0.7656 -0.1672
 3214TIP3    H1 9648   2.220   5.598   3.648 -1.6213 -0.2549  0.8344
 3214TIP3    H2 9649   2.139   5.687   3.557  0.5149  0.5932 -0.3333
 3215TIP3   OH2 9650   5.835   5.685   4.154  0.1805  0.1400 -1.0388
 3215TIP3    H1 9651   5.857   5.742   4.080  0.8926  0.4255 -0.6122
 3215TIP3    H2 9652   5.866   5.732   4.231  1.1815 -1.0135 -0.7121
 3216TIP3   OH2 9653   4.781   2.159   3.282  0.0477  0.5972  0.6222
 3216TIP3    H1 9654   4.864   2.206   3.294  0.3373  0.2098  0.1788
 3216TIP3    H2 9655   4.739   2.204   3.209  0.1360  0.4180  0.4633
 3217TIP3   OH2 9656   1.642   4.181   2.729  0.0246 -0.4356  0.8253
 3217TIP3    H1 9657   1.549   4.194   2.710  0.1502 -0.9157 -0.2328
 3217TIP3    H2 9658   1.651   4.197   2.823 -0.7797  1.5340  0.6165
 3218TIP3   OH2 9659   5.811   4.955   4.067  0.1169 -0.7065  0.0491
 3218TIP3    H1 9660   5.800   4.908   4.149  1.4250 -2.1005 -0.5184
 3218TIP3    H2 9661   5.848   5.039   4.092  1.4773 -1.5100  0.8340
 3219TIP3   OH2 9662   4.930   1.499   0.061  0.0128 -0.2344 -0.4812
 3219TIP3    H1 9663   4.993   1.550   0.111 -0.7325 -0.2433  0.5041
 3219TIP3    H2 9664   4.984   1.441   0.006  0.8875 -1.0917  1.1996
 3220TIP3   OH2 9665   3.549   2.279   3.024 -0.1908 -0.2089  0.2628
 3220TIP3    H1 9666   3.641   2.254   3.036 -0.1580 -0.1752  0.0891
 3220TIP3    H2 9667   3.548   2.375   3.034  0.0203 -0.0411 -1.0384
 3221TIP3   OH2 9668   2.942   1.713   1.411 -0.5482  0.2131 -0.0900
 3221TIP3    H1 9669   2.848   1.723   1.400 -0.7019 -1.3817 -0.4601
 3221TIP3    H2 9670   2.957   1.618   1.404  0.8931  0.2845  1.3966
 3222TIP3   OH2 9671   0.076   1.956   0.844 -1.0060  0.8577 -0.0537
 3222TIP3    H1 9672   0.057   1.923   0.932  2.1939  0.2021  0.5308
 3222TIP3    H2 9673   0.034   1.894   0.785 -1.8628  0.3988  1.0072
 3223TIP3   OH2 9674   6.121   0.181   0.668 -0.1971 -0.4292 -0.2547
 3223TIP3    H1 9675   6.116   0.265   0.714  0.1052  0.4542 -1.7640
 3223TIP3    H2 9676   6.033   0.167   0.634 -0.4142 -1.0693  0.5439
 3224TIP3   OH2 9677   6.256   3.162   4.151  0.4171 -0.2249  0.3263
 3224TIP3    H1 9678   6.195   3.234   4.130  1.8899  1.5027  1.6559
 3224TIP3    H2 9679   6.330   3.205   4.193  1.3216 -2.5846  1.3103
 3225TIP3   OH2 9680   4.290   4.933   4.118 -0.1363 -0.2207  0.5220
 3225TIP3    H1 9681   4.251   4.917   4.204  0.3044 -0.8488  0.6065
 3225TIP3    H2 9682   4.347   4.858   4.102 -0.0746 -0.0234 -0.2423
 3226TIP3   OH2 9683   4.353   2.960   4.583 -0.4134 -0.7372  0.0843
 3226TIP3    H1 9684   4.292   2.887   4.596  1.5276 -2.4116  0.4917
 3226TIP3    H2 9685   4.433   2.918   4.549 -0.4691  1.7198 -3.6859
 3227TIP3   OH2 9686   3.757   4.736   1.053 -0.6961 -0.3011  0.1192
 3227TIP3    H1 9687   3.827   4.792   1.087 -0.7921 -0.2601  0.2517
 3227TIP3    H2 9688   3.703   4.718   1.129 -1.8253  1.1152 -0.3108
 3228TIP3   OH2 9689   1.006   1.553   3.622 -0.6122 -0.2282  0.0976
 3228TIP3    H1 9690   1.003   1.463   3.655  0.7974  0.6764  3.0168
 3228TIP3    H2 9691   1.099   1.570   3.609 -0.8899  0.7556 -0.7250
 3229TIP3   OH2 9692   4.630   2.037   4.042  0.0196  0.1014  0.5678
 3229TIP3    H1 9693   4.626   1.944   4.063 -0.8934  0.5470  2.5465
 3229TIP3    H2 9694   4.579   2.045   3.961  1.0432 -1.2465 -0.2462
 3230TIP3   OH2 9695   1.812   0.200   2.735  0.3946  0.0334  0.6240
 3230TIP3    H1 9696   1.846   0.133   2.793  1.5548  0.7475  0.8002
 3230TIP3    H2 9697   1.881   0.267   2.732 -0.4751  0.9369 -0.0049
 3231TIP3   OH2 9698   4.690   3.763   3.371  0.1875 -0.4162 -0.4252
 3231TIP3    H1 9699   4.648   3.709   3.439 -0.2691  0.3701 -0.0701
 3231TIP3    H2 9700   4.633   3.754   3.295  0.1335 -0.4692 -0.3788
 3232TIP3   OH2 9701   3.955   3.896   4.301 -0.5245 -0.0080 -0.2179
 3232TIP3    H1 9702   3.904   3.970   4.271 -0.0902 -0.3541 -1.9235
 3232TIP3    H2 9703   4.041   3.932   4.320 -1.3054  0.5780  2.6692
 3233TIP3   OH2 9704   1.788   3.494   3.362 -0.6382 -0.1446 -0.0410
 3233TIP3    H1 9705   1.724   3.548   3.408  0.0028 -1.1047  2.0916
 3233TIP3    H2 9706   1.750   3.406   3.364  1.0629 -0.9130  2.0531
 3234TIP3   OH2 9707   1.651   2.438   4.192  0.1684 -0.3106 -0.3588
 3234TIP3    H1 9708   1.743   2.415   4.180  0.0966 -1.3326  0.9045
 3234TIP3    H2 9709   1.611   2.423   4.106  0.9826 -0.7950 -0.6646
 3235TIP3   OH2 9710   0.648   2.225   2.526 -0.3551 -0.2569  1.0766
 3235TIP3    H1 9711   0.616   2.282   2.596 -2.8019  0.3016 -0.3938
 3235TIP3    H2 9712   0.601   2.142   2.539 -0.3875 -0.3422  0.4331
 3236TIP3   OH2 9713   0.627   0.429   3.154 -0.1209  0.2283 -0.9746
 3236TIP3    H1 9714   0.634   0.352   3.098  1.1640  1.0558 -2.0237
 3236TIP3    H2 9715   0.696   0.416   3.220  0.5565  0.7618 -1.5556
 3237TIP3   OH2 9716   4.582   3.495   1.686  0.0179 -0.3517 -0.1016
 3237TIP3    H1 9717   4.611   3.405   1.672  0.2282 -0.2070 -0.6029
 3237TIP3    H2 9718   4.535   3.492   1.769  1.1211 -0.6722  0.5311
 3238TIP3   OH2 9719   3.863   2.227   3.915  0.4487 -0.5449  0.1061
 3238TIP3    H1 9720   3.792   2.278   3.877  0.6826  0.3537  0.8611
 3238TIP3    H2 9721   3.937   2.239   3.855  0.3149 -0.5310 -0.0548
 3239TIP3   OH2 9722   3.015   3.436   3.297 -0.4358  0.2602 -0.2619
 3239TIP3    H1 9723   2.973   3.428   3.212  0.9748 -0.0974 -0.9602
 3239TIP3    H2 9724   3.050   3.525   3.299  2.6596 -0.7923 -1.6438
 3240TIP3   OH2 9725   0.249   5.310   3.073  0.1765 -0.4557 -0.3269
 3240TIP3    H1 9726   0.167   5.274   3.109  0.0933 -0.7784 -0.8323
 3240TIP3    H2 9727   0.240   5.405   3.084 -0.3166 -0.4819 -0.4796
 3241TIP3   OH2 9728   4.774   3.719   0.502  0.2801 -0.4449 -0.1848
 3241TIP3    H1 9729   4.760   3.625   0.491 -1.1723 -0.2049 -0.5039
 3241TIP3    H2 9730   4.740   3.739   0.589  0.1223 -0.1166 -0.3214
 3242TIP3   OH2 9731   5.002   3.357   5.081  0.3729  0.6542  0.0440
 3242TIP3    H1 9732   4.975   3.341   4.990  0.3656  0.6025  0.0548
 3242TIP3    H2 9733   4.965   3.284   5.130 -0.5479  1.2531  0.2645
 3243TIP3   OH2 9734   4.452   1.049   0.285 -0.4735  0.9485 -0.4927
 3243TIP3    H1 9735   4.512   1.114   0.248 -0.1156  0.7930 -0.1891
 3243TIP3    H2 9736   4.377   1.049   0.225 -0.3387  1.4128 -0.6696
 3244TIP3   OH2 9737   3.862   0.079   4.077  0.3939 -0.0201  0.0340
 3244TIP3    H1 9738   3.931   0.016   4.098 -0.2466 -0.7876 -0.1363
 3244TIP3    H2 9739   3.849   0.071   3.983 -0.5980 -0.5891  0.2080
 3245TIP3   OH2 9740   0.189   1.057   2.703  0.4651 -0.7804 -0.1344
 3245TIP3    H1 9741   0.269   1.007   2.720  1.1123  0.1259 -0.4635
 3245TIP3    H2 9742   0.130   1.031   2.774  1.7138 -0.0805  1.2263
 3246TIP3   OH2 9743   4.772   5.434   2.146  0.4803 -0.7470  0.0584
 3246TIP3    H1 9744   4.700   5.403   2.092  0.7808 -0.2445 -0.6428
 3246TIP3    H2 9745   4.782   5.366   2.214 -1.2949 -0.3296  0.7793
 3247TIP3   OH2 9746   0.625   4.310   2.253 -0.0006  0.0999 -0.1220
 3247TIP3    H1 9747   0.700   4.359   2.288  1.3487 -0.5452 -1.9796
 3247TIP3    H2 9748   0.550   4.366   2.273  1.1151  1.4060  0.6454
 3248TIP3   OH2 9749   3.917   4.856   4.699  0.5419 -0.1966 -0.0378
 3248TIP3    H1 9750   3.909   4.917   4.772  0.5757  0.5165 -0.6200
 3248TIP3    H2 9751   3.995   4.884   4.652  1.6883 -1.8706  0.7434
 3249TIP3   OH2 9752   0.634   0.521   3.637 -0.4236  0.0987 -0.0792
 3249TIP3    H1 9753   0.592   0.466   3.571 -0.9756  1.2552 -0.7192
 3249TIP3    H2 9754   0.639   0.607   3.596  1.1755  0.3537  0.5759
 3250TIP3   OH2 9755   5.295   0.357   2.196  0.1129  0.3211 -0.2909
 3250TIP3    H1 9756   5.371   0.353   2.253 -0.4770  0.3700  0.5109
 3250TIP3    H2 9757   5.324   0.314   2.115  1.5297  1.8472 -0.6441
 3251TIP3   OH2 9758   3.131   2.930   0.338  0.6957  0.2232 -0.2774
 3251TIP3    H1 9759   3.151   2.849   0.384  0.8835  0.5275  0.1902
 3251TIP3    H2 9760   3.204   2.988   0.359 -0.5280  1.2892  1.2905
 3252TIP3   OH2 9761   3.265   5.031   3.692  0.3366 -0.3729  0.0755
 3252TIP3    H1 9762   3.239   5.108   3.743 -0.8594 -1.7710  1.6861
 3252TIP3    H2 9763   3.203   5.029   3.620 -2.1815 -1.8555  2.1125
 3253TIP3   OH2 9764   0.146   5.634   0.814  0.3634  0.4411  0.0022
 3253TIP3    H1 9765   0.216   5.652   0.877 -1.9958  2.5889  2.1990
 3253TIP3    H2 9766   0.096   5.715   0.809 -0.3430 -0.0466 -3.7793
 3254TIP3   OH2 9767   2.502   3.995   1.066  0.1097  0.0262 -0.6904
 3254TIP3    H1 9768   2.429   3.942   1.034  0.2487 -0.1227 -0.7653
 3254TIP3    H2 9769   2.579   3.938   1.057  0.0839 -0.2178  0.3961
 3255TIP3   OH2 9770   0.774  -0.004   3.820  0.0678  0.7085 -0.3808
 3255TIP3    H1 9771   0.767   0.081   3.776  1.3796  0.3553 -1.3745
 3255TIP3    H2 9772   0.836   0.011   3.891  1.1241  0.3748 -1.2057
 3256TIP3   OH2 9773   5.232   4.139   2.112 -0.2323  0.3241 -0.0745
 3256TIP3    H1 9774   5.241   4.161   2.019  0.1736 -0.1308 -0.1458
 3256TIP3    H2 9775   5.142   4.110   2.122 -0.5186  1.1543 -0.1576
 3257TIP3   OH2 9776   2.545   0.113   2.701 -0.2750  0.1145 -0.1735
 3257TIP3    H1 9777   2.558   0.174   2.773 -3.3404  1.5446 -0.6876
 3257TIP3    H2 9778   2.564   0.163   2.622 -2.2365  0.3163 -0.5688
 3258TIP3   OH2 9779   0.331   2.810   3.955 -0.3436  0.7940  0.4686
 3258TIP3    H1 9780   0.278   2.798   4.034  0.1267  1.9442  0.9945
 3258TIP3    H2 9781   0.366   2.723   3.935 -0.7874  0.4110  1.3051
 3259TIP3   OH2 9782   3.000   5.417   3.743 -0.1895 -0.5914 -0.2237
 3259TIP3    H1 9783   3.015   5.480   3.672 -0.6799  1.3553  1.3156
 3259TIP3    H2 9784   3.082   5.370   3.751  0.6604  0.7723 -0.5840
 3260TIP3   OH2 9785   0.928   4.296   2.239  0.2908 -0.0011 -0.6604
 3260TIP3    H1 9786   1.022   4.307   2.252  0.0509  1.7349 -0.1562
 3260TIP3    H2 9787   0.912   4.205   2.263  1.7269 -0.1101  0.0294
 3261TIP3   OH2 9788   0.216   4.291   4.947  0.3545 -0.6420 -1.0442
 3261TIP3    H1 9789   0.124   4.298   4.973  0.2191 -0.2821 -1.6287
 3261TIP3    H2 9790   0.260   4.261   5.027 -0.0867  0.2792 -0.4345
 3262TIP3   OH2 9791   4.070   2.886   3.711 -0.2674 -0.1972 -0.2308
 3262TIP3    H1 9792   4.098   2.890   3.619 -1.2472 -1.6168 -0.6323
 3262TIP3    H2 9793   4.092   2.797   3.739  0.3628  0.3357  1.0484
 3263TIP3   OH2 9794   2.507   3.253   1.996 -0.4917  0.0259  0.1251
 3263TIP3    H1 9795   2.419   3.239   1.961 -0.1099  0.2140 -0.9475
 3263TIP3    H2 9796   2.556   3.176   1.969  0.2102  0.8771 -1.1398
 3264TIP3   OH2 9797   6.007   4.825   1.040 -0.7507 -0.2930  0.4676
 3264TIP3    H1 9798   5.947   4.801   1.110 -0.7937 -1.5959  0.0123
 3264TIP3    H2 9799   6.050   4.743   1.016 -0.9112  0.0794 -1.1892
 3265TIP3   OH2 9800   0.322   2.273   3.854 -0.1892  0.0062  0.1331
 3265TIP3    H1 9801   0.311   2.190   3.807  0.4355 -0.0142  0.0022
 3265TIP3    H2 9802   0.414   2.271   3.882  0.1943  1.1961 -0.9372
 3266TIP3   OH2 9803   3.081   3.693   3.279 -1.2563 -0.3375  0.2016
 3266TIP3    H1 9804   3.170   3.666   3.256 -1.2301 -0.5527  0.5492
 3266TIP3    H2 9805   3.064   3.769   3.223 -0.9164 -0.3964  0.0147
 3267TIP3   OH2 9806   3.804   1.696   1.899  0.2788 -0.2706  0.1092
 3267TIP3    H1 9807   3.783   1.752   1.824 -0.8529  0.8316  1.2195
 3267TIP3    H2 9808   3.900   1.698   1.904  0.3933 -0.5921 -1.4515
 3268TIP3   OH2 9809   4.828   3.979   1.095  0.3682  0.6649 -0.1317
 3268TIP3    H1 9810   4.791   4.028   1.169  0.0953  1.6602 -0.9237
 3268TIP3    H2 9811   4.757   3.975   1.031  0.3782 -0.7739 -0.1051
 3269TIP3   OH2 9812   5.966   3.645   0.656 -0.6052 -0.5329  0.2953
 3269TIP3    H1 9813   6.029   3.584   0.695  0.0344  0.4926  0.9165
 3269TIP3    H2 9814   5.982   3.640   0.562  0.7071  0.0016  0.4622
 3270TIP3   OH2 9815   5.728   0.639   0.557 -0.1494  0.1762  1.0908
 3270TIP3    H1 9816   5.771   0.554   0.562 -0.4901 -0.0393  0.4076
 3270TIP3    H2 9817   5.651   0.631   0.614  0.1578  0.2369  1.5208
 3271TIP3   OH2 9818   3.792   4.588   2.117 -0.3238 -0.1396  0.3489
 3271TIP3    H1 9819   3.737   4.642   2.060  1.0832 -0.0774 -1.0350
 3271TIP3    H2 9820   3.778   4.622   2.205 -2.3514 -0.0396  0.0223
 3272TIP3   OH2 9821   4.210   5.795   2.836 -0.2647  0.3426  0.1576
 3272TIP3    H1 9822   4.178   5.717   2.882  1.5743  0.8186  2.3810
 3272TIP3    H2 9823   4.162   5.867   2.876 -0.2009  0.5886 -0.2089
 3273TIP3   OH2 9824   3.282   4.914   0.383  0.2011  0.6658  0.1770
 3273TIP3    H1 9825   3.278   4.910   0.288 -0.0885 -0.1985  0.2129
 3273TIP3    H2 9826   3.311   5.003   0.403  0.0296  0.9259 -0.7091
 3274TIP3   OH2 9827   3.305   1.740   0.683  0.1527 -0.1268  0.0394
 3274TIP3    H1 9828   3.346   1.773   0.602 -0.8397  0.1453 -0.3597
 3274TIP3    H2 9829   3.349   1.789   0.752 -1.6680  2.5787 -0.5564
 3275TIP3   OH2 9830   3.699   3.284   0.818  0.1593 -0.1687 -0.7697
 3275TIP3    H1 9831   3.718   3.373   0.849 -1.1638 -0.3612  0.7458
 3275TIP3    H2 9832   3.779   3.234   0.838 -0.1464  0.0397  1.1503
 3276TIP3   OH2 9833   5.716   3.274   1.046  0.5924 -0.2438  0.2527
 3276TIP3    H1 9834   5.788   3.338   1.040 -0.4651  1.1076  1.2927
 3276TIP3    H2 9835   5.704   3.260   1.140 -1.8575  1.2261  0.2431
 3277TIP3   OH2 9836   2.801   1.728   3.976 -0.4180 -0.0864 -0.2344
 3277TIP3    H1 9837   2.759   1.668   4.038  0.1863 -0.1108  0.1581
 3277TIP3    H2 9838   2.789   1.815   4.015 -0.8907 -0.0024 -0.5713
 3278TIP3   OH2 9839   3.705   1.875   0.870 -0.7176 -0.1162 -0.6534
 3278TIP3    H1 9840   3.767   1.946   0.851 -0.6579  0.0921  0.2665
 3278TIP3    H2 9841   3.752   1.818   0.931 -0.3098 -1.6303 -2.3136
 3279TIP3   OH2 9842   4.930   2.163   1.789 -0.0503 -0.3521 -0.0176
 3279TIP3    H1 9843   4.936   2.077   1.830  1.3380  0.4190  1.5268
 3279TIP3    H2 9844   4.968   2.152   1.703 -2.1334 -1.7999 -0.8342
 3280TIP3   OH2 9845   4.466   5.378   2.519  0.0934  0.2894 -0.2101
 3280TIP3    H1 9846   4.414   5.300   2.538 -1.1072  1.1088  0.0184
 3280TIP3    H2 9847   4.408   5.433   2.467  1.1062  0.8106 -0.8064
 3281TIP3   OH2 9848   5.679   0.268   2.779 -0.0527 -0.2646 -0.3339
 3281TIP3    H1 9849   5.713   0.196   2.832 -0.9051  0.1906  0.8863
 3281TIP3    H2 9850   5.742   0.339   2.792 -1.5984  0.7608  2.3632
 3282TIP3   OH2 9851   5.481   3.511   1.523 -0.0456 -0.0578 -0.2685
 3282TIP3    H1 9852   5.441   3.540   1.605 -0.4199  0.5355 -0.6546
 3282TIP3    H2 9853   5.529   3.431   1.546 -1.2891 -0.6868  0.2486
 3283TIP3   OH2 9854   5.132   5.384   1.544 -0.5007  0.4425 -0.5026
 3283TIP3    H1 9855   5.127   5.436   1.625  0.4072 -0.5813  0.2460
 3283TIP3    H2 9856   5.055   5.328   1.547  0.6514 -1.1894  0.8522
 3284TIP3   OH2 9857   4.191   2.343   2.606  0.4642  0.0267  0.7045
 3284TIP3    H1 9858   4.120   2.289   2.572  1.2676 -0.1679 -0.7740
 3284TIP3    H2 9859   4.248   2.282   2.652  0.0339  0.0690  1.3024
 3285TIP3   OH2 9860   5.955   2.779   3.055 -0.0306  0.3112  0.1875
 3285TIP3    H1 9861   5.975   2.708   2.994 -0.3368  1.1858 -0.9602
 3285TIP3    H2 9862   5.861   2.771   3.071 -0.0539  0.4221  0.1040
 3286TIP3   OH2 9863   4.243   4.589   1.393 -0.2786 -0.1481 -0.1507
 3286TIP3    H1 9864   4.250   4.560   1.302 -1.5767  1.7479 -0.9160
 3286TIP3    H2 9865   4.333   4.585   1.426  0.9429  2.4985 -2.6513
 3287TIP3   OH2 9866   2.106   1.662   2.553 -0.2080 -0.1025 -0.1469
 3287TIP3    H1 9867   2.033   1.684   2.495 -1.3790 -0.7502  1.0166
 3287TIP3    H2 9868   2.161   1.740   2.554 -0.3277  0.0424 -1.8349
 3288TIP3   OH2 9869   5.317   3.544   0.895 -0.2055  0.4621 -0.0218
 3288TIP3    H1 9870   5.413   3.545   0.899 -0.2287  0.1886  0.9538
 3288TIP3    H2 9871   5.294   3.630   0.860  0.4055  0.2703 -0.9497
 3289TIP3   OH2 9872   3.961   0.266   3.159  0.1921 -0.2067  0.2727
 3289TIP3    H1 9873   3.969   0.258   3.064  0.4743 -2.8812  0.4576
 3289TIP3    H2 9874   4.044   0.232   3.193  0.7633  2.1820  1.5034
 3290TIP3   OH2 9875   4.757   3.931   4.819  0.3803  0.2035  0.2121
 3290TIP3    H1 9876   4.833   3.961   4.770  0.3141  0.1047  0.0496
 3290TIP3    H2 9877   4.788   3.854   4.867  0.4049  0.2104  0.2070
 3291TIP3   OH2 9878   6.254   5.591   2.277 -0.4094  0.1731  0.0113
 3291TIP3    H1 9879   6.252   5.509   2.227 -1.8057  0.8120 -1.0667
 3291TIP3    H2 9880   6.337   5.632   2.252  0.5701 -1.1471  1.0020
 3292TIP3   OH2 9881   3.862   2.507   2.919  0.1228 -0.1358 -0.0750
 3292TIP3    H1 9882   3.804   2.556   2.977 -1.8745 -2.9099  0.4530
 3292TIP3    H2 9883   3.828   2.525   2.831  1.2277  1.6218 -0.1881
 3293TIP3   OH2 9884   1.741   3.870   4.544  0.2233 -0.0182 -0.5858
 3293TIP3    H1 9885   1.778   3.905   4.626 -0.2556  0.8826 -0.7393
 3293TIP3    H2 9886   1.761   3.777   4.547 -1.9381 -0.5422  1.7918
 3294TIP3   OH2 9887   0.919   0.959   4.557 -0.4406 -0.4367 -0.3969
 3294TIP3    H1 9888   0.853   0.998   4.500  0.2828  0.6769 -0.4963
 3294TIP3    H2 9889   0.970   1.033   4.590 -0.7507 -1.0419  1.6133
 3295TIP3   OH2 9890   3.548   0.572   4.660 -0.2102  0.2457 -0.0234
 3295TIP3    H1 9891   3.574   0.660   4.688 -1.7296  0.1639  1.7980
 3295TIP3    H2 9892   3.574   0.515   4.732  0.6348 -0.8299 -1.1297
 3296TIP3   OH2 9893   1.127   1.062   4.033  0.5090 -0.2987 -0.0186
 3296TIP3    H1 9894   1.141   1.052   3.939  0.9615 -0.9689  0.1151
 3296TIP3    H2 9895   1.207   1.105   4.065  0.1921  0.2864  0.0053
 3297TIP3   OH2 9896   5.827   2.309   2.008  0.1831  0.2848 -0.0144
 3297TIP3    H1 9897   5.885   2.384   2.016 -0.2184  0.6803 -0.7277
 3297TIP3    H2 9898   5.885   2.236   1.985  0.4305  0.6265 -0.4866
 3298TIP3   OH2 9899   3.248   2.413   2.895 -0.6022  0.3217 -0.4099
 3298TIP3    H1 9900   3.204   2.393   2.813 -0.4250  1.2023 -0.7358
 3298TIP3    H2 9901   3.304   2.488   2.874 -3.1416  2.8779  1.2963
 3299TIP3   OH2 9902   3.034   0.851   4.119 -0.3091 -0.0843 -0.0159
 3299TIP3    H1 9903   2.941   0.874   4.127 -0.2410 -0.2349  1.3019
 3299TIP3    H2 9904   3.076   0.933   4.091 -0.5402  0.5869  1.4861
 3300TIP3   OH2 9905   0.189   0.218   1.100  0.2500 -0.1630  0.2370
 3300TIP3    H1 9906   0.181   0.132   1.060 -1.2901  0.6564 -1.3366
 3300TIP3    H2 9907   0.159   0.279   1.033  1.5180  1.6474  1.2192
 3301TIP3   OH2 9908   5.927   4.906   0.705  1.0138  0.5174  0.0851
 3301TIP3    H1 9909   6.014   4.890   0.669  1.1318 -0.3296  0.6894
 3301TIP3    H2 9910   5.872   4.837   0.668  1.0656 -0.1652  1.2201
 3302TIP3   OH2 9911   1.827   3.043   3.655 -0.3108  0.0961  0.2247
 3302TIP3    H1 9912   1.738   3.025   3.625 -0.1301 -1.0914  0.3500
 3302TIP3    H2 9913   1.854   2.963   3.701  0.4745  0.7990  1.0191
 3303TIP3   OH2 9914   3.890   1.932   1.513  0.6580 -0.0930 -0.1595
 3303TIP3    H1 9915   3.943   1.912   1.435  0.2062  1.7170 -0.9928
 3303TIP3    H2 9916   3.807   1.964   1.478 -0.1902 -0.8436  1.1136
 3304TIP3   OH2 9917   0.365   4.738   1.111  0.3940 -0.3514 -0.0428
 3304TIP3    H1 9918   0.276   4.740   1.146 -0.0235 -1.3015 -1.0122
 3304TIP3    H2 9919   0.358   4.688   1.030  1.2047  2.3153 -1.8886
 3305TIP3   OH2 9920   3.142   4.799   1.794 -0.2519 -0.0610 -0.3205
 3305TIP3    H1 9921   3.110   4.709   1.797 -1.0141  0.0378 -2.8981
 3305TIP3    H2 9922   3.064   4.852   1.777  0.5809  0.7045 -2.0289
 3306TIP3   OH2 9923   5.429   3.363   3.661 -0.3616 -0.5410 -0.4037
 3306TIP3    H1 9924   5.435   3.397   3.750  0.4597 -0.9459 -0.2933
 3306TIP3    H2 9925   5.421   3.268   3.672  0.0381 -0.6209 -0.7619
 3307TIP3   OH2 9926   5.509   0.282   1.556 -0.3783  0.1666  0.6327
 3307TIP3    H1 9927   5.522   0.278   1.651 -1.1126 -0.5419  0.7262
 3307TIP3    H2 9928   5.426   0.330   1.545  0.5533  1.7534  0.2443
 3308TIP3   OH2 9929   1.801   4.643   0.340  0.4723 -0.1764  0.1312
 3308TIP3    H1 9930   1.762   4.685   0.264  1.4647  0.7240  0.1063
 3308TIP3    H2 9931   1.753   4.679   0.415  0.8803  0.5009  0.0664
 3309TIP3   OH2 9932   2.131   3.416   0.518  0.1564  0.4115 -0.2637
 3309TIP3    H1 9933   2.184   3.365   0.578 -0.7298 -1.0413 -0.6539
 3309TIP3    H2 9934   2.161   3.506   0.529  1.5981 -0.1522  0.6318
 3310TIP3   OH2 9935   4.088   4.323   4.102  0.0138 -0.5698 -0.1513
 3310TIP3    H1 9936   4.045   4.294   4.182  0.0747  0.8920  0.4470
 3310TIP3    H2 9937   4.182   4.311   4.119  0.2585  2.2528  1.1662
 3311TIP3   OH2 9938   5.514   1.783   0.309 -0.3953  0.4711 -0.3034
 3311TIP3    H1 9939   5.603   1.755   0.288 -0.9109 -1.9072  0.3606
 3311TIP3    H2 9940   5.460   1.737   0.244 -1.6616 -3.8543  3.3130
 3312TIP3   OH2 9941   1.432   5.409   1.663  0.0962  0.0976 -0.3272
 3312TIP3    H1 9942   1.446   5.496   1.625  0.0718 -0.7305 -2.3605
 3312TIP3    H2 9943   1.339   5.392   1.648 -0.2152  0.2459  1.2960
 3313TIP3   OH2 9944   6.259   3.779   4.133 -0.1603  0.1280 -0.2798
 3313TIP3    H1 9945   6.292   3.689   4.134 -1.6003 -0.5123 -2.5189
 3313TIP3    H2 9946   6.335   3.832   4.154  0.7240 -1.5794  1.1476
 3314TIP3   OH2 9947   1.914   3.375   1.651  0.1995 -0.3172 -0.2030
 3314TIP3    H1 9948   1.848   3.312   1.680 -0.6405  0.7604  0.3167
 3314TIP3    H2 9949   1.886   3.459   1.689  1.5195  0.2979 -0.5006
 3315TIP3   OH2 9950   5.172   1.030   5.211  0.0615  0.3346  0.5875
 3315TIP3    H1 9951   5.128   0.985   5.138  0.2915 -0.7544  1.0964
 3315TIP3    H2 9952   5.188   1.118   5.179 -2.1435  0.6694  0.2266
 3316TIP3   OH2 9953   4.712   0.893   4.351 -0.4224  0.5268  0.2002
 3316TIP3    H1 9954   4.623   0.857   4.351 -0.4647  0.6133 -0.3885
 3316TIP3    H2 9955   4.768   0.820   4.325 -0.6165  1.0827 -1.9774
 3317TIP3   OH2 9956   2.635   0.480   3.710 -0.1007  0.3180  0.1850
 3317TIP3    H1 9957   2.686   0.399   3.699 -0.3842 -0.0391  1.3408
 3317TIP3    H2 9958   2.555   0.464   3.661  0.1414  0.1704 -0.1674
 3318TIP3   OH2 9959   5.764   1.968   1.385 -0.1119  0.0705 -0.1293
 3318TIP3    H1 9960   5.818   1.980   1.306  0.6763 -0.9573  0.2322
 3318TIP3    H2 9961   5.708   2.045   1.387  0.5013  0.5736 -1.1921
 3319TIP3   OH2 9962   5.273   1.357   4.102  0.2567 -0.3137 -0.0685
 3319TIP3    H1 9963   5.251   1.369   4.194  1.3977 -0.1583  0.2058
 3319TIP3    H2 9964   5.294   1.445   4.070  1.8614 -0.5901  0.1001
 3320TIP3   OH2 9965   4.018   4.509   1.928 -0.2482  0.2147 -0.3044
 3320TIP3    H1 9966   4.065   4.586   1.895 -0.9685  1.3692  1.2332
 3320TIP3    H2 9967   3.985   4.536   2.014 -2.8583 -0.8642 -0.8621
 3321TIP3   OH2 9968   6.090   4.755   3.318  0.0806  0.1991  0.0460
 3321TIP3    H1 9969   6.128   4.797   3.395 -0.0426  1.4949 -0.5785
 3321TIP3    H2 9970   6.010   4.804   3.301 -0.9212 -1.3121  0.2268
 3322TIP3   OH2 9971   1.272   4.484   3.180  0.2832 -0.8300 -0.4044
 3322TIP3    H1 9972   1.340   4.497   3.115  1.7483  2.6679  1.5617
 3322TIP3    H2 9973   1.195   4.529   3.144  0.6310 -0.2314 -0.4144
 3323TIP3   OH2 9974   6.166   3.546   2.203  0.6398  0.0223  0.1312
 3323TIP3    H1 9975   6.151   3.633   2.167  3.8143  0.4295 -0.4576
 3323TIP3    H2 9976   6.096   3.535   2.268 -1.8837  1.5476 -2.1052
 3324TIP3   OH2 9977   2.373   1.449   3.598 -0.0012 -0.8674 -0.1007
 3324TIP3    H1 9978   2.386   1.521   3.536  0.8516 -0.8029  0.1442
 3324TIP3    H2 9979   2.323   1.384   3.548 -1.0902  0.0177 -0.2207
 3325TIP3   OH2 9980   1.979   4.731   4.215  0.3286 -0.3641  0.0933
 3325TIP3    H1 9981   1.924   4.785   4.271  0.6341 -1.5499  1.6141
 3325TIP3    H2 9982   1.924   4.656   4.192  0.8235 -0.8210  0.3876
 3326TIP3   OH2 9983   5.819   0.783   4.460  0.0466  0.2095  0.1916
 3326TIP3    H1 9984   5.781   0.858   4.504 -0.7277 -0.1492  0.1438
 3326TIP3    H2 9985   5.786   0.707   4.507  0.7520 -0.1150  0.1858
 3327TIP3   OH2 9986   0.049   4.537   4.647 -0.4507 -0.8483  0.5822
 3327TIP3    H1 9987   0.108   4.553   4.721 -0.5487 -1.6516  0.8436
 3327TIP3    H2 9988   0.099   4.482   4.587 -0.3958 -0.2544  0.0717
 3328TIP3   OH2 9989   1.394   3.525   2.072  0.7422 -0.2166 -0.0143
 3328TIP3    H1 9990   1.401   3.489   2.160 -0.2333  0.5562  0.3980
 3328TIP3    H2 9991   1.451   3.469   2.019 -0.0937 -1.8732  0.7420
 3329TIP3   OH2 9992   2.785   4.704   3.385 -0.2414 -0.1508  0.4893
 3329TIP3    H1 9993   2.754   4.631   3.330 -0.0777 -0.5529  0.9275
 3329TIP3    H2 9994   2.849   4.749   3.330 -0.4394 -0.2546  0.1657
 3330TIP3   OH2 9995   5.556   0.184   4.136 -0.4898 -0.1307  0.3464
 3330TIP3    H1 9996   5.473   0.141   4.113 -0.1799  0.1016 -1.4035
 3330TIP3    H2 9997   5.532   0.248   4.203 -1.6355 -0.4663  0.2860
 3331TIP3   OH2 9998   2.387   0.044   5.015  0.0632 -0.2489  0.3255
 3331TIP3    H1 9999   2.439  -0.037   5.013  2.8211  1.4042  0.0021
 3331TIP3    H210000   2.352   0.053   4.926  1.4148 -0.1120 -0.2083
 3332TIP3   OH210001   4.220   3.053   3.128 -0.0963 -0.0276 -0.1936
 3332TIP3    H110002   4.186   3.071   3.040  1.1755  2.5112 -0.2680
 3332TIP3    H210003   4.285   3.122   3.142  1.9529 -2.1518  1.5541
 3333TIP3   OH210004   6.316   0.739   3.915  0.4284  0.3282  0.9409
 3333TIP3    H110005   6.368   0.684   3.973  0.0231 -0.0655  0.9346
 3333TIP3    H210006   6.269   0.798   3.974  1.2155  0.9947  0.9253
 3334TIP3   OH210007   4.019   5.656   3.855  0.2039  0.3881  0.2489
 3334TIP3    H110008   3.944   5.651   3.914  0.9443 -1.4278  1.1209
 3334TIP3    H210009   3.994   5.721   3.789 -0.7520  2.3551  2.4108
 3335TIP3   OH210010   5.986   2.724   1.660  0.3389 -0.3549  0.8816
 3335TIP3    H110011   6.069   2.723   1.707  1.8644  0.8008 -1.6017
 3335TIP3    H210012   5.945   2.807   1.685  1.1423  0.2532  0.2376
 3336TIP3   OH210013   5.966   2.918   4.223 -0.4402 -0.1816  0.0919
 3336TIP3    H110014   5.923   2.834   4.208 -1.4033  0.5277 -1.2764
 3336TIP3    H210015   5.985   2.952   4.136 -0.4113  1.1980  0.6085
 3337TIP3   OH210016   1.768   3.795   4.826 -0.1887  0.1667 -0.6482
 3337TIP3    H110017   1.680   3.759   4.836 -0.3542 -0.1431 -2.8956
 3337TIP3    H210018   1.825   3.718   4.817  0.1321  0.3982 -0.6393
 3338TIP3   OH210019   4.790   3.917   0.032 -0.1401  0.4333 -0.3087
 3338TIP3    H110020   4.734   3.977   0.082  0.6088 -0.9051  2.3755
 3338TIP3    H210021   4.731   3.876  -0.030 -2.3592 -1.0701  2.5292
 3339TIP3   OH210022   2.584   5.528   2.588  0.7323  0.5808 -0.5546
 3339TIP3    H110023   2.638   5.596   2.630 -0.9064  1.9464 -0.5537
 3339TIP3    H210024   2.648   5.465   2.554  2.2248  0.8146  1.5936
 3340TIP3   OH210025   5.336   5.496   0.006  0.6991 -0.3733 -0.5041
 3340TIP3    H110026   5.403   5.536   0.061  1.3222 -0.1554 -1.4098
 3340TIP3    H210027   5.385   5.454  -0.065 -0.0660 -1.0200 -0.6635
 3341TIP3   OH210028   3.108   2.468   3.882 -0.0346 -0.5799 -0.1818
 3341TIP3    H110029   3.150   2.466   3.968 -0.1161 -2.2666 -0.1643
 3341TIP3    H210030   3.022   2.429   3.895 -0.2979 -0.2746 -0.9131
 3342TIP3   OH210031   2.768   1.876   1.942  0.9516 -0.5240  0.3357
 3342TIP3    H110032   2.842   1.904   1.888 -0.0576 -0.2729 -0.9649
 3342TIP3    H210033   2.729   1.958   1.974  1.6873 -0.6771  1.6797
 3343TIP3   OH210034   1.150   3.232   3.816 -0.0284 -0.3385  0.0065
 3343TIP3    H110035   1.199   3.254   3.738 -0.9476  1.5741 -0.0827
 3343TIP3    H210036   1.116   3.144   3.799  1.3309 -0.7158 -0.9171
 3344TIP3   OH210037   6.207   3.916   4.484 -0.1528 -0.7645  0.1412
 3344TIP3    H110038   6.289   3.949   4.447 -0.1642  0.3383  1.0499
 3344TIP3    H210039   6.198   3.828   4.447  0.6345 -0.3164 -1.1990
 3345TIP3   OH210040   0.507   4.997   3.347 -0.4346  0.1580 -0.7986
 3345TIP3    H110041   0.494   5.009   3.253  1.6424  0.3740 -1.0982
 3345TIP3    H210042   0.601   5.000   3.359 -0.6924  1.9677  1.5556
 3346TIP3   OH210043   1.686   2.567   2.624  0.2343 -0.6737 -0.5407
 3346TIP3    H110044   1.622   2.546   2.692 -0.8182 -0.2813 -1.3788
 3346TIP3    H210045   1.706   2.483   2.583  1.3412 -1.0067  0.6225
 3347TIP3   OH210046   0.176   3.234   4.264 -0.1396  0.4095 -0.5502
 3347TIP3    H110047   0.202   3.300   4.328  0.4535 -0.9008  0.6122
 3347TIP3    H210048   0.258   3.188   4.243 -0.9879 -2.3026  1.4338
 3348TIP3   OH210049   5.243   2.740   1.872  0.1496 -0.3389  0.2175
 3348TIP3    H110050   5.334   2.748   1.901  0.3723  2.4641 -0.9577
 3348TIP3    H210051   5.234   2.647   1.850  2.0485 -1.1229  2.3079
 3349TIP3   OH210052   2.068   5.630   2.596  0.1392 -0.1050  0.1348
 3349TIP3    H110053   2.072   5.591   2.509 -0.9177  0.0663 -0.0117
 3349TIP3    H210054   1.981   5.607   2.628 -0.6492  2.2758 -0.0616
 3350TIP3   OH210055   4.279   3.017   4.144  0.4336  0.2117 -0.0657
 3350TIP3    H110056   4.314   3.023   4.055  1.9354  0.4748  0.5062
 3350TIP3    H210057   4.288   2.925   4.167 -0.1209  0.1099 -0.2350
 3351TIP3   OH210058   4.267   1.508   4.107 -0.5424 -0.7753 -0.2562
 3351TIP3    H110059   4.269   1.477   4.016  3.2930 -2.0620  0.0618
 3351TIP3    H210060   4.263   1.603   4.099  3.5931 -0.5130 -2.1698
 3352TIP3   OH210061   3.361   4.878   1.004  0.0800  0.0608 -0.5312
 3352TIP3    H110062   3.448   4.841   1.020  0.1793 -0.7409 -2.5846
 3352TIP3    H210063   3.315   4.810   0.955 -1.1562  1.0870 -0.8421
 3353TIP3   OH210064   0.915   4.249   1.456 -0.1687 -0.1315  0.1538
 3353TIP3    H110065   0.953   4.316   1.399  1.0900 -0.3110  0.7613
 3353TIP3    H210066   0.849   4.296   1.508  0.9987  0.7473  0.8863
 3354TIP3   OH210067   3.581   2.837   2.386 -0.1646  0.2389  0.5555
 3354TIP3    H110068   3.652   2.808   2.329 -0.7602  1.5936 -0.9781
 3354TIP3    H210069   3.501   2.810   2.341 -0.6446  0.9408  0.9529
 3355TIP3   OH210070   0.333   0.817   3.126 -0.0917 -0.1770 -0.4135
 3355TIP3    H110071   0.428   0.813   3.136 -0.1352 -1.4717 -0.3514
 3355TIP3    H210072   0.301   0.845   3.212  0.1062 -2.1872  0.3748
 3356TIP3   OH210073   5.785   0.463   4.087  0.0139  0.2376  0.1708
 3356TIP3    H110074   5.787   0.559   4.090 -1.2315  0.3195 -0.8313
 3356TIP3    H210075   5.728   0.443   4.013  0.1562 -1.2857  0.4546
 3357TIP3   OH210076   2.560   5.538   4.551  0.1327 -0.3722  0.4433
 3357TIP3    H110077   2.557   5.633   4.544 -2.0739 -0.4543 -0.6310
 3357TIP3    H210078   2.641   5.520   4.598  0.7830  2.0043  0.3689
 3358TIP3   OH210079   1.796   4.818   2.009  0.0381  0.4341  0.0548
 3358TIP3    H110080   1.884   4.785   2.028  0.0112  0.0363 -0.4734
 3358TIP3    H210081   1.776   4.783   1.922 -0.8101  0.1845  0.3422
 3359TIP3   OH210082   0.859   0.783   2.074 -1.0434 -0.3311  0.3488
 3359TIP3    H110083   0.834   0.841   2.146 -1.1278 -0.4365  0.4052
 3359TIP3    H210084   0.954   0.792   2.067 -1.0670 -0.1213  0.3014
 3360TIP3   OH210085   4.185   2.081   0.235 -0.2565  0.4883 -0.0449
 3360TIP3    H110086   4.185   2.025   0.312  0.5221  0.8684  0.2419
 3360TIP3    H210087   4.157   2.167   0.267 -1.1207  0.3622 -0.4197
 3361TIP3   OH210088   1.677   1.624   2.934  0.3718  0.3926 -0.0916
 3361TIP3    H110089   1.601   1.680   2.919  0.1114  0.4453  1.3535
 3361TIP3    H210090   1.729   1.634   2.854 -0.8719  0.7486 -0.8942
 3362TIP3   OH210091   4.903   1.899   1.895  0.5729  0.0111  0.0684
 3362TIP3    H110092   4.822   1.860   1.863 -0.0656 -0.5803  2.2275
 3362TIP3    H210093   4.944   1.830   1.948  2.6683  0.1989 -1.1993
 3363TIP3   OH210094   3.457   0.705   0.118 -0.5052  0.0042 -0.2318
 3363TIP3    H110095   3.455   0.790   0.074 -1.1654  0.1292  0.0219
 3363TIP3    H210096   3.550   0.687   0.132 -0.3770  1.6178  1.4672
 3364TIP3   OH210097   4.378   3.019   0.529 -0.3602  0.3733 -0.9554
 3364TIP3    H110098   4.400   3.106   0.496 -2.4297  0.9717 -0.9131
 3364TIP3    H210099   4.374   2.964   0.451 -0.6954  0.7250 -1.1954
 3365TIP3   OH210100   5.606   5.114   2.828  0.0241  0.0064 -0.2750
 3365TIP3    H110101   5.590   5.076   2.914 -0.8740  1.2203  0.1267
 3365TIP3    H210102   5.547   5.067   2.769  0.4762 -0.6716 -0.1918
 3366TIP3   OH210103   5.321   1.742   3.779 -0.0600  0.5458 -0.0254
 3366TIP3    H110104   5.238   1.699   3.799 -0.2301  0.6130 -0.5551
 3366TIP3    H210105   5.313   1.830   3.815  0.3655  0.0860  1.2402
 3367TIP3   OH210106   5.649   1.726   1.231 -0.1525  0.2970  0.5278
 3367TIP3    H110107   5.616   1.813   1.253  1.7345  1.3176 -0.4270
 3367TIP3    H210108   5.650   1.679   1.315  0.2048  1.7095  1.3490
 3368TIP3   OH210109   2.916   4.399   1.335  0.3157 -0.1795  0.2133
 3368TIP3    H110110   2.922   4.307   1.310 -2.1259 -0.7020  1.2650
 3368TIP3    H210111   2.889   4.444   1.254 -0.6055 -0.7440  0.1918
 3369TIP3   OH210112   4.583   0.908   3.173 -0.5944 -0.0404 -0.7727
 3369TIP3    H110113   4.667   0.951   3.162 -0.2282 -0.6292 -0.3242
 3369TIP3    H210114   4.603   0.815   3.172 -1.1418 -0.1784  0.0269
 3370TIP3   OH210115   0.430   5.590   1.605 -0.7300  1.0710 -0.2695
 3370TIP3    H110116   0.364   5.521   1.602  0.9602 -0.7069  0.7929
 3370TIP3    H210117   0.453   5.598   1.698  0.4789  1.6809 -0.5937
 3371TIP3   OH210118   4.375   2.498   2.441  0.5492 -0.3505 -0.1741
 3371TIP3    H110119   4.455   2.509   2.492  1.8657 -2.0790 -1.7347
 3371TIP3    H210120   4.336   2.417   2.474 -0.0336 -0.0322 -0.0774
 3372TIP3   OH210121   0.239   1.288   1.652 -0.2683 -0.4450 -0.5344
 3372TIP3    H110122   0.238   1.379   1.623  0.2961 -0.3582 -0.2967
 3372TIP3    H210123   0.327   1.275   1.687  0.5517 -1.8160 -2.8682
 3373TIP3   OH210124   5.073   1.359   2.368 -0.1896  0.3210 -0.5560
 3373TIP3    H110125   5.099   1.279   2.323 -0.6661  0.1513 -0.5386
 3373TIP3    H210126   5.028   1.329   2.447 -1.2252  0.5687 -1.0230
 3374TIP3   OH210127   1.483   1.070   3.386 -0.3101 -0.2041  0.3304
 3374TIP3    H110128   1.403   1.101   3.430 -0.7438 -1.5494  0.5426
 3374TIP3    H210129   1.511   0.996   3.439  1.3925  0.5629  0.5459
 3375TIP3   OH210130   2.943   3.048   2.925 -0.2163 -0.1133 -0.0610
 3375TIP3    H110131   2.888   3.121   2.899 -0.3196 -0.5144 -1.0216
 3375TIP3    H210132   2.907   2.973   2.878 -0.4604 -0.9053  1.3363
 3376TIP3   OH210133   2.839   3.703   0.241  0.3265  0.3811  0.0088
 3376TIP3    H110134   2.810   3.641   0.174  0.6721  0.5790 -0.3245
 3376TIP3    H210135   2.875   3.648   0.311 -0.3176  0.1590  0.1803
 3377TIP3   OH210136   5.365   1.071   4.232 -0.3477  0.0134  0.3616
 3377TIP3    H110137   5.340   1.161   4.253  1.2409  0.2976  1.1391
 3377TIP3    H210138   5.452   1.060   4.269 -1.2720 -2.4796  2.0728
 3378TIP3   OH210139   4.621  -0.001   0.459 -0.3719 -0.3662  0.2374
 3378TIP3    H110140   4.716   0.009   0.455 -0.3458 -0.1206  1.1663
 3378TIP3    H210141   4.592   0.067   0.519 -1.1631 -0.3183 -0.1815
 3379TIP3   OH210142   3.339   2.428   2.137 -0.2569 -0.0814 -0.4284
 3379TIP3    H110143   3.368   2.490   2.204  0.2669 -1.0260  0.2505
 3379TIP3    H210144   3.306   2.353   2.187  2.0654 -1.7141 -1.1558
 3380TIP3   OH210145   5.681   2.886   5.078  0.3946  0.1709  0.3320
 3380TIP3    H110146   5.666   2.824   5.149 -2.3019 -1.0624 -1.1543
 3380TIP3    H210147   5.775   2.904   5.081  0.6520 -1.1792  3.0658
 3381TIP3   OH210148   0.643   0.110   0.591 -0.0408 -0.4868 -0.0624
 3381TIP3    H110149   0.623   0.035   0.646 -1.2587 -0.4590 -0.4536
 3381TIP3    H210150   0.706   0.076   0.527  0.8437 -0.6920  0.8772
 3382TIP3   OH210151   4.809   2.470   4.520 -0.0840  0.5857  0.7615
 3382TIP3    H110152   4.764   2.501   4.599 -1.1715  0.6199  0.1367
 3382TIP3    H210153   4.743   2.419   4.473  0.5183  0.6595 -0.1888
 3383TIP3   OH210154   4.067   2.700   0.369  0.0385 -0.3096  0.1069
 3383TIP3    H110155   4.003   2.757   0.326  2.1552  1.7634 -0.4305
 3383TIP3    H210156   4.077   2.626   0.308 -1.7453 -0.6519  0.1774
 3384TIP3   OH210157   4.205   1.358   4.333 -0.3708  0.1396 -0.0712
 3384TIP3    H110158   4.171   1.403   4.410 -0.7955  0.4297 -0.4226
 3384TIP3    H210159   4.227   1.428   4.271  1.7505  0.0208  0.4758
 3385TIP3   OH210160   0.158   5.943   4.781 -0.3191  0.1927 -0.4226
 3385TIP3    H110161   0.174   5.848   4.778 -1.1913  0.0623 -2.1460
 3385TIP3    H210162   0.178   5.973   4.693 -0.1163  1.6259  0.0933
 3386TIP3   OH210163   5.702   0.646   4.993  0.1913  0.1720  0.0468
 3386TIP3    H110164   5.742   0.563   5.017  1.1902  0.3933 -0.8022
 3386TIP3    H210165   5.772   0.710   5.000 -0.1844  0.6915 -0.7864
 3387TIP3   OH210166   0.996   4.550   4.699 -0.5043 -0.0407 -0.4159
 3387TIP3    H110167   0.987   4.601   4.780  2.1054 -3.5780  2.4075
 3387TIP3    H210168   1.060   4.599   4.647 -0.8749  1.4062  0.4272
 3388TIP3   OH210169   3.276   5.316   0.111  0.0172 -0.1874  0.3891
 3388TIP3    H110170   3.234   5.377   0.171  0.1424 -0.8624  1.1866
 3388TIP3    H210171   3.362   5.354   0.095  0.2430 -0.3345  1.1885
 3389TIP3   OH210172   2.969   2.569   0.975  0.0833  0.1543 -0.1657
 3389TIP3    H110173   2.935   2.658   0.974  1.7381  0.8857  2.0666
 3389TIP3    H210174   2.897   2.516   1.010 -0.7486  0.6467 -1.0845
 3390TIP3   OH210175   5.895   1.398   1.904 -0.1981  0.2995  0.3972
 3390TIP3    H110176   5.981   1.359   1.917 -1.2114 -2.2116  0.1107
 3390TIP3    H210177   5.856   1.401   1.991 -0.5435 -0.3896  0.2678
 3391TIP3   OH210178   2.524   1.212   4.898 -0.1519 -0.2737 -0.1712
 3391TIP3    H110179   2.580   1.176   4.829 -0.5338 -0.0760 -0.5859
 3391TIP3    H210180   2.479   1.136   4.935 -1.0602 -0.2311 -1.1362
 3392TIP3   OH210181   5.991   2.697   3.565  0.5282 -0.3999 -0.5126
 3392TIP3    H110182   6.085   2.690   3.551  0.7679 -0.1995  0.8079
 3392TIP3    H210183   5.964   2.774   3.516  1.6051  1.2934  1.4059
 3393TIP3   OH210184   1.211   4.643   0.639 -0.3124  0.3622 -0.9969
 3393TIP3    H110185   1.136   4.695   0.666  0.4016  0.6204  0.5944
 3393TIP3    H210186   1.286   4.686   0.680  0.5948 -0.4879 -1.7008
 3394TIP3   OH210187   0.078   0.339   2.030  0.0438 -0.2631 -0.2586
 3394TIP3    H110188   0.172   0.325   2.039  0.1261 -0.0217 -0.7177
 3394TIP3    H210189   0.038   0.276   2.091  0.4273 -1.9363 -1.6621
 3395TIP3   OH210190   2.398   0.038   3.429 -0.1952  0.3135 -0.7083
 3395TIP3    H110191   2.318   0.021   3.379  0.3170 -1.3999 -0.9859
 3395TIP3    H210192   2.464   0.058   3.362 -0.0700  0.4296 -0.5522
 3396TIP3   OH210193   6.025   0.834   2.998 -0.4888 -0.5758 -1.2479
 3396TIP3    H110194   5.976   0.752   2.990  0.4675 -1.1944 -0.8974
 3396TIP3    H210195   6.006   0.882   2.917 -1.1780 -1.0698 -1.3842
 3397TIP3   OH210196   4.077   2.125   1.867  0.3811 -0.1938  0.3517
 3397TIP3    H110197   4.097   2.038   1.833 -0.7783 -1.8194  3.4084
 3397TIP3    H210198   4.144   2.141   1.933 -0.6372  0.2313  1.3110
 3398TIP3   OH210199   4.442   1.455   1.469  0.5923 -0.1979  0.2836
 3398TIP3    H110200   4.532   1.433   1.492  0.6862 -0.4095 -0.2654
 3398TIP3    H210201   4.407   1.498   1.547  0.8701 -0.9607  0.8529
 3399TIP3   OH210202   4.383   2.516   3.729  0.0912 -0.1026 -0.2345
 3399TIP3    H110203   4.448   2.585   3.744  0.3077 -0.3909  0.1891
 3399TIP3    H210204   4.391   2.496   3.636 -2.8579  3.2986 -1.4533
 3400TIP3   OH210205   0.424   4.335   0.551 -0.2426  0.6106 -0.5803
 3400TIP3    H110206   0.503   4.313   0.600  0.1684  0.5027 -1.2812
 3400TIP3    H210207   0.363   4.263   0.571  0.7245 -0.6664 -2.0100
 3401TIP3   OH210208   2.460   1.062   1.082  0.7901  0.2377 -0.4393
 3401TIP3    H110209   2.380   1.095   1.124  1.2686 -1.2643  1.8721
 3401TIP3    H210210   2.522   1.135   1.087  0.3366  0.5958  0.1146
 3402TIP3   OH210211   4.188   4.992   1.857  0.2524 -0.0508 -0.4272
 3402TIP3    H110212   4.121   4.941   1.903 -0.6389  2.1465  0.8478
 3402TIP3    H210213   4.257   4.928   1.839  0.0140 -1.4069  2.6862
 3403TIP3   OH210214   1.827   1.344   3.212  0.1490  0.2718  0.2944
 3403TIP3    H110215   1.897   1.340   3.147 -0.2082 -0.6369 -0.0497
 3403TIP3    H210216   1.792   1.433   3.205  2.2037  1.2452  1.4794
 3404TIP3   OH210217   1.544   2.710   3.554 -0.0327  0.1895 -0.1125
 3404TIP3    H110218   1.621   2.690   3.500 -0.8063 -0.4195 -1.0211
 3404TIP3    H210219   1.470   2.681   3.501 -0.8600  0.2742  0.9772
 3405TIP3   OH210220   6.129   0.239   0.262  0.2448 -0.7927 -0.3826
 3405TIP3    H110221   6.106   0.164   0.317  0.3744  0.5931  1.7026
 3405TIP3    H210222   6.194   0.287   0.314  1.8670 -0.3862 -2.6294
 3406TIP3   OH210223   1.351   3.536   1.752  0.6621  0.6049  0.0877
 3406TIP3    H110224   1.347   3.465   1.688 -0.1969 -0.8582  1.6675
 3406TIP3    H210225   1.442   3.536   1.783  0.6050 -0.0072  0.2701
 3407TIP3   OH210226   2.206   0.722   0.818  0.1988 -0.0084 -0.3897
 3407TIP3    H110227   2.117   0.756   0.823  1.3586  3.4184 -0.1610
 3407TIP3    H210228   2.255   0.773   0.883  2.3911 -1.5303 -0.7295
 3408TIP3   OH210229   1.776   5.252   3.550 -0.2167 -0.1574  0.2450
 3408TIP3    H110230   1.851   5.235   3.492 -0.5491 -0.2144 -0.1695
 3408TIP3    H210231   1.810   5.313   3.616  0.3284 -0.5627  0.3441
 3409TIP3   OH210232   4.322   1.527   2.114  0.1247  0.3199  1.2034
 3409TIP3    H110233   4.261   1.503   2.184 -0.1187 -0.1634  0.8292
 3409TIP3    H210234   4.300   1.469   2.042  0.5958  0.5916  0.8353
 3410TIP3   OH210235   0.616   3.951   4.682  0.3838 -0.5743  0.8231
 3410TIP3    H110236   0.661   3.902   4.751  0.0757 -0.2446  1.2608
 3410TIP3    H210237   0.535   3.981   4.723 -0.4371 -1.4865 -0.0600
 3411TIP3   OH210238   5.935   4.967   5.080 -0.4299 -0.2919 -0.2747
 3411TIP3    H110239   5.968   4.932   5.163  0.1597 -0.6269 -0.6428
 3411TIP3    H210240   5.840   4.968   5.090 -0.3193  1.4264  1.0992
 3412TIP3   OH210241   6.319   2.758   3.230  0.6705  0.0619 -0.7104
 3412TIP3    H110242   6.283   2.686   3.282  0.3783  1.3333  0.9345
 3412TIP3    H210243   6.373   2.715   3.164  0.7945 -1.6562  0.4381
 3413TIP3   OH210244   0.560   2.969   3.639 -0.6880  0.2761  0.3131
 3413TIP3    H110245   0.529   2.909   3.571 -1.2078 -0.9528  1.5888
 3413TIP3    H210246   0.650   2.990   3.613 -0.6665 -0.6674 -0.4378
 3414TIP3   OH210247   2.469   3.654   0.916 -0.0452 -0.6292  0.0425
 3414TIP3    H110248   2.505   3.586   0.860 -0.4027 -1.9434  1.3388
 3414TIP3    H210249   2.402   3.696   0.863  0.3492 -1.1311 -0.8658
 3415TIP3   OH210250   1.638   3.564   4.909  0.4523 -0.7273  0.3219
 3415TIP3    H110251   1.559   3.611   4.936  0.8647 -0.1617  0.5628
 3415TIP3    H210252   1.698   3.573   4.984  1.3905  0.3490 -0.5133
 3416TIP3   OH210253   0.700   1.443   0.996 -0.3272 -0.4739 -0.3291
 3416TIP3    H110254   0.635   1.395   1.047 -0.6858 -0.3085 -0.6260
 3416TIP3    H210255   0.774   1.455   1.056 -0.8491 -0.0405  0.2371
 3417TIP3   OH210256   0.379   1.070   3.739 -0.1070  0.2821 -0.9255
 3417TIP3    H110257   0.347   1.066   3.829  0.8432  0.7829 -0.5499
 3417TIP3    H210258   0.474   1.075   3.747 -0.0420  1.3329 -1.9093
 3418TIP3   OH210259   2.916   1.164   2.499  0.1595 -0.0523  0.5728
 3418TIP3    H110260   2.913   1.185   2.405 -1.7665 -1.1862  0.3451
 3418TIP3    H210261   3.008   1.143   2.515  0.4501 -0.2931 -1.1695
 3419TIP3   OH210262   0.393   0.372   2.246 -0.1279  0.0285 -0.3017
 3419TIP3    H110263   0.382   0.302   2.181  3.1606  0.2116 -1.2284
 3419TIP3    H210264   0.413   0.450   2.194 -0.9468  1.0258  0.8295
 3420TIP3   OH210265   5.403   0.639   3.979  0.5105  0.6187  0.2094
 3420TIP3    H110266   5.320   0.686   3.978  0.3439  0.3467  0.8530
 3420TIP3    H210267   5.467   0.704   4.009  0.3852  0.6033  0.5158
 3421TIP3   OH210268  -0.016   0.295   0.474  0.0758  0.0873  0.7006
 3421TIP3    H110269  -0.056   0.232   0.534  1.7539 -1.0523  0.7092
 3421TIP3    H210270   0.073   0.307   0.508  1.0731 -0.5426 -1.4773
 3422TIP3   OH210271   3.809   1.438   4.519 -0.2365  0.6651  0.1071
 3422TIP3    H110272   3.743   1.440   4.588  0.2444 -1.1966  0.6826
 3422TIP3    H210273   3.830   1.345   4.509  2.6049  1.1888  0.2743
 3423TIP3   OH210274   2.626   2.851   3.720  0.5430 -0.1460 -0.1055
 3423TIP3    H110275   2.597   2.941   3.710  0.8317 -0.1003 -0.5811
 3423TIP3    H210276   2.649   2.842   3.812 -0.2387  0.0372  0.1105
 3424TIP3   OH210277   1.343   1.847   0.718  0.5513 -0.1392 -0.2556
 3424TIP3    H110278   1.308   1.806   0.639  0.0885  0.5924 -0.4399
 3424TIP3    H210279   1.378   1.931   0.688  0.7820 -0.0569  0.2421
 3425TIP3   OH210280   5.279   5.226   2.995  0.2955  0.0632  0.0816
 3425TIP3    H110281   5.344   5.280   3.042  1.2815 -0.2583 -0.8691
 3425TIP3    H210282   5.196   5.270   3.012  0.8048  0.7331  0.9953
 3426TIP3   OH210283   4.596   5.612   2.446 -0.0868 -0.3490 -0.5488
 3426TIP3    H110284   4.578   5.518   2.453 -0.6197 -0.1397  1.6520
 3426TIP3    H210285   4.683   5.623   2.483 -0.9507  0.2572  1.4348
 3427TIP3   OH210286   3.671   0.899   0.766  0.1355  0.3582  0.5129
 3427TIP3    H110287   3.753   0.926   0.806  1.2150 -0.7008 -0.8431
 3427TIP3    H210288   3.640   0.827   0.821  1.2390 -0.6266 -0.0948
 3428TIP3   OH210289   3.693   5.530   3.449 -0.4387 -0.1395 -0.5710
 3428TIP3    H110290   3.754   5.466   3.413  1.6604  2.1943 -1.4699
 3428TIP3    H210291   3.724   5.546   3.537 -2.0705 -1.5942  0.3317
 3429TIP3   OH210292   4.971   4.869   4.142  0.4308 -0.1240 -0.1459
 3429TIP3    H110293   4.890   4.908   4.174  0.2943 -1.6741  1.5530
 3429TIP3    H210294   4.955   4.775   4.144  1.9863 -0.4238 -0.5492
 3430TIP3   OH210295   6.286   4.440   3.964  0.5512 -0.0063  0.5088
 3430TIP3    H110296   6.345   4.365   3.966  0.4495 -0.0704  1.5151
 3430TIP3    H210297   6.341   4.513   3.933  1.2374 -0.0086  1.6844
 3431TIP3   OH210298   4.030   4.173   1.639 -0.8106 -0.6747 -0.3716
 3431TIP3    H110299   4.034   4.147   1.731  0.2426 -0.8686 -0.4506
 3431TIP3    H210300   3.979   4.253   1.638 -0.0418 -0.1583  0.5173
 3432TIP3   OH210301   3.798   4.668   0.598 -0.1793  0.5745  0.3443
 3432TIP3    H110302   3.711   4.677   0.638 -0.8972  2.1406 -1.4309
 3432TIP3    H210303   3.781   4.632   0.512  1.0521  0.0391  0.3052
 3433TIP3   OH210304   0.764   4.250   2.715 -0.4813  0.6230 -0.3443
 3433TIP3    H110305   0.832   4.243   2.649  0.3279  0.0860  0.5150
 3433TIP3    H210306   0.718   4.167   2.711 -0.0259  0.3362  0.1762
 3434TIP3   OH210307   4.875   5.543   2.458 -0.0710 -0.0911  0.2460
 3434TIP3    H110308   4.916   5.578   2.379  1.2917  2.3352  1.8717
 3434TIP3    H210309   4.932   5.472   2.485  1.4471  1.2649  0.7974
 3435TIP3   OH210310   2.647   2.190   1.764 -0.5126  0.3985  0.0667
 3435TIP3    H110311   2.634   2.266   1.708 -0.6543  0.2247 -0.1413
 3435TIP3    H210312   2.675   2.121   1.703 -0.9984  0.1173  0.1572
 3436TIP3   OH210313   0.786   4.541   0.925  0.1127  1.0127  0.5849
 3436TIP3    H110314   0.867   4.586   0.901 -0.7776  2.4737  0.2167
 3436TIP3    H210315   0.808   4.495   1.006  0.8490  2.8991  1.5313
 3437TIP3   OH210316   5.199   5.775   2.498 -0.0006  0.2587  0.0861
 3437TIP3    H110317   5.251   5.750   2.422 -1.4264 -0.8934 -0.5700
 3437TIP3    H210318   5.212   5.703   2.560 -0.4478  0.1869  0.0995
 3438TIP3   OH210319   5.446   1.004   2.370 -0.0477 -0.1932  0.1722
 3438TIP3    H110320   5.428   0.909   2.367  1.2332 -0.4267 -0.4209
 3438TIP3    H210321   5.522   1.016   2.314  0.9514  0.9302  1.6979
 3439TIP3   OH210322   4.852   2.825   2.864  0.0155 -0.2382 -0.4885
 3439TIP3    H110323   4.794   2.891   2.900 -0.4216 -0.2733 -1.1165
 3439TIP3    H210324   4.916   2.875   2.812  0.9490 -0.1431  0.7037
 3440TIP3   OH210325   3.427   1.527   3.641  0.2443  0.0696  0.5672
 3440TIP3    H110326   3.396   1.606   3.686  1.1219  1.9628 -1.9163
 3440TIP3    H210327   3.517   1.516   3.671 -0.2723 -0.8480  1.9053
 3441TIP3   OH210328   1.796   0.887   2.015 -0.0315  0.2490  0.0766
 3441TIP3    H110329   1.868   0.944   1.988 -0.7681  0.9404 -0.4569
 3441TIP3    H210330   1.717   0.933   1.988 -0.7084 -0.2273  1.1659
 3442TIP3   OH210331   1.472   3.580   4.358  0.0432 -0.4919  0.5003
 3442TIP3    H110332   1.444   3.498   4.398  0.6050  0.2108  2.4580
 3442TIP3    H210333   1.567   3.570   4.347  0.0815 -0.1959  0.5385
 3443TIP3   OH210334   4.621   3.456   2.538 -0.6240 -0.0423  0.0478
 3443TIP3    H110335   4.585   3.416   2.618  1.1561  0.8327  1.3705
 3443TIP3    H210336   4.681   3.523   2.570 -2.3276  2.7201 -2.0736
 3444TIP3   OH210337   5.670   3.148   0.795  0.1177  0.0032  0.5319
 3444TIP3    H110338   5.696   3.201   0.871 -0.6062  0.6545  0.3330
 3444TIP3    H210339   5.615   3.206   0.743 -0.3442 -0.8125  0.0920
 3445TIP3   OH210340   2.347   2.871   1.902 -0.4394 -0.1601 -0.2874
 3445TIP3    H110341   2.301   2.952   1.879 -1.6481 -1.6317 -3.7108
 3445TIP3    H210342   2.437   2.885   1.875 -0.6915  0.0058 -1.0679
 3446TIP3   OH210343   1.178   3.212   4.293 -0.5824 -0.0168  0.1200
 3446TIP3    H110344   1.105   3.153   4.310 -0.9080  0.2580 -0.3012
 3446TIP3    H210345   1.243   3.157   4.248 -0.9216 -0.0312 -0.3533
 3447TIP3   OH210346   1.516   0.569   1.391  0.1341  0.1289  0.6092
 3447TIP3    H110347   1.589   0.596   1.448  0.7154  0.3168 -0.1961
 3447TIP3    H210348   1.521   0.629   1.317 -1.2074  0.5136  0.8045
 3448TIP3   OH210349   3.066   2.528   4.644 -0.0813 -0.0047  0.0206
 3448TIP3    H110350   3.004   2.507   4.574 -1.4306  0.1040  1.1636
 3448TIP3    H210351   3.031   2.486   4.722  1.5761 -0.4027  0.6057
 3449TIP3   OH210352   5.213   5.564   2.856  0.2655 -0.6956 -0.3279
 3449TIP3    H110353   5.131   5.612   2.869  0.2556 -1.1526  1.5674
 3449TIP3    H210354   5.270   5.625   2.811 -0.3523  0.4586  0.4050
 3450TIP3   OH210355   1.777   4.058   0.524  0.1555 -0.1993 -0.7750
 3450TIP3    H110356   1.777   4.139   0.473 -0.1642  0.3174  0.0272
 3450TIP3    H210357   1.848   4.069   0.587 -0.7381  0.0421  0.2175
 3451TIP3   OH210358   1.686   2.632   1.828 -0.0438  0.4572  0.4730
 3451TIP3    H110359   1.776   2.657   1.848 -0.0723  0.1384  1.0227
 3451TIP3    H210360   1.661   2.573   1.899  0.2654 -1.7074 -1.0803
 3452TIP3   OH210361   0.038   0.050   2.588 -0.2795  0.1395 -0.1040
 3452TIP3    H110362   0.059   0.109   2.660  0.6349 -0.0033 -0.2459
 3452TIP3    H210363   0.119   0.002   2.572 -0.1862  0.7854 -1.7961
 3453TIP3   OH210364   1.448   5.651   2.097 -0.2346  0.0059 -0.1559
 3453TIP3    H110365   1.395   5.594   2.041  2.2663 -1.4418 -1.2045
 3453TIP3    H210366   1.468   5.726   2.042  1.8124 -1.1919 -1.1957
 3454TIP3   OH210367   2.381   0.747   2.737  0.3372  0.4025 -0.0105
 3454TIP3    H110368   2.367   0.653   2.735  2.3364  0.0443  0.2366
 3454TIP3    H210369   2.308   0.782   2.789 -2.5178 -0.5120 -3.0745
 3455TIP3   OH210370   3.576   3.718   5.113 -0.3237 -0.3936 -0.1540
 3455TIP3    H110371   3.584   3.787   5.048 -0.1045 -0.6797 -0.4319
 3455TIP3    H210372   3.495   3.739   5.160 -0.4418 -0.1446 -0.4648
 3456TIP3   OH210373   2.107   3.203   3.199  0.0274  0.5393 -0.0776
 3456TIP3    H110374   2.095   3.217   3.293  0.5876  1.1590 -0.0940
 3456TIP3    H210375   2.181   3.259   3.175  0.2109  0.0094 -0.7930
 3457TIP3   OH210376   4.863   0.199   0.388  0.9648  0.1306  0.8848
 3457TIP3    H110377   4.905   0.134   0.444 -0.1468 -0.7145  0.7747
 3457TIP3    H210378   4.907   0.189   0.303  0.2480 -1.0863  0.6322
 3458TIP3   OH210379   3.653   4.766   3.788  0.1443  0.5589  0.0984
 3458TIP3    H110380   3.671   4.673   3.773  2.4762  1.0363 -0.4286
 3458TIP3    H210381   3.561   4.776   3.765 -0.9486 -2.0797  2.6426
 3459TIP3   OH210382   4.503   0.332   0.717  0.1287 -0.1979  0.2360
 3459TIP3    H110383   4.507   0.417   0.760 -0.1679  0.4737 -0.9947
 3459TIP3    H210384   4.584   0.327   0.667 -0.2965 -0.1871 -0.4715
 3460TIP3   OH210385   5.508   0.867   0.953 -0.0249  1.0799  0.5411
 3460TIP3    H110386   5.460   0.785   0.963  0.3721  0.9641  1.6575
 3460TIP3    H210387   5.505   0.885   0.859  1.1155 -0.9543  0.0612
 3461TIP3   OH210388   2.796   2.728   4.723 -0.8508  0.1667  0.2863
 3461TIP3    H110389   2.765   2.730   4.632 -0.5917  0.3416  0.1983
 3461TIP3    H210390   2.892   2.733   4.715 -0.4641 -3.8799  0.3792
 3462TIP3   OH210391   1.484   1.792   2.636  0.3960  0.1901  0.5566
 3462TIP3    H110392   1.393   1.763   2.641  0.6025 -0.3190  2.3156
 3462TIP3    H210393   1.535   1.712   2.648  1.0216  0.8070  2.2944
 3463TIP3   OH210394   4.932   0.875   3.901  0.3289  0.5761  0.5312
 3463TIP3    H110395   4.888   0.849   3.820  1.2582  0.5013  0.0441
 3463TIP3    H210396   4.899   0.963   3.919 -1.0423  0.0176  0.9132
 3464TIP3   OH210397   3.920   3.558   0.563 -0.0714 -0.6273  0.6559
 3464TIP3    H110398   3.942   3.605   0.483 -1.3065  1.3362  1.4022
 3464TIP3    H210399   3.852   3.495   0.536 -2.2510  1.6404  0.4666
 3465TIP3   OH210400   3.977   2.662   3.493 -0.4105  0.2594  0.1847
 3465TIP3    H110401   3.916   2.720   3.449 -1.4652 -0.5513  0.5426
 3465TIP3    H210402   4.051   2.718   3.517 -0.4299  0.9931 -1.3683
 3466TIP3   OH210403   0.518   1.692   3.688  0.1420 -0.0147  0.0823
 3466TIP3    H110404   0.510   1.720   3.597  0.7626  1.8248  0.5496
 3466TIP3    H210405   0.428   1.674   3.716 -0.2472  1.0151 -0.4437
 3467TIP3   OH210406   6.109   3.072   0.443 -0.5649  0.3627  0.2730
 3467TIP3    H110407   6.100   3.042   0.353 -0.1871  1.1510 -0.0290
 3467TIP3    H210408   6.046   3.018   0.492  0.1448 -0.9870 -0.2267
 3468TIP3   OH210409   2.683   2.372   1.583 -0.3770 -0.0497  0.0896
 3468TIP3    H110410   2.697   2.466   1.578 -0.7633  0.0056  0.0023
 3468TIP3    H210411   2.765   2.333   1.553 -0.0414  0.2558  0.5908
 3469TIP3   OH210412   5.880   0.932   3.615 -0.5815 -0.5018 -0.3242
 3469TIP3    H110413   5.813   0.917   3.549  1.8921 -0.1970 -3.1429
 3469TIP3    H210414   5.925   1.012   3.586  0.8530 -0.5801  1.5064
 3470TIP3   OH210415   2.601   5.291   3.972 -0.6093 -0.6945  0.1753
 3470TIP3    H110416   2.616   5.202   3.940  0.4448 -1.0665  1.5782
 3470TIP3    H210417   2.581   5.342   3.894  0.6281 -1.7864 -0.8948
 3471TIP3   OH210418   1.132   5.418   2.905  0.0651 -0.4395 -0.0109
 3471TIP3    H110419   1.042   5.434   2.876  0.0642 -1.1990 -0.4555
 3471TIP3    H210420   1.159   5.500   2.947 -1.1452 -0.5113  0.9584
 3472TIP3   OH210421   3.328   5.516   2.866 -0.0335  0.4448  0.3876
 3472TIP3    H110422   3.267   5.589   2.872 -0.7764 -0.2457  2.5377
 3472TIP3    H210423   3.380   5.533   2.787  0.5985  3.8728  1.3609
 3473TIP3   OH210424   1.928   5.752   0.483 -0.5062 -0.4190  0.0611
 3473TIP3    H110425   1.903   5.677   0.537 -0.9426  0.9434  1.8487
 3473TIP3    H210426   2.002   5.791   0.529  1.6260 -1.3463 -2.3758
 3474TIP3   OH210427   5.406   4.780   2.851  0.0300  0.3572 -0.0323
 3474TIP3    H110428   5.363   4.751   2.932  0.1138 -0.1733 -0.1732
 3474TIP3    H210429   5.361   4.860   2.827 -0.0535  0.4700  0.4966
 3475TIP3   OH210430   1.074   4.005   1.438 -0.4099  0.4534 -0.7841
 3475TIP3    H110431   1.014   4.069   1.474 -0.6307 -0.2516  0.1574
 3475TIP3    H210432   1.019   3.929   1.417  0.2806 -0.8275  1.6013
 3476TIP3   OH210433   5.063   1.453   3.579  0.5664  0.0125  0.1158
 3476TIP3    H110434   5.083   1.490   3.665 -0.5863  2.9624 -0.7646
 3476TIP3    H210435   5.026   1.367   3.598  1.4148  0.0968  2.4861
 3477TIP3   OH210436   3.283   5.370   4.505  0.9645 -0.5481  0.2175
 3477TIP3    H110437   3.291   5.381   4.600 -3.3100 -2.9748  1.1055
 3477TIP3    H210438   3.296   5.276   4.491 -0.2972 -0.5320 -1.2727
 3478TIP3   OH210439   1.320   4.419   1.757 -1.0091 -0.1851  0.1138
 3478TIP3    H110440   1.290   4.386   1.672  1.7213  0.6600 -1.3224
 3478TIP3    H210441   1.337   4.341   1.809 -0.2389 -0.8806 -1.1124
 3479TIP3   OH210442   3.595   3.520   1.117  0.3778 -0.2358 -0.4020
 3479TIP3    H110443   3.652   3.515   1.040 -0.1552  1.3388 -0.9430
 3479TIP3    H210444   3.580   3.614   1.129  0.0474 -0.4816  1.3389
 3480TIP3   OH210445   4.701   0.540   3.465 -0.1338  0.0945 -0.4116
 3480TIP3    H110446   4.636   0.603   3.495 -0.1491  0.5292 -1.3172
 3480TIP3    H210447   4.718   0.485   3.541 -0.8702  0.5569  0.1020
 3481TIP3   OH210448   3.008   2.028   2.156 -0.0085 -0.2391  0.4611
 3481TIP3    H110449   2.912   2.034   2.147 -0.0035 -1.1031 -0.3021
 3481TIP3    H210450   3.040   2.027   2.066  1.0612  3.9343  0.5618
 3482TIP3   OH210451   2.589   2.979   2.287 -0.7168  0.3036  0.3781
 3482TIP3    H110452   2.569   2.892   2.256  0.4904 -0.1720  0.8510
 3482TIP3    H210453   2.660   3.010   2.230 -1.6613  1.3089 -0.2967
 3483TIP3   OH210454   2.014   4.130   0.670  0.8220 -0.1708 -0.2257
 3483TIP3    H110455   1.997   4.090   0.754  0.9875 -1.7848 -0.9323
 3483TIP3    H210456   2.108   4.123   0.658  0.6101 -1.5058 -1.2761
 3484TIP3   OH210457   0.844   2.706   1.746 -0.0211 -0.3934  0.3709
 3484TIP3    H110458   0.853   2.617   1.780 -0.6427 -1.4844 -2.0583
 3484TIP3    H210459   0.910   2.756   1.792  2.3198 -2.7567 -0.1482
 3485TIP3   OH210460   2.074   4.456   4.743  0.0067 -0.3904  0.2085
 3485TIP3    H110461   2.013   4.500   4.684  0.1084 -1.4880 -0.7456
 3485TIP3    H210462   2.153   4.510   4.740 -0.2538 -0.0193 -0.0614
 3486TIP3   OH210463   6.202   5.939   4.443  0.2672 -0.0372  0.4381
 3486TIP3    H110464   6.219   6.011   4.504 -1.6281  1.3942 -0.6208
 3486TIP3    H210465   6.288   5.919   4.406  0.7405  2.4449 -0.0032
 3487TIP3   OH210466   0.795   1.069   0.882  0.0483  0.1425 -0.2665
 3487TIP3    H110467   0.858   1.054   0.812  0.9507 -0.3457  0.6303
 3487TIP3    H210468   0.738   1.138   0.848  0.8168  0.3158 -1.2537
 3488TIP3   OH210469   2.195   1.802   1.119 -0.1204  0.1144  0.1383
 3488TIP3    H110470   2.114   1.754   1.105 -0.2980  0.6802 -0.8994
 3488TIP3    H210471   2.215   1.840   1.033  1.6679 -0.6533  0.1723
 3489TIP3   OH210472   3.272   0.870   2.233  0.3723 -0.6454  0.5351
 3489TIP3    H110473   3.285   0.779   2.257 -0.8269 -1.2273 -0.9089
 3489TIP3    H210474   3.181   0.888   2.254  0.4946  0.1051  0.4524
 3490TIP3   OH210475   3.719   2.126   2.579  0.8811 -0.5587 -0.8750
 3490TIP3    H110476   3.670   2.078   2.646  1.0226 -0.5026 -0.7324
 3490TIP3    H210477   3.694   2.217   2.591  1.1734 -0.5027 -0.6695
 3491TIP3   OH210478   4.464   5.124   4.985 -0.0277 -0.5723 -0.1203
 3491TIP3    H110479   4.544   5.146   4.938 -0.0746 -0.3508 -0.0968
 3491TIP3    H210480   4.411   5.076   4.921 -0.2739  0.1061 -0.4274
 3492TIP3   OH210481   5.706   1.906   4.962  0.2427 -0.8060  0.1991
 3492TIP3    H110482   5.768   1.979   4.966  0.1937 -0.7319  4.4437
 3492TIP3    H210483   5.760   1.830   4.941  0.8029 -0.0252 -1.3245
 3493TIP3   OH210484   1.760   0.557   0.907  0.3938 -0.4003  0.3204
 3493TIP3    H110485   1.847   0.551   0.945 -0.1030 -0.4017  1.5115
 3493TIP3    H210486   1.713   0.480   0.941  0.0152 -0.5948 -0.5809
 3494TIP3   OH210487   5.835   0.206   0.664 -0.0482 -0.6812  0.2117
 3494TIP3    H110488   5.813   0.220   0.756  0.2933 -1.7238  0.4717
 3494TIP3    H210489   5.789   0.126   0.640  1.4991 -1.5777  0.0939
 3495TIP3   OH210490   0.812   3.210   4.282 -0.3583  0.0077 -0.2022
 3495TIP3    H110491   0.739   3.223   4.221  0.5866 -1.8951 -1.8514
 3495TIP3    H210492   0.790   3.129   4.328 -0.3882  0.6992  1.0496
 3496TIP3   OH210493   0.710   4.878   3.822 -0.1385 -0.0129 -0.5062
 3496TIP3    H110494   0.730   4.825   3.899 -0.5755  1.0655  0.3737
 3496TIP3    H210495   0.779   4.944   3.819 -1.4353  1.4671  0.4330
 3497TIP3   OH210496   1.789   2.258   3.721 -0.0453 -0.4871  0.5465
 3497TIP3    H110497   1.791   2.279   3.627 -1.9408 -0.3692  0.4875
 3497TIP3    H210498   1.726   2.186   3.727  0.5230 -0.9016  1.6683
 3498TIP3   OH210499   4.686   4.163   4.934  0.3124 -0.4881  0.4609
 3498TIP3    H110500   4.781   4.166   4.929  0.3733 -1.9990  0.1832
 3498TIP3    H210501   4.661   4.091   4.876 -1.1130  0.8126 -0.6360
 3499TIP3   OH210502   2.353   1.826   1.684  0.4572 -0.2049  0.5038
 3499TIP3    H110503   2.318   1.748   1.728  0.3407 -1.7447 -2.1122
 3499TIP3    H210504   2.448   1.815   1.687  0.4277 -0.8683 -0.4781
 3500TIP3   OH210505   2.014   2.939   1.911 -0.3218 -0.4195 -0.1381
 3500TIP3    H110506   2.010   3.022   1.958 -0.5594 -0.0996 -0.7103
 3500TIP3    H210507   2.037   2.964   1.821 -0.8129 -0.9347 -0.4079
 3501TIP3   OH210508   4.363   4.726   1.804 -0.5014  0.1585 -0.3828
 3501TIP3    H110509   4.360   4.650   1.862  0.1666  0.0948 -0.4165
 3501TIP3    H210510   4.452   4.761   1.816 -1.0538  1.3971  0.2285
 3502TIP3   OH210511   1.490   1.312   4.208 -0.1916  0.3617 -0.5167
 3502TIP3    H110512   1.483   1.383   4.272 -0.0831 -0.3321  0.2814
 3502TIP3    H210513   1.559   1.340   4.148 -1.4510  1.8053 -1.3801
 3503TIP3   OH210514   5.032   5.876   0.467  0.1554 -0.1707 -0.2353
 3503TIP3    H110515   4.963   5.814   0.486 -0.7155  0.1736 -2.1002
 3503TIP3    H210516   5.082   5.836   0.396  0.8985  0.3213 -0.0099
 3504TIP3   OH210517   2.682   0.468   0.236 -0.2836 -0.0752 -0.2274
 3504TIP3    H110518   2.588   0.463   0.221 -0.3650  0.3053  0.1282
 3504TIP3    H210519   2.712   0.538   0.178 -0.1696 -0.4113 -0.5732
 3505TIP3   OH210520   2.978   1.974   1.510  0.3505  0.1439  0.0909
 3505TIP3    H110521   3.071   1.992   1.514  0.5240 -0.1192 -1.6878
 3505TIP3    H210522   2.972   1.888   1.467 -0.6817 -0.4939  1.4276
 3506TIP3   OH210523   0.092   1.376   0.894 -0.1244 -0.6767  0.3910
 3506TIP3    H110524   0.129   1.323   0.964 -2.2776  0.7230  2.7376
 3506TIP3    H210525   0.022   1.322   0.856 -1.6243 -0.0111  2.0859
 3507TIP3   OH210526   6.289   0.725   0.371  0.3009  0.1424  0.3757
 3507TIP3    H110527   6.217   0.687   0.421  0.3299  0.8847  0.9937
 3507TIP3    H210528   6.333   0.650   0.332 -1.1815 -0.3017 -0.5522
 3508TIP3   OH210529   2.743   4.359   0.989 -0.4970 -0.2204  0.3149
 3508TIP3    H110530   2.750   4.281   0.935 -0.3336  0.7002 -1.0439
 3508TIP3    H210531   2.756   4.432   0.928  1.2306  0.8303  1.8492
 3509TIP3   OH210532   1.800   3.095   2.700 -0.2948  0.2172 -0.0996
 3509TIP3    H110533   1.886   3.086   2.741  0.0038  0.6623 -0.6153
 3509TIP3    H210534   1.794   3.021   2.640 -0.1841  0.3110 -0.2249
 3510TIP3   OH210535   3.703   5.241   4.955  0.3089 -0.1931  0.0017
 3510TIP3    H110536   3.751   5.197   5.025  2.3406  0.2838 -0.9991
 3510TIP3    H210537   3.766   5.305   4.920 -1.2655  0.8442 -1.0499
 3511TIP3   OH210538   0.289   2.987   3.747 -0.6010 -0.7871 -0.2487
 3511TIP3    H110539   0.385   2.985   3.740 -0.5902 -0.4717 -0.1877
 3511TIP3    H210540   0.271   2.933   3.824 -0.4035 -0.0106  0.3612
 3512TIP3   OH210541   2.527   4.290   3.129 -0.4162  0.2690 -0.2143
 3512TIP3    H110542   2.554   4.199   3.114  2.4899  0.8212  0.9568
 3512TIP3    H210543   2.543   4.333   3.045 -0.2882  0.0023 -0.3288
 3513TIP3   OH210544   5.816   2.925   0.450  0.0678  0.0451 -0.4104
 3513TIP3    H110545   5.723   2.912   0.470  0.6394  0.4411  3.0074
 3513TIP3    H210546   5.842   2.843   0.407 -1.3606 -1.0384  0.6912
 3514TIP3   OH210547   4.532   1.781   4.677  0.0800 -0.1681  0.4935
 3514TIP3    H110548   4.527   1.736   4.593 -0.6106  0.4029  0.2094
 3514TIP3    H210549   4.623   1.774   4.704  0.4110  0.0366 -0.5315
 3515TIP3   OH210550   4.868   3.056   3.179  0.2799  0.5334 -0.3093
 3515TIP3    H110551   4.912   2.973   3.164  0.8208  0.7816 -0.1329
 3515TIP3    H210552   4.886   3.107   3.099 -2.1889 -0.4076 -1.5500
 3516TIP3   OH210553   1.158   0.762   1.731  0.1848  0.2833  0.3689
 3516TIP3    H110554   1.209   0.709   1.791  0.7520  0.2688 -0.1113
 3516TIP3    H210555   1.149   0.847   1.775 -1.2819 -0.3764  1.4247
 3517TIP3   OH210556   2.594   0.271   4.110  0.2629 -0.1952 -0.5240
 3517TIP3    H110557   2.688   0.283   4.095  0.1021  0.5777 -0.9616
 3517TIP3    H210558   2.584   0.177   4.122  0.9279 -0.4568 -1.7791
 3518TIP3   OH210559   0.295   1.541   5.069 -0.3952 -0.6317 -0.5786
 3518TIP3    H110560   0.246   1.504   5.143 -0.6735  1.9260  0.6314
 3518TIP3    H210561   0.380   1.496   5.073 -0.9231 -1.6238  0.3369
 3519TIP3   OH210562   3.360   0.399   2.199  0.9423  0.0213  0.0829
 3519TIP3    H110563   3.312   0.439   2.126 -0.3254 -0.6059  0.5373
 3519TIP3    H210564   3.439   0.364   2.159  1.5073  1.8882 -0.5345
 3520TIP3   OH210565   0.559   4.722   3.337  0.0096 -0.6221 -0.5775
 3520TIP3    H110566   0.535   4.813   3.319  0.4304 -0.2969  0.4665
 3520TIP3    H210567   0.616   4.727   3.413  0.1980 -1.7481 -0.6383
 3521TIP3   OH210568   1.885   0.163   3.086  0.3529 -0.5157  0.0901
 3521TIP3    H110569   1.884   0.084   3.032  1.3053 -0.8519  0.5307
 3521TIP3    H210570   1.797   0.168   3.122  0.7646 -2.4769  1.5681
 3522TIP3   OH210571   5.105   0.525   3.824  0.7146 -0.1826  1.3200
 3522TIP3    H110572   5.052   0.583   3.770  0.4147 -0.5566  1.2119
 3522TIP3    H210573   5.169   0.487   3.762 -0.5533 -1.7402  0.9027
 3523TIP3   OH210574   6.241   1.076   0.555 -0.2065  0.1639 -0.4952
 3523TIP3    H110575   6.159   1.079   0.506 -0.6827 -2.6430 -0.0117
 3523TIP3    H210576   6.221   1.024   0.633  2.0293 -0.6423 -0.3769
 3524TIP3   OH210577   3.250   2.635   4.458  0.2237  0.2751 -0.2599
 3524TIP3    H110578   3.200   2.577   4.515  0.7739  0.3475  0.3179
 3524TIP3    H210579   3.267   2.583   4.380  0.8507 -0.4211  0.3180
 3525TIP3   OH210580   0.687   0.699   0.892  0.0100 -0.3773  0.3316
 3525TIP3    H110581   0.776   0.727   0.873  0.1420  0.2439  1.7287
 3525TIP3    H210582   0.639   0.716   0.811  0.7204  1.2357  0.1977
 3526TIP3   OH210583   3.689   2.861   0.972  0.7252 -0.5314  0.0790
 3526TIP3    H110584   3.650   2.829   1.053  0.8200 -2.5382 -0.6138
 3526TIP3    H210585   3.777   2.889   0.997  0.4778 -0.3609  0.8003
 3527TIP3   OH210586   2.550   4.393   1.183 -0.5369 -0.2708 -0.2134
 3527TIP3    H110587   2.626   4.361   1.134  1.1042  2.0622  0.6473
 3527TIP3    H210588   2.506   4.453   1.123 -1.2287 -0.9523 -0.4022
 3528TIP3   OH210589   1.790   5.877   3.411 -0.5362  0.3935 -0.3171
 3528TIP3    H110590   1.721   5.935   3.381 -2.0153 -0.8137  0.5632
 3528TIP3    H210591   1.747   5.792   3.423  0.1727  0.3849  3.6822
 3529TIP3   OH210592   2.331   3.333   2.922 -0.1848 -0.2713 -0.3342
 3529TIP3    H110593   2.400   3.360   2.861  1.1424 -1.3132  0.6511
 3529TIP3    H210594   2.352   3.377   3.004  0.5187 -2.1481  0.5506
 3530TIP3   OH210595   1.951   5.199   4.575  0.1066 -0.3148 -0.2397
 3530TIP3    H110596   1.883   5.257   4.542  0.2682  0.1533  0.2359
 3530TIP3    H210597   1.918   5.169   4.660  0.3850 -0.2774 -0.1169
 3531TIP3   OH210598   5.165   1.079   2.327 -0.5796 -0.2385 -0.0518
 3531TIP3    H110599   5.258   1.084   2.308  0.0834 -0.6330  2.6865
 3531TIP3    H210600   5.160   1.035   2.412 -3.2302  0.3007  0.1544
 3532TIP3   OH210601   4.354   0.078   2.234 -0.1578 -0.1643 -0.0426
 3532TIP3    H110602   4.340   0.136   2.308  0.6715  0.5175 -0.4071
 3532TIP3    H210603   4.281   0.097   2.174 -0.3787 -0.1374  0.2363
 3533TIP3   OH210604   0.124   2.699   0.793 -0.4755  0.2710  0.3556
 3533TIP3    H110605   0.189   2.720   0.860  0.1131 -1.6039  0.4089
 3533TIP3    H210606   0.045   2.677   0.842 -0.0121 -1.2131  0.4844
 3534TIP3   OH210607   0.552   0.680   1.455 -0.4023 -0.1565  0.1676
 3534TIP3    H110608   0.548   0.645   1.544  0.3987  0.9032  0.6429
 3534TIP3    H210609   0.620   0.747   1.458  0.1162 -0.5586 -1.4201
 3535TIP3   OH210610   1.360   4.057   2.404  0.1884  0.2830  0.2883
 3535TIP3    H110611   1.428   4.030   2.465  2.1877  1.0798 -1.4451
 3535TIP3    H210612   1.394   4.032   2.318 -1.4535  1.2515 -0.6991
 3536TIP3   OH210613   2.367   3.809   1.461  0.1140 -0.2553  0.1222
 3536TIP3    H110614   2.421   3.888   1.464  1.8251 -1.3344 -0.7279
 3536TIP3    H210615   2.359   3.788   1.368 -1.4354 -0.3775  0.2615
 3537TIP3   OH210616   4.780   4.899   1.403  0.0343  0.4977  0.2332
 3537TIP3    H110617   4.866   4.896   1.444  0.6843 -1.3797 -1.1372
 3537TIP3    H210618   4.725   4.947   1.466  1.9788  1.4985  1.2475
 3538TIP3   OH210619   2.644   4.165   1.673 -0.6163  0.3864 -0.0923
 3538TIP3    H110620   2.617   4.136   1.760 -0.2115 -0.5253 -0.2545
 3538TIP3    H210621   2.570   4.146   1.616 -0.0831 -1.0832 -0.3352
 3539TIP3   OH210622   6.242   2.210   2.560 -0.2159  0.2790 -0.4323
 3539TIP3    H110623   6.193   2.133   2.588 -1.3759  0.5216 -1.7249
 3539TIP3    H210624   6.198   2.283   2.604 -0.4435  0.4125 -0.8857
 3540TIP3   OH210625   0.067   5.305   4.636 -0.0715  0.2726 -0.1978
 3540TIP3    H110626   0.028   5.264   4.714 -1.2849 -0.3196 -1.0856
 3540TIP3    H210627   0.133   5.242   4.606 -0.4499 -0.0568 -0.3424
 3541TIP3   OH210628   0.510   1.863   1.884  0.6780 -0.8402  0.6406
 3541TIP3    H110629   0.423   1.821   1.883  0.4468 -0.3760 -0.6077
 3541TIP3    H210630   0.491   1.957   1.885  1.0788 -0.6428 -2.1630
 3542TIP3   OH210631   0.935   2.102   2.649  0.0825  0.3151  0.6352
 3542TIP3    H110632   0.965   2.177   2.598 -1.2511  0.6491  0.2895
 3542TIP3    H210633   1.012   2.072   2.697  0.5251  2.1965  1.1513
 3543TIP3   OH210634   2.506   1.532   0.778 -0.3118  0.9316  0.1046
 3543TIP3    H110635   2.568   1.460   0.762 -1.0908  0.2284  0.2185
 3543TIP3    H210636   2.421   1.497   0.752 -1.2233  0.6970  3.0164
 3544TIP3   OH210637   4.485   5.601   0.184  0.5529  0.7443  0.3211
 3544TIP3    H110638   4.493   5.572   0.275 -0.8633 -1.8611 -0.3028
 3544TIP3    H210639   4.550   5.549   0.137 -3.2703 -3.2606 -1.1155
 3545TIP3   OH210640   5.856   0.767   4.039  0.0646 -0.0342 -0.0732
 3545TIP3    H110641   5.768   0.752   4.006 -0.0252 -0.1911  0.2338
 3545TIP3    H210642   5.908   0.789   3.961  0.5136 -3.1598 -0.8116
 3546TIP3   OH210643   0.092   0.288   4.435 -0.3911  0.1704 -0.4839
 3546TIP3    H110644   0.055   0.319   4.352  0.7455 -0.5358 -1.2707
 3546TIP3    H210645   0.083   0.193   4.431 -1.4813  0.1904  0.7797
 3547TIP3   OH210646   4.705   1.142   3.483  0.0980  0.5233  0.2912
 3547TIP3    H110647   4.663   1.083   3.420  0.1942  0.9610 -0.1929
 3547TIP3    H210648   4.679   1.229   3.454  0.0853  0.7253  0.9071
 3548TIP3   OH210649   0.747   5.776   4.558 -0.6403  0.6512  0.4255
 3548TIP3    H110650   0.793   5.851   4.595  0.8770 -0.1765  0.3190
 3548TIP3    H210651   0.696   5.741   4.631  0.9003  0.1116  1.2983
 3549TIP3   OH210652   5.423   0.310   1.944  0.1573 -0.1579  0.2715
 3549TIP3    H110653   5.494   0.325   1.882 -1.3728 -0.2005 -1.6062
 3549TIP3    H210654   5.398   0.219   1.930 -1.2700  0.2903 -0.2807
 3550TIP3   OH210655   0.453   0.706   4.255 -0.2549  0.4516  0.3177
 3550TIP3    H110656   0.407   0.718   4.338 -1.9618 -2.1713 -0.1248
 3550TIP3    H210657   0.545   0.693   4.280 -0.7601 -0.4390  1.8419
 3551TIP3   OH210658   2.686   2.422   2.083  0.3027  0.1752 -0.7894
 3551TIP3    H110659   2.722   2.390   2.166  0.0512 -0.1945 -0.8207
 3551TIP3    H210660   2.743   2.383   2.017 -0.8118 -1.3366 -0.8990
 3552TIP3   OH210661   5.434   5.429   4.945 -0.5380 -0.4033  0.5302
 3552TIP3    H110662   5.371   5.384   4.889 -0.7995  0.8367 -0.2129
 3552TIP3    H210663   5.438   5.518   4.910  1.5040 -0.3922  0.6804
 3553TIP3   OH210664   3.755   4.458   3.509  0.4420 -0.2210  0.2445
 3553TIP3    H110665   3.803   4.455   3.591  0.8881  0.8817  0.0405
 3553TIP3    H210666   3.727   4.549   3.501  0.0220 -0.4134 -0.6126
 3554TIP3   OH210667   1.064   0.298   0.536  0.2034 -0.4900  0.4330
 3554TIP3    H110668   1.065   0.203   0.526  1.4551 -0.2782 -2.1818
 3554TIP3    H210669   1.008   0.313   0.612 -2.5450 -3.1739 -0.8367
 3555TIP3   OH210670   4.146   0.076   1.551  0.2300  0.6528 -0.1677
 3555TIP3    H110671   4.066   0.067   1.500  0.4450  0.4336 -0.4661
 3555TIP3    H210672   4.161  -0.011   1.588 -0.0624  0.8715  0.4741
 3556TIP3   OH210673   3.795   2.764   1.731  0.4647 -0.5239 -0.5465
 3556TIP3    H110674   3.754   2.850   1.720 -1.0506 -1.3040 -1.3097
 3556TIP3    H210675   3.734   2.715   1.787  0.8607 -1.3806 -0.8408
 3557TIP3   OH210676   5.484   2.040   2.779 -0.5373 -0.3566 -0.0838
 3557TIP3    H110677   5.419   2.079   2.722  0.8487 -0.2155 -1.6345
 3557TIP3    H210678   5.537   2.114   2.809 -0.5356 -0.5670  0.4433
 3558TIP3   OH210679   5.556   3.764   2.845 -0.6794 -0.3029  0.7363
 3558TIP3    H110680   5.620   3.762   2.774 -0.2304 -0.7114  1.1528
 3558TIP3    H210681   5.584   3.837   2.901  0.4391 -1.5237  1.8434
 3559TIP3   OH210682   5.727   1.297   0.055  0.2937  0.5563  0.2670
 3559TIP3    H110683   5.700   1.217   0.100 -0.3943  0.4040 -0.3949
 3559TIP3    H210684   5.755   1.356   0.125 -1.1570  0.4861  0.9341
 3560TIP3   OH210685   1.667   5.744   3.120  0.6258 -0.2756 -0.2011
 3560TIP3    H110686   1.728   5.686   3.165  1.7398  0.0266 -1.2710
 3560TIP3    H210687   1.715   5.774   3.042 -0.8730  0.0126 -1.0491
 3561TIP3   OH210688   2.978   5.247  -0.007  0.7281 -0.5824 -0.7077
 3561TIP3    H110689   2.912   5.294   0.044  0.9575  0.1814 -1.0917
 3561TIP3    H210690   2.964   5.155   0.015 -0.3062 -0.4186 -0.5958
 3562TIP3   OH210691   2.467   2.208   0.936  0.1230 -0.1329  0.1930
 3562TIP3    H110692   2.372   2.218   0.943 -0.1084 -1.6970 -0.3302
 3562TIP3    H210693   2.486   2.222   0.844  0.0497 -2.0830 -0.1694
 3563TIP3   OH210694   4.633   5.497   3.968  0.3959 -0.3239 -0.0243
 3563TIP3    H110695   4.584   5.508   3.886  0.4974  0.9728  0.0719
 3563TIP3    H210696   4.566   5.487   4.035  0.2387  1.1615  0.0672
 3564TIP3   OH210697   4.365   5.331   3.295 -0.0294 -0.6656 -0.0941
 3564TIP3    H110698   4.299   5.386   3.337  0.6048 -0.3207  0.4632
 3564TIP3    H210699   4.424   5.306   3.366  2.0602  1.3449 -0.9970
 3565TIP3   OH210700   0.471   2.983   1.365  0.2037 -0.7023  0.2521
 3565TIP3    H110701   0.429   3.042   1.303  1.3231  1.1113  1.1213
 3565TIP3    H210702   0.469   2.898   1.322 -0.5695  0.1531 -1.5237
 3566TIP3   OH210703   1.193   2.521   4.805  0.1575  0.7547 -0.6933
 3566TIP3    H110704   1.123   2.461   4.829  1.2326 -0.2207  0.0682
 3566TIP3    H210705   1.255   2.468   4.754 -0.1209  1.8405 -2.2637
 3567TIP3   OH210706   2.059   1.725   1.411 -0.2288 -0.3939 -0.2120
 3567TIP3    H110707   2.047   1.682   1.496  0.5182 -1.4690 -0.6214
 3567TIP3    H210708   1.976   1.714   1.366 -0.4453 -0.3152  0.1637
 3568TIP3   OH210709   2.847   2.208   1.957 -0.1973  1.1174 -0.0383
 3568TIP3    H110710   2.902   2.148   1.907 -0.0047  1.1675  0.1151
 3568TIP3    H210711   2.781   2.237   1.894  0.9197  2.3354 -0.6833
 3569TIP3   OH210712   2.176   2.849   4.345  0.2706 -0.0702  0.9199
 3569TIP3    H110713   2.084   2.869   4.357  0.0163 -1.5444  1.7756
 3569TIP3    H210714   2.192   2.775   4.404  1.3210 -1.6737 -1.2585
 3570TIP3   OH210715   2.364   2.095   1.724  0.7730 -0.2116 -0.2005
 3570TIP3    H110716   2.366   2.004   1.693  2.0333 -0.1274 -0.4414
 3570TIP3    H210717   2.456   2.121   1.726  0.4442  0.9796  0.1285
 3571TIP3   OH210718   2.658   0.498   4.924 -0.0791  0.0848  0.4235
 3571TIP3    H110719   2.571   0.471   4.896  0.6787 -2.3633  0.2177
 3571TIP3    H210720   2.651   0.506   5.019 -0.7643  0.8701  0.3094
 3572TIP3   OH210721   3.499   4.015   2.469 -0.8295 -0.5048 -0.2455
 3572TIP3    H110722   3.445   4.055   2.537  1.7053  1.5286  0.7505
 3572TIP3    H210723   3.486   4.071   2.392 -0.4411 -0.2269 -0.1120
 3573TIP3   OH210724   0.063   2.264   2.054 -0.2662  0.1721  0.0217
 3573TIP3    H110725   0.105   2.180   2.036 -0.7972 -0.3841  1.2695
 3573TIP3    H210726   0.127   2.329   2.027  0.4346 -0.6405 -0.3238
 3574TIP3   OH210727   5.150   5.248   3.614  0.7969  0.0121 -0.2711
 3574TIP3    H110728   5.146   5.239   3.518  0.6527  0.5953 -0.3271
 3574TIP3    H210729   5.243   5.248   3.635  0.8355  0.1344 -0.4394
 3575TIP3   OH210730   1.173   0.413   1.602  0.1585  0.3210 -0.2801
 3575TIP3    H110731   1.129   0.330   1.616  0.8937  0.0562  0.5129
 3575TIP3    H210732   1.104   0.479   1.608 -0.2653 -0.1585  0.0788
 3576TIP3   OH210733   4.821   3.999   4.374 -0.1368  0.5411 -0.0336
 3576TIP3    H110734   4.824   4.093   4.391 -0.2448  0.8375 -1.5209
 3576TIP3    H210735   4.737   3.985   4.332  1.1723  0.3784 -2.8401
 3577TIP3   OH210736   0.171   4.513   0.737 -0.0416  0.4894 -0.1316
 3577TIP3    H110737   0.228   4.443   0.767 -0.1015  0.2923 -0.4822
 3577TIP3    H210738   0.083   4.485   0.764 -0.1719  0.0201 -1.0296
 3578TIP3   OH210739   2.837   2.892   3.493 -0.5849 -0.3562 -0.4066
 3578TIP3    H110740   2.768   2.828   3.478  0.7196 -1.6140 -1.2636
 3578TIP3    H210741   2.917   2.849   3.464  0.6788  0.8127  1.1325
 3579TIP3   OH210742   2.659   1.694   2.653 -0.1069 -0.1722  0.1659
 3579TIP3    H110743   2.580   1.640   2.657 -0.7826  0.7431 -0.3685
 3579TIP3    H210744   2.685   1.692   2.560  1.2322 -1.4597  0.5312
 3580TIP3   OH210745   6.295   5.222   3.590 -0.0931  0.1797 -0.6193
 3580TIP3    H110746   6.303   5.141   3.641  1.2526  1.3987  1.2472
 3580TIP3    H210747   6.370   5.221   3.531 -0.1158  0.0144 -0.6437
 3581TIP3   OH210748   3.655   1.280   1.208  0.2077  0.0560 -0.0562
 3581TIP3    H110749   3.662   1.255   1.301 -1.2899 -0.1986  0.0148
 3581TIP3    H210750   3.652   1.375   1.209 -1.0274  0.0332  0.2907
 3582TIP3   OH210751   2.579   4.923   0.190  0.3066 -0.4075  0.0195
 3582TIP3    H110752   2.493   4.903   0.229  0.1582  0.8317  0.3809
 3582TIP3    H210753   2.613   4.996   0.243  0.3242  1.0175 -1.8268
 3583TIP3   OH210754   4.634   4.808   2.281 -0.1147  0.2119  0.0433
 3583TIP3    H110755   4.692   4.883   2.264 -0.6230  0.7299  0.5699
 3583TIP3    H210756   4.691   4.745   2.324  0.6044 -0.1816 -1.4068
 3584TIP3   OH210757   5.711   0.112   3.016  0.1283 -0.1670 -0.5302
 3584TIP3    H110758   5.754   0.026   3.008  0.4562 -0.2814  1.8722
 3584TIP3    H210759   5.618   0.091   3.028  0.0919 -0.1266 -0.7282
 3585TIP3   OH210760   2.112   5.163   5.169 -0.0976 -1.0536 -0.0121
 3585TIP3    H110761   2.133   5.083   5.217 -1.1137 -2.5192 -1.8686
 3585TIP3    H210762   2.160   5.155   5.087  1.2499  1.1804  0.4566
 3586TIP3   OH210763   0.963   0.612   1.569 -0.5818  0.2835  0.3871
 3586TIP3    H110764   0.936   0.674   1.501  0.6327  2.6841  1.9051
 3586TIP3    H210765   1.010   0.667   1.633  0.4557 -2.2342  1.9377
 3587TIP3   OH210766   0.129   0.940   4.998  0.3465  0.0019 -0.8945
 3587TIP3    H110767   0.209   0.932   4.946  0.5816  0.1534 -0.5564
 3587TIP3    H210768   0.159   0.969   5.084  0.2784 -2.9689  0.2288
 3588TIP3   OH210769   1.505   3.295   2.960  0.1047 -0.6137  0.5569
 3588TIP3    H110770   1.598   3.305   2.977  0.2310  2.5318 -1.3440
 3588TIP3    H210771   1.500   3.255   2.872 -0.4233 -2.0907  1.2105
 3589TIP3   OH210772   3.569   4.616   3.010 -0.9856  0.3130  0.3235
 3589TIP3    H110773   3.581   4.604   3.104 -0.2039 -2.2417 -0.0216
 3589TIP3    H210774   3.495   4.559   2.989  0.1647 -0.7983 -0.8887
 3590TIP3   OH210775   3.634   1.593   2.528  0.2100 -0.0973  0.2373
 3590TIP3    H110776   3.546   1.626   2.547 -0.3980 -0.5719 -1.5452
 3590TIP3    H210777   3.640   1.513   2.580  0.2523  0.8084  1.6634
 3591TIP3   OH210778   0.882   3.523   2.778 -0.0623  0.1562 -0.1774
 3591TIP3    H110779   0.909   3.474   2.700 -0.4619  0.4883 -0.5291
 3591TIP3    H210780   0.807   3.476   2.812 -0.0037  0.1183 -0.0997
 3592TIP3   OH210781   2.344   3.483   1.268 -0.0588  0.0142  0.2673
 3592TIP3    H110782   2.280   3.424   1.230 -0.3099 -0.4293  1.3408
 3592TIP3    H210783   2.426   3.432   1.270 -0.4483 -0.6128  1.8916
 3593TIP3   OH210784   6.129   5.356   2.233  0.6425 -0.3440  0.3053
 3593TIP3    H110785   6.068   5.339   2.304 -0.0210 -0.6170 -0.3178
 3593TIP3    H210786   6.097   5.303   2.160  1.1799  0.0945 -0.2647
 3594TIP3   OH210787   0.462   1.185   2.990  0.0717  0.4823 -0.0012
 3594TIP3    H110788   0.429   1.195   3.080 -0.2836  0.4917 -0.1325
 3594TIP3    H210789   0.533   1.122   2.998 -0.5055 -0.1554  0.1586
 3595TIP3   OH210790   0.316   2.040   3.675  0.1619  0.1549 -0.5096
 3595TIP3    H110791   0.334   1.960   3.724  1.6697  0.7804  0.0196
 3595TIP3    H210792   0.368   2.031   3.595  2.7376  1.7869  0.8264
 3596TIP3   OH210793   0.944   5.284   0.241 -0.6837 -0.2436 -0.6994
 3596TIP3    H110794   0.897   5.227   0.303 -0.2312 -0.2612 -0.3647
 3596TIP3    H210795   0.949   5.233   0.161  0.0471 -0.8381 -0.2880
 3597TIP3   OH210796   4.537   1.179   5.086 -0.2467  0.1286  0.6004
 3597TIP3    H110797   4.621   1.155   5.046 -2.1357 -2.3706 -2.4213
 3597TIP3    H210798   4.546   1.155   5.178  1.8523 -1.5854  0.0381
 3598TIP3   OH210799   1.731   1.574   4.230  0.1823  0.2381 -0.1178
 3598TIP3    H110800   1.740   1.665   4.203  0.6513 -0.1080 -1.1503
 3598TIP3    H210801   1.701   1.528   4.152 -0.6661 -0.3970  0.5619
 3599TIP3   OH210802   1.173   3.089   3.527 -0.0244  0.3698 -0.1361
 3599TIP3    H110803   1.085   3.127   3.523  0.4443  1.7560  1.5491
 3599TIP3    H210804   1.231   3.164   3.538  1.1491 -0.6654  1.1939
 3600TIP3   OH210805   1.740   0.817   3.095 -0.6455  0.7612 -0.2208
 3600TIP3    H110806   1.742   0.787   3.186 -1.2500  0.3854 -0.3264
 3600TIP3    H210807   1.771   0.907   3.098  0.6664  0.3146  0.1804
 3601TIP3   OH210808   1.480   0.393   4.072  0.4592 -0.1531 -0.0732
 3601TIP3    H110809   1.510   0.414   4.161 -2.0572 -0.5108  0.9190
 3601TIP3    H210810   1.500   0.472   4.021  0.6163  0.6160  1.1467
 3602TIP3   OH210811   5.763   1.142   2.505  0.0748  0.1599 -0.1565
 3602TIP3    H110812   5.672   1.168   2.518  0.0503 -0.5469  1.3677
 3602TIP3    H210813   5.759   1.058   2.459  0.0196  0.8018 -1.3486
 3603TIP3   OH210814   3.726   1.622   0.695  0.3107 -0.0008  0.5893
 3603TIP3    H110815   3.689   1.538   0.721  0.7773 -0.3330  0.1928
 3603TIP3    H210816   3.751   1.663   0.778  0.5744 -0.4824  0.7521
 3604TIP3   OH210817   3.208   5.949   3.523  0.0678  0.5152 -0.2511
 3604TIP3    H110818   3.304   5.946   3.526  0.0452 -2.4028  0.0166
 3604TIP3    H210819   3.186   5.916   3.436 -0.7228  0.6417 -0.1069
 3605TIP3   OH210820   5.156   5.076   1.219 -0.1074  0.2523  0.2428
 3605TIP3    H110821   5.226   5.131   1.186 -0.5235  1.6927  1.6280
 3605TIP3    H210822   5.075   5.121   1.195 -0.4692  0.0799  1.0904
 3606TIP3   OH210823   1.614   1.165   1.358  0.5100  0.3985  0.2325
 3606TIP3    H110824   1.521   1.163   1.335  0.8231 -0.4168 -1.1103
 3606TIP3    H210825   1.652   1.094   1.307  1.9378  0.9627  0.4742
 3607TIP3   OH210826   3.858   1.257   0.883  0.5589 -0.5458  0.2766
 3607TIP3    H110827   3.872   1.164   0.900 -0.8368 -0.5916  1.3812
 3607TIP3    H210828   3.881   1.300   0.965  3.6277  0.4259 -0.9639
 3608TIP3   OH210829   3.817   3.257   5.000  0.2631  0.1172 -0.1946
 3608TIP3    H110830   3.825   3.191   5.069 -1.0498  0.7129  0.5756
 3608TIP3    H210831   3.748   3.316   5.031 -0.7442  0.1089 -2.2566
 3609TIP3   OH210832   4.766   4.976   0.667  0.3444  0.1818  0.0664
 3609TIP3    H110833   4.776   5.071   0.673 -1.2179  0.3698  0.3254
 3609TIP3    H210834   4.853   4.941   0.683  1.6305  1.6322 -2.9533
 3610TIP3   OH210835   0.202   3.948   2.678 -0.2393 -0.6806  0.2626
 3610TIP3    H110836   0.164   4.016   2.734 -0.6022 -1.0712  0.4994
 3610TIP3    H210837   0.158   3.867   2.706 -1.4266 -0.6971 -1.4602
 3611TIP3   OH210838   0.691   1.039   3.675 -0.6041 -0.1398  0.6255
 3611TIP3    H110839   0.714   0.965   3.731  0.0278  0.3026  0.9655
 3611TIP3    H210840   0.772   1.061   3.629 -1.0460 -0.3260 -0.2787
 3612TIP3   OH210841   0.532   1.162   3.491  0.3818 -0.3746 -0.0138
 3612TIP3    H110842   0.574   1.104   3.555  1.7106 -1.8980 -2.1542
 3612TIP3    H210843   0.579   1.245   3.500  2.2501 -1.3057 -0.6492
 3613TIP3   OH210844   2.907   3.059   0.218  0.0441  0.0586 -0.3550
 3613TIP3    H110845   2.995   3.041   0.251 -0.4892 -1.3054  0.4382
 3613TIP3    H210846   2.882   2.978   0.173 -2.3047 -1.3053  2.9490
 3614TIP3   OH210847   0.400   0.936   2.806  0.3905 -0.1307 -0.1739
 3614TIP3    H110848   0.475   0.882   2.778 -0.5847 -1.8090  0.3087
 3614TIP3    H210849   0.426   0.969   2.892  1.3323  0.8761 -0.8203
 3615TIP3   OH210850   5.597   4.136   3.903 -0.1700  0.0418 -0.0162
 3615TIP3    H110851   5.597   4.095   3.990  0.0470  0.8911  0.3980
 3615TIP3    H210852   5.579   4.064   3.843  4.1751 -1.6001  0.2558
 3616TIP3   OH210853   3.517   3.135   4.240  0.0591 -0.1166  0.7234
 3616TIP3    H110854   3.531   3.227   4.261  0.7694  0.2154 -1.0196
 3616TIP3    H210855   3.574   3.087   4.299  0.2706  0.5992  1.1096
 3617TIP3   OH210856   1.342   0.971   5.121  0.2775 -0.0780  0.2838
 3617TIP3    H110857   1.368   0.985   5.030 -2.1986 -0.4278 -0.5590
 3617TIP3    H210858   1.422   0.942   5.165  1.3590 -0.7611 -1.9820
 3618TIP3   OH210859   0.725   1.041   4.372  0.5550 -0.3908  0.0368
 3618TIP3    H110860   0.643   1.021   4.328  0.6666  0.2294 -0.4700
 3618TIP3    H210861   0.787   1.055   4.300  0.8074  0.3637  0.3976
 3619TIP3   OH210862   6.021   1.451   2.416  0.0351  0.1530  0.7441
 3619TIP3    H110863   6.073   1.420   2.342 -0.2367  2.4395 -0.4903
 3619TIP3    H210864   6.014   1.375   2.474  1.5574 -1.2677 -0.8291
 3620TIP3   OH210865   5.235   5.510   1.300  0.2067  0.1456  0.6446
 3620TIP3    H110866   5.331   5.510   1.297  0.2171 -1.4931 -0.5995
 3620TIP3    H210867   5.213   5.449   1.370  0.0749 -0.0049  0.4714
 3621TIP3   OH210868   4.551   0.436   1.336 -0.3790 -0.5422 -0.0909
 3621TIP3    H110869   4.605   0.387   1.274 -0.8091  0.1231 -1.0061
 3621TIP3    H210870   4.596   0.520   1.345 -0.3127 -0.6350  0.5305
 3622TIP3   OH210871   4.934   2.426   3.440 -0.3122 -0.1476 -0.2608
 3622TIP3    H110872   5.006   2.389   3.390 -1.3249  1.0904 -2.8203
 3622TIP3    H210873   4.873   2.353   3.452 -0.8188 -0.1477 -2.4298
 3623TIP3   OH210874   3.890   3.829   1.182 -0.2036 -0.2680  0.0076
 3623TIP3    H110875   3.918   3.739   1.166  1.3094  0.0696  0.5575
 3623TIP3    H210876   3.927   3.851   1.268 -0.9202  0.7330  0.0818
 3624TIP3   OH210877   3.891   1.741   2.729  0.2415  0.3001  0.1083
 3624TIP3    H110878   3.890   1.684   2.805  1.3467  0.6579  0.4122
 3624TIP3    H210879   3.800   1.766   2.715  0.0603  0.4604  1.4880
 3625TIP3   OH210880   2.822   5.716   3.776  0.0633  0.4843 -0.0751
 3625TIP3    H110881   2.854   5.699   3.687 -2.0306  0.2073 -0.8224
 3625TIP3    H210882   2.777   5.635   3.801  0.1303  0.7717  1.0230
 3626TIP3   OH210883   2.596   5.817   1.169 -0.0577  0.1868 -0.6076
 3626TIP3    H110884   2.676   5.865   1.149 -1.2046  1.4355 -2.5748
 3626TIP3    H210885   2.583   5.760   1.093 -0.0813 -1.4329  0.5514
 3627TIP3   OH210886   2.165   3.676   2.710 -1.3071 -0.3473  0.0862
 3627TIP3    H110887   2.201   3.723   2.785 -1.3041 -0.5512  0.2128
 3627TIP3    H210888   2.143   3.590   2.745  0.7435 -1.2382 -0.6288
 3628TIP3   OH210889   0.333   3.547   2.513 -0.3481  0.5274  0.4531
 3628TIP3    H110890   0.331   3.457   2.547  0.9413  0.3025 -0.0106
 3628TIP3    H210891   0.279   3.544   2.434 -0.6960  0.2782  0.6970
 3629TIP3   OH210892   4.076   4.687   2.646  0.5009  0.2487 -0.3947
 3629TIP3    H110893   4.144   4.640   2.598 -0.7213 -1.3034 -0.6964
 3629TIP3    H210894   4.038   4.622   2.705 -0.0541  1.3390  0.5011
 3630TIP3   OH210895   2.120   0.927   3.728 -0.2615  0.3030 -0.0916
 3630TIP3    H110896   2.078   0.871   3.793  1.3300 -1.4919 -0.4947
 3630TIP3    H210897   2.050   0.949   3.666 -1.5112  1.0060  1.5075
 3631TIP3   OH210898   4.617   5.076   2.139  0.0039  0.3287  0.4821
 3631TIP3    H110899   4.559   5.137   2.186  1.3312 -0.5962  3.6419
 3631TIP3    H210900   4.705   5.098   2.171  0.6164 -2.6208  1.1008
 3632TIP3   OH210901   4.004   5.793   3.050  0.4649  0.2783 -0.5615
 3632TIP3    H110902   3.920   5.798   3.004  0.9721  0.4254 -1.4948
 3632TIP3    H210903   4.033   5.703   3.039  0.9432  0.5005 -1.1957
 3633TIP3   OH210904   6.258   3.032   3.300  0.0624 -0.4028  0.9644
 3633TIP3    H110905   6.163   3.046   3.300 -0.0835 -1.3614  0.8131
 3633TIP3    H210906   6.269   2.940   3.276  0.9214 -1.0107  3.3795
 3634TIP3   OH210907   5.695   4.097   3.382 -0.9316  0.1398  0.3913
 3634TIP3    H110908   5.670   4.189   3.378 -0.1364  0.3760  0.7725
 3634TIP3    H210909   5.742   4.088   3.464  1.6917  0.0945 -0.9986
 3635TIP3   OH210910   4.766   5.798   3.209 -0.3815 -0.6722 -0.2896
 3635TIP3    H110911   4.736   5.815   3.298  1.1467 -3.2531  0.8267
 3635TIP3    H210912   4.695   5.747   3.170 -0.6685 -0.2889 -0.2825
 3636TIP3   OH210913   3.163   0.561   3.700  0.7036 -0.4612  0.1731
 3636TIP3    H110914   3.121   0.482   3.733 -0.1676 -0.3922 -0.7353
 3636TIP3    H210915   3.209   0.597   3.776  0.8970 -1.6862  0.6627
 3637TIP3   OH210916   4.845   0.228   5.004  0.0397  0.3341  0.0125
 3637TIP3    H110917   4.869   0.136   4.993  0.5283  0.5332 -0.6632
 3637TIP3    H210918   4.871   0.269   4.921  1.5256  1.4316  0.9612
 3638TIP3   OH210919   2.085   0.878   2.841  0.4761  0.3937  0.0615
 3638TIP3    H110920   2.021   0.946   2.822 -2.3931 -2.5424 -2.0799
 3638TIP3    H210921   2.087   0.872   2.936 -3.6167 -0.1317  0.3213
 3639TIP3   OH210922   3.874   5.233   1.995  0.2566  0.5005  0.1133
 3639TIP3    H110923   3.911   5.145   1.985  0.1145  0.4593 -0.0468
 3639TIP3    H210924   3.793   5.231   1.945 -1.2891 -0.2095  2.4370
 3640TIP3   OH210925   4.033   5.139   2.575  0.1958 -0.2481 -0.1472
 3640TIP3    H110926   3.947   5.142   2.617 -0.2443 -0.4977 -1.0021
 3640TIP3    H210927   4.030   5.061   2.520  1.3088 -0.7675  0.5024
 3641TIP3   OH210928   4.801   5.816   1.562  0.6149 -0.6897 -0.2654
 3641TIP3    H110929   4.774   5.755   1.630 -1.4206  1.1468  0.7007
 3641TIP3    H210930   4.848   5.885   1.609  1.2824 -0.5798 -1.0700
 3642TIP3   OH210931   4.483   1.713   4.035 -0.7931 -0.1235  0.2908
 3642TIP3    H110932   4.542   1.639   4.055  1.2123  1.2316 -0.2587
 3642TIP3    H210933   4.435   1.685   3.958  0.1670 -0.7644 -0.1025
 3643TIP3   OH210934   2.454   1.048   0.177 -0.4771  0.1173 -0.4262
 3643TIP3    H110935   2.372   1.024   0.220 -0.1449  0.8250  0.6541
 3643TIP3    H210936   2.455   0.997   0.096 -2.3766  0.7314 -0.8894
 3644TIP3   OH210937   6.237   1.645   4.296 -0.1041  0.2485 -0.2247
 3644TIP3    H110938   6.254   1.675   4.385 -0.9021 -0.6208  0.2399
 3644TIP3    H210939   6.304   1.579   4.280 -2.0894 -2.2593  1.1358
 3645TIP3   OH210940   4.821   1.193   1.276 -0.2700 -0.1089 -1.1442
 3645TIP3    H110941   4.801   1.286   1.273  1.8786  0.4620  0.3000
 3645TIP3    H210942   4.865   1.175   1.193  0.6015  0.4966 -0.8149
 3646TIP3   OH210943   5.526   0.294   2.377 -0.3368 -0.4779 -0.4535
 3646TIP3    H110944   5.613   0.302   2.416 -0.6459 -2.4226  0.7446
 3646TIP3    H210945   5.529   0.214   2.325 -1.4923 -0.7545 -0.1282
 3647TIP3   OH210946   5.881   1.302   4.199  0.3433  0.0800 -0.0957
 3647TIP3    H110947   5.870   1.295   4.293 -0.0910  1.1187 -0.0507
 3647TIP3    H210948   5.837   1.225   4.163 -1.5671  0.8618  0.4434
 3648TIP3   OH210949   2.481   0.931   4.961  0.0258  0.0860 -0.3636
 3648TIP3    H110950   2.531   0.904   4.883  0.0079  1.7547 -0.9859
 3648TIP3    H210951   2.414   0.864   4.971  1.3821 -1.3610 -0.4475
 3649TIP3   OH210952   0.157   2.463   2.642  0.6076  0.1027  0.2381
 3649TIP3    H110953   0.191   2.418   2.565 -0.4618 -0.4630  0.0783
 3649TIP3    H210954   0.230   2.516   2.673  1.6642 -1.1513 -0.0174
 3650TIP3   OH210955   1.304   2.740   0.108 -0.1581 -0.5783 -0.4927
 3650TIP3    H110956   1.362   2.791   0.165 -1.4585  0.7539 -0.2961
 3650TIP3    H210957   1.360   2.715   0.034  0.8174  0.1608 -0.0393
 3651TIP3   OH210958   0.570   3.589   4.935  0.0545 -0.0015  0.4534
 3651TIP3    H110959   0.524   3.530   4.876 -2.0149 -0.3561  2.2689
 3651TIP3    H210960   0.639   3.535   4.974  0.4022 -0.2044 -0.4307
 3652TIP3   OH210961   2.681   3.225   4.564  0.3741  0.3416  0.1223
 3652TIP3    H110962   2.760   3.175   4.585  1.3827  1.8011 -0.0930
 3652TIP3    H210963   2.690   3.247   4.471 -0.3698  0.3851  0.0533
 3653TIP3   OH210964   3.747   4.574   0.338 -0.1196 -0.6273 -0.0534
 3653TIP3    H110965   3.698   4.502   0.378  0.3950  0.1328  2.0963
 3653TIP3    H210966   3.705   4.588   0.254 -1.1006 -2.5227  0.0612
 3654TIP3   OH210967   0.305   5.009   1.476  0.4229  0.2131  0.5644
 3654TIP3    H110968   0.254   5.013   1.557  0.0878  0.2223  0.3548
 3654TIP3    H210969   0.251   5.056   1.412  0.3431 -0.4351  0.1495
 3655TIP3   OH210970   3.488   2.799   4.510  0.1392  0.1689 -0.3271
 3655TIP3    H110971   3.532   2.764   4.587  1.2193 -0.1550 -1.0625
 3655TIP3    H210972   3.414   2.740   4.495 -1.2506  1.3099  1.5329
 3656TIP3   OH210973   0.283   1.021   4.024 -0.3152 -0.3152 -0.1356
 3656TIP3    H110974   0.195   1.035   3.988 -0.5882 -4.3555 -1.4696
 3656TIP3    H210975   0.268   0.981   4.109  0.2911  0.5589  0.3956
 3657TIP3   OH210976   3.253   0.087   3.278  0.4878  0.8396  0.1248
 3657TIP3    H110977   3.288   0.107   3.365  1.0860  0.0706  0.0680
 3657TIP3    H210978   3.329   0.096   3.220  0.3984  0.0224 -0.1245
 3658TIP3   OH210979   3.372   1.190   2.852 -0.2519  0.2466 -0.0722
 3658TIP3    H110980   3.336   1.279   2.856  1.3534  1.0310 -1.5118
 3658TIP3    H210981   3.398   1.171   2.942  1.1980  2.0961 -0.0286
 3659TIP3   OH210982   4.155   3.200   5.030 -0.6908 -0.0209 -0.4865
 3659TIP3    H110983   4.088   3.222   4.964 -0.6127 -1.0949 -0.9483
 3659TIP3    H210984   4.233   3.248   5.001 -0.4439 -1.0692 -1.6253
 3660TIP3   OH210985   5.897   2.218   4.725 -0.9712  0.1872 -0.1267
 3660TIP3    H110986   5.893   2.252   4.635  0.0734 -0.7832 -0.5636
 3660TIP3    H210987   5.958   2.144   4.720 -1.1427 -0.0787  1.3254
 3661TIP3   OH210988   4.433   0.931   4.327 -0.2257  0.3972 -0.6133
 3661TIP3    H110989   4.365   0.985   4.288  1.6247  2.0126 -1.7415
 3661TIP3    H210990   4.477   0.988   4.390  0.8909 -0.2002 -0.8182
 3662TIP3   OH210991   2.588   2.436   3.458  0.3570 -0.4752 -0.4507
 3662TIP3    H110992   2.572   2.528   3.435  1.5967 -0.4660 -1.3540
 3662TIP3    H210993   2.531   2.387   3.400  0.4886 -0.3116 -0.7186
 3663TIP3   OH210994   1.496   2.524   2.334 -0.2388 -0.4031 -0.3234
 3663TIP3    H110995   1.411   2.510   2.375 -0.1148 -1.6132 -0.4518
 3663TIP3    H210996   1.493   2.614   2.301 -1.0567 -0.0717  0.6228
 3664TIP3   OH210997   1.036   1.692   1.633 -0.4470  0.2448 -0.1692
 3664TIP3    H110998   1.094   1.616   1.627 -0.2632  0.4294 -0.7834
 3664TIP3    H210999   1.051   1.740   1.552 -0.9351  0.6718 -0.0105
 3665TIP3   OH211000   1.724   3.203   0.314  0.4080  0.1824  0.2807
 3665TIP3    H111001   1.692   3.120   0.348  1.3784  0.1501  1.1528
 3665TIP3    H211002   1.657   3.267   0.337  0.7344  0.0416  1.6867
 3666TIP3   OH211003   5.956   1.768   0.485  0.4064 -0.2615  0.4129
 3666TIP3    H111004   5.993   1.843   0.437 -0.2097 -0.4261 -0.3389
 3666TIP3    H211005   6.020   1.698   0.473  0.7571 -0.0028  0.7225
 3667TIP3   OH211006   3.425   5.803   4.773  0.3792  0.0164  0.2298
 3667TIP3    H111007   3.391   5.719   4.742 -1.1516  1.0383 -1.0086
 3667TIP3    H211008   3.367   5.827   4.845 -0.7581  1.1100 -0.9940
 3668TIP3   OH211009   3.450   4.533   1.075 -0.1480  0.4904 -0.1284
 3668TIP3    H111010   3.422   4.499   0.990 -0.1646  1.9264 -0.7407
 3668TIP3    H211011   3.539   4.498   1.087 -1.1591 -2.0216  0.6362
 3669TIP3   OH211012   5.403   4.996   2.208 -0.1228  0.3096 -0.0901
 3669TIP3    H111013   5.453   4.937   2.151 -0.1738 -1.2820  1.4193
 3669TIP3    H211014   5.461   5.010   2.283 -0.6008  1.2104  0.1162
 3670TIP3   OH211015   1.943   3.598   3.874 -0.0569  0.6655 -0.6396
 3670TIP3    H111016   2.031   3.588   3.912 -0.4954 -1.0368  0.0373
 3670TIP3    H211017   1.892   3.642   3.941  0.0990  1.0166 -0.7501
 3671TIP3   OH211018   1.765   2.360   0.887 -0.9645  0.2740 -0.1009
 3671TIP3    H111019   1.716   2.365   0.805 -0.0660 -1.1052 -0.7563
 3671TIP3    H211020   1.703   2.324   0.950 -2.0056  2.3616  0.1639
 3672TIP3   OH211021   1.074   2.069   4.452  0.7817  0.0657 -0.2719
 3672TIP3    H111022   1.027   1.985   4.450  1.2977 -0.2200 -0.6115
 3672TIP3    H211023   1.051   2.106   4.537 -1.2029  0.6113 -0.9847
 3673TIP3   OH211024   0.582   5.596   2.611  0.4836  0.5149  0.3239
 3673TIP3    H111025   0.673   5.606   2.582  1.7715 -0.0586  3.7813
 3673TIP3    H211026   0.571   5.660   2.681 -1.3395 -0.3889  0.9410
 3674TIP3   OH211027   1.093   5.032   4.008  0.1417  0.0697 -0.4330
 3674TIP3    H111028   1.014   5.009   3.958 -0.6921 -0.5336  1.1026
 3674TIP3    H211029   1.092   5.128   4.011  0.1426  0.1163 -1.4476
 3675TIP3   OH211030   4.840   4.125   0.751 -0.4671  0.4173 -0.4535
 3675TIP3    H111031   4.841   4.060   0.680  0.8740  1.1475 -1.1459
 3675TIP3    H211032   4.916   4.181   0.733 -0.7895  1.3363  0.9105
 3676TIP3   OH211033   1.030   3.615   3.693 -0.5468  0.1713 -0.3358
 3676TIP3    H111034   1.012   3.566   3.773 -0.8349 -0.4589 -0.7866
 3676TIP3    H211035   1.073   3.695   3.724 -1.6448  0.4512  0.5421
 3677TIP3   OH211036   2.968   2.646   4.229  0.1129  0.0054  0.0657
 3677TIP3    H111037   2.963   2.691   4.145  0.3236 -0.1956 -0.0547
 3677TIP3    H211038   3.059   2.618   4.237  0.2247  0.4992  0.6166
 3678TIP3   OH211039   1.412   4.908   1.982 -0.7782 -0.2604  0.0765
 3678TIP3    H111040   1.486   4.948   1.936 -0.1937  0.5720  1.6537
 3678TIP3    H211041   1.452   4.865   2.058 -1.9283  0.3492  1.0466
 3679TIP3   OH211042   4.525   3.287   3.761  0.1464  0.3793  0.2151
 3679TIP3    H111043   4.523   3.382   3.773 -0.7931  0.3515  0.3872
 3679TIP3    H211044   4.603   3.270   3.709  1.9269  0.9678  2.5472
 3680TIP3   OH211045   3.667   3.524   2.497 -0.4729  0.4773  0.3178
 3680TIP3    H111046   3.605   3.592   2.524 -0.8727 -0.3376  1.5321
 3680TIP3    H211047   3.613   3.447   2.482  0.2060 -0.2135  1.2655
 3681TIP3   OH211048   3.128   3.443   1.398  0.2467  0.0118  0.0435
 3681TIP3    H111049   3.133   3.519   1.455 -1.5750  0.2871 -0.1192
 3681TIP3    H211050   3.041   3.448   1.358  0.1613 -2.0395 -0.1252
 3682TIP3   OH211051   1.023   3.569   5.157 -0.8421 -0.4604  0.2685
 3682TIP3    H111052   1.079   3.491   5.158 -1.0248 -0.5839  1.7132
 3682TIP3    H211053   1.078   3.638   5.193 -1.6052 -0.5981  1.7586
 3683TIP3   OH211054   5.241   4.084   4.193 -0.0319  0.0813 -0.3942
 3683TIP3    H111055   5.151   4.104   4.169 -0.0335  1.1091  0.3815
 3683TIP3    H211056   5.284   4.169   4.199  0.5975 -0.2842  0.7194
 3684TIP3   OH211057   1.217   3.778   0.259  0.3674  0.5102 -0.2716
 3684TIP3    H111058   1.130   3.798   0.226  0.1617  0.3966  0.1948
 3684TIP3    H211059   1.273   3.779   0.181 -0.4187 -1.5533 -0.9527
 3685TIP3   OH211060   1.788   3.387   2.093 -0.2400 -0.4599 -0.1582
 3685TIP3    H111061   1.876   3.372   2.058 -0.7995 -2.5633 -0.7955
 3685TIP3    H211062   1.800   3.381   2.188 -0.0015 -3.2039 -0.2774
 3686TIP3   OH211063   2.646   0.848   0.297 -0.0120  0.2650 -0.2658
 3686TIP3    H111064   2.564   0.800   0.306  0.5776 -0.8111 -0.3793
 3686TIP3    H211065   2.620   0.939   0.283 -1.1914 -0.1304 -0.7543
 3687TIP3   OH211066   4.710   1.676   3.737 -0.4422 -0.0190  0.2569
 3687TIP3    H111067   4.737   1.759   3.778 -0.2042  0.4638 -0.8225
 3687TIP3    H211068   4.725   1.610   3.804  0.3434  0.6846  0.8023
 3688TIP3   OH211069   5.575   3.121   3.411 -0.0865 -0.2676 -0.4720
 3688TIP3    H111070   5.616   3.114   3.497 -1.3549 -0.8164  0.1180
 3688TIP3    H211071   5.629   3.185   3.364  0.7271 -0.0802  0.6647
 3689TIP3   OH211072   3.672   0.643   1.406 -0.1590  0.0194 -0.3081
 3689TIP3    H111073   3.634   0.634   1.318  0.3641 -0.8003 -0.4591
 3689TIP3    H211074   3.726   0.565   1.417 -2.8419 -1.6922  2.0774
 3690TIP3   OH211075   3.378   3.868   3.523 -0.6692 -0.0112  0.2941
 3690TIP3    H111076   3.329   3.816   3.587 -1.1549  0.9309  0.6955
 3690TIP3    H211077   3.449   3.809   3.494 -0.4949 -0.4832  1.6136
 3691TIP3   OH211078   3.477   5.379   0.955  0.1595  0.0809  0.1553
 3691TIP3    H111079   3.480   5.441   1.028 -1.2181 -0.0347  0.3360
 3691TIP3    H211080   3.424   5.306   0.987  1.9707 -1.3432  0.0257
 3692TIP3   OH211081   3.848   3.804   0.376 -0.5012  0.3646  0.0558
 3692TIP3    H111082   3.901   3.847   0.308 -0.6758  1.8729  0.8514
 3692TIP3    H211083   3.792   3.743   0.327  0.1295  0.6369 -1.0443
 3693TIP3   OH211084   5.655   3.789   4.359  0.7467 -0.1817 -0.1507
 3693TIP3    H111085   5.660   3.747   4.445 -0.4186 -0.1140 -0.0391
 3693TIP3    H211086   5.700   3.873   4.372 -0.0275  0.1353  0.5928
 3694TIP3   OH211087   0.218   5.435   0.308 -0.3971 -0.1902  0.2868
 3694TIP3    H111088   0.136   5.393   0.336 -0.8701 -0.1328 -0.9209
 3694TIP3    H211089   0.267   5.366   0.265  1.0818 -0.6991  2.6716
 3695TIP3   OH211090   5.504   1.468   1.773  0.4557  0.3066 -0.2695
 3695TIP3    H111091   5.450   1.491   1.697  0.1834 -0.1629 -0.2220
 3695TIP3    H211092   5.572   1.534   1.775 -1.0619  1.9368  0.6358
 3696TIP3   OH211093   3.370   4.091   4.126 -0.3432  0.1253 -0.0841
 3696TIP3    H111094   3.287   4.043   4.129  0.6072 -1.6527 -0.4645
 3696TIP3    H211095   3.426   4.037   4.070  0.6273  2.0361 -1.0410
 3697TIP3   OH211096   2.149   3.266   1.597 -0.0583  0.3435  0.1904
 3697TIP3    H111097   2.221   3.327   1.582 -0.1126  1.2420  3.0167
 3697TIP3    H211098   2.072   3.322   1.607 -0.6610 -0.4195 -0.0523
 3698TIP3   OH211099   6.263   3.310   1.002  0.0411 -0.0541  0.0135
 3698TIP3    H111100   6.235   3.303   1.093 -0.6355  2.0568  0.0157
 3698TIP3    H211101   6.231   3.229   0.961  0.2982 -1.0071  1.6078
 3699TIP3   OH211102   1.679   2.699   0.522  0.5823  0.1935  0.5134
 3699TIP3    H111103   1.703   2.792   0.525  0.1991  0.3204 -0.0876
 3699TIP3    H211104   1.584   2.700   0.515  0.6983 -0.1428 -2.1712
 3700TIP3   OH211105   1.857   1.316   4.304 -0.0139 -0.2454  0.6095
 3700TIP3    H111106   1.826   1.397   4.265  1.0221 -0.6964 -1.2523
 3700TIP3    H211107   1.895   1.343   4.388 -2.3725  0.7198  1.4568
 3701TIP3   OH211108   6.103   0.753   3.737 -0.1155  0.1157  0.1510
 3701TIP3    H111109   6.165   0.772   3.808 -0.1606  1.4366 -0.1452
 3701TIP3    H211110   6.092   0.837   3.692 -0.0429 -0.7070 -1.4652
 3702TIP3   OH211111   1.517   2.276   1.917 -0.3345  0.0124 -0.1108
 3702TIP3    H111112   1.565   2.353   1.948  2.4629 -1.0454 -1.4557
 3702TIP3    H211113   1.464   2.308   1.844  1.1974  0.6593 -0.9963
 3703TIP3   OH211114   1.665   5.113   4.473 -0.3445  0.4178 -0.6679
 3703TIP3    H111115   1.662   5.192   4.418  0.0229  0.7504 -0.2183
 3703TIP3    H211116   1.753   5.078   4.458 -0.9207 -0.6038 -1.8137
 3704TIP3   OH211117   3.581   5.702   4.513  0.0016  0.5833  0.0267
 3704TIP3    H111118   3.633   5.720   4.434  0.0426  1.9760  0.3480
 3704TIP3    H211119   3.641   5.654   4.571  0.2998  0.4696 -0.3741
 3705TIP3   OH211120   3.086   3.894   0.186 -0.3000  0.8105 -0.3523
 3705TIP3    H111121   3.120   3.890   0.097  2.0460  1.2461  0.4542
 3705TIP3    H211122   3.023   3.823   0.191  1.4682 -0.9481 -1.6225
 3706TIP3   OH211123   6.328   5.875   3.711 -0.3786 -0.5474  0.0194
 3706TIP3    H111124   6.257   5.881   3.648  0.6732 -3.4129 -1.6196
 3706TIP3    H211125   6.313   5.793   3.758  0.2219  0.3147  1.8314
 3707TIP3   OH211126   3.008   2.724   5.058 -0.4622 -0.0942  0.5624
 3707TIP3    H111127   2.954   2.651   5.087  1.3367 -1.5969  0.3026
 3707TIP3    H211128   2.993   2.792   5.124 -0.1410 -1.6849  2.3632
 3708TIP3   OH211129   2.300   5.611   4.489  0.3719  0.0430 -0.7194
 3708TIP3    H111130   2.295   5.659   4.406 -1.5713 -0.0653 -0.7244
 3708TIP3    H211131   2.393   5.597   4.504  0.7626 -0.6683 -3.3325
 3709TIP3   OH211132   3.410   1.456   2.150 -0.2439 -0.2303  0.4164
 3709TIP3    H111133   3.491   1.456   2.099  0.1970 -0.9222  1.0953
 3709TIP3    H211134   3.406   1.544   2.188  0.6085 -0.4448  1.0230
 3710TIP3   OH211135   6.215   0.588   4.287  1.1824  0.1074 -0.0346
 3710TIP3    H111136   6.294   0.555   4.243  0.9779  0.6453 -0.8159
 3710TIP3    H211137   6.244   0.668   4.330  1.1261  0.1614 -0.0974
 3711TIP3   OH211138   6.357   3.635   0.294  0.4728  0.3330  0.0655
 3711TIP3    H111139   6.287   3.636   0.360  1.4527 -0.0856  1.1470
 3711TIP3    H211140   6.364   3.726   0.265  0.6244  0.6960  1.2034
 3712TIP3   OH211141   3.037   0.478   0.306  0.4249  0.4233 -0.3468
 3712TIP3    H111142   2.999   0.551   0.257 -1.1120 -1.1437 -1.6258
 3712TIP3    H211143   3.081   0.425   0.239 -1.3542 -1.5506 -0.0446
 3713TIP3   OH211144   0.522   4.825   4.636 -0.0370 -0.5488  0.3444
 3713TIP3    H111145   0.511   4.910   4.592 -0.8651 -0.5179  0.5799
 3713TIP3    H211146   0.614   4.804   4.625  0.2648  0.5580  0.5896
 3714TIP3   OH211147   1.887   3.976   3.697  0.4368 -0.0257 -0.9384
 3714TIP3    H111148   1.946   3.998   3.768 -1.3726  0.6552  0.4385
 3714TIP3    H211149   1.824   3.915   3.736 -0.3437  0.0205 -2.0726
 3715TIP3   OH211150   4.701   5.299   1.348  1.0192  0.0233  0.0465
 3715TIP3    H111151   4.706   5.384   1.390  0.6046  0.3500 -0.5411
 3715TIP3    H211152   4.610   5.293   1.316  1.7384  0.5569 -2.3214
 3716TIP3   OH211153   4.997   1.311   4.070  0.2405 -0.6298 -0.3821
 3716TIP3    H111154   4.973   1.346   4.155 -0.2527  0.3013 -0.8835
 3716TIP3    H211155   5.056   1.239   4.089  1.1671  0.3812  0.7141
 3717TIP3   OH211156   6.313   2.581   2.986  0.3166 -0.0733  0.0829
 3717TIP3    H111157   6.279   2.527   2.914  0.2740 -0.0040  0.0507
 3717TIP3    H211158   6.390   2.533   3.017  1.1771  0.5961 -0.9373
 3718TIP3   OH211159   1.176   0.297   3.099 -0.5173 -0.2432  0.0572
 3718TIP3    H111160   1.196   0.282   3.191  1.8253  0.6718 -0.2308
 3718TIP3    H211161   1.234   0.369   3.073 -1.3630 -0.2521 -2.0459
 3719TIP3   OH211162   1.092   3.964   4.627  0.2417  0.0943  0.8264
 3719TIP3    H111163   1.048   3.985   4.710 -0.2167  0.6679  0.4428
 3719TIP3    H211164   1.118   3.872   4.637  0.3071  0.1915  1.6570
 3720TIP3   OH211165   2.191   4.555   0.450 -0.5301  0.4311  0.1644
 3720TIP3    H111166   2.117   4.498   0.473 -0.4735  0.3921  0.2531
 3720TIP3    H211167   2.152   4.630   0.406 -0.7014  0.7886  0.9050
 3721TIP3   OH211168   2.546   5.952   4.282 -0.4301 -0.0398  0.0522
 3721TIP3    H111169   2.558   6.047   4.271  0.0851 -0.2077 -0.9093
 3721TIP3    H211170   2.614   5.913   4.228 -0.1742 -0.9636  1.0346
 3722TIP3   OH211171   0.925   1.407   1.621 -0.2474 -0.5518 -0.3869
 3722TIP3    H111172   0.877   1.435   1.699  0.4870 -0.1850 -0.0516
 3722TIP3    H211173   0.932   1.487   1.568  0.5915 -0.4220 -0.1016
 3723TIP3   OH211174   2.289   2.564   1.148 -0.0833 -0.2144  0.3188
 3723TIP3    H111175   2.268   2.657   1.156 -1.8770 -0.2691 -2.5192
 3723TIP3    H211176   2.303   2.550   1.055  2.4093 -2.4211  0.8941
 3724TIP3   OH211177   4.945   4.247   2.964 -0.3078 -0.7850  0.1922
 3724TIP3    H111178   4.913   4.220   3.050  2.0566 -2.4047  0.6823
 3724TIP3    H211179   4.964   4.164   2.918 -0.4484  0.0524 -1.4463
 3725TIP3   OH211180   5.418   5.022   1.383 -0.1641 -0.2631  0.1208
 3725TIP3    H111181   5.376   5.051   1.464  0.7605 -0.1066  0.5556
 3725TIP3    H211182   5.378   5.075   1.314 -0.2507  0.2971  0.6013
 3726TIP3   OH211183   1.183   4.002   3.211 -0.5897 -0.2566  0.0151
 3726TIP3    H111184   1.185   3.911   3.182  0.5480 -0.0128 -0.7643
 3726TIP3    H211185   1.101   4.037   3.177 -1.5216 -1.2343  1.1826
 3727TIP3   OH211186   0.461   3.064   0.861  0.1847 -0.4467  0.2396
 3727TIP3    H111187   0.472   2.989   0.802 -0.2337 -0.1185 -0.2647
 3727TIP3    H211188   0.383   3.108   0.828  0.2216  0.0064  0.7594
 3728TIP3   OH211189   5.458   4.204   1.855  0.2819 -0.5412  0.3066
 3728TIP3    H111190   5.455   4.125   1.800 -0.0104 -0.7723  0.6553
 3728TIP3    H211191   5.367   4.232   1.863  0.4282  0.1299 -0.2329
 3729TIP3   OH211192   4.506   3.039   1.908  0.4612  0.0143  0.4922
 3729TIP3    H111193   4.477   2.997   1.989 -0.0316 -0.2213  0.2036
 3729TIP3    H211194   4.535   2.966   1.853  1.6003  0.2475  0.7695
 3730TIP3   OH211195  -0.023   4.211   0.557  0.1079 -0.0371  0.2808
 3730TIP3    H111196   0.049   4.223   0.618  0.3705 -0.9370  0.1647
 3730TIP3    H211197  -0.004   4.272   0.485  1.3643 -1.0415 -0.2764
 3731TIP3   OH211198   3.381   3.062   0.184  0.5416 -0.4574  0.2405
 3731TIP3    H111199   3.295   3.080   0.147 -0.7116 -0.3170  3.0281
 3731TIP3    H211200   3.436   3.134   0.152 -0.9918  0.8115  0.3589
 3732TIP3   OH211201   3.774   3.167   4.449 -0.0079  0.7564 -0.6360
 3732TIP3    H111202   3.747   3.156   4.540 -2.6440  2.4731 -1.1251
 3732TIP3    H211203   3.750   3.084   4.407 -0.1824  0.5236 -0.0863
 3733TIP3   OH211204   2.234   2.706   4.587 -0.2264 -0.4215  0.7283
 3733TIP3    H111205   2.197   2.641   4.647 -0.0207  0.9380  2.4392
 3733TIP3    H211206   2.284   2.655   4.524 -0.6452 -1.9605  1.5809
 3734TIP3   OH211207   0.978   5.522   1.323 -0.8758 -0.0153 -0.1814
 3734TIP3    H111208   1.044   5.545   1.257  0.0987 -1.7982  0.1085
 3734TIP3    H211209   1.025   5.470   1.388 -2.4851 -1.1185  0.1901
 3735TIP3   OH211210   3.815   0.251   1.716  0.1466  0.0639 -0.2378
 3735TIP3    H111211   3.779   0.340   1.710  0.3381  0.3742  2.1243
 3735TIP3    H211212   3.774   0.214   1.794 -0.4365 -2.2186 -1.5540
 3736TIP3   OH211213   1.676   3.069   3.235 -0.2195  0.2506 -0.3235
 3736TIP3    H111214   1.724   2.992   3.267 -0.1541  0.2262 -0.4785
 3736TIP3    H211215   1.629   3.101   3.312 -0.6372 -0.2335 -0.3725
 3737TIP3   OH211216   2.023   2.122   0.720 -0.2916 -0.3880 -0.1777
 3737TIP3    H111217   1.930   2.109   0.740 -0.4837  0.3894 -0.5472
 3737TIP3    H211218   2.025   2.142   0.626  0.1434  0.6072  0.0336
 3738TIP3   OH211219   0.979   1.243   3.699  0.4374  0.1729 -0.4196
 3738TIP3    H111220   0.964   1.246   3.793  0.9225  0.0237 -0.3385
 3738TIP3    H211221   1.042   1.172   3.686  0.0513 -0.0860 -0.9000
 3739TIP3   OH211222   5.705   1.275   4.470 -0.2023 -0.7787  0.0240
 3739TIP3    H111223   5.684   1.251   4.560  1.5993  0.3098  0.7977
 3739TIP3    H211224   5.661   1.359   4.456 -2.0905 -1.8410 -0.8448
 3740TIP3   OH211225   4.700   1.041   0.514  0.4928 -0.2607  0.3671
 3740TIP3    H111226   4.736   1.111   0.568  0.1621 -1.4213  2.1657
 3740TIP3    H211227   4.757   1.038   0.436  2.1209  0.2611  1.4942
 3741TIP3   OH211228   2.867   5.282   2.359 -0.7721  0.2618 -0.5575
 3741TIP3    H111229   2.788   5.290   2.412 -0.5530  2.5482 -0.4749
 3741TIP3    H211230   2.847   5.211   2.297 -2.5326  0.1904  0.0303
 3742TIP3   OH211231   4.230   0.665   0.744 -0.2254 -0.2670 -0.1151
 3742TIP3    H111232   4.309   0.689   0.697 -0.2681 -0.6233 -0.3696
 3742TIP3    H211233   4.207   0.578   0.711 -0.9573  0.0096 -0.3552
 3743TIP3   OH211234   5.555   4.216   0.163  0.3002 -0.1299  0.1804
 3743TIP3    H111235   5.482   4.270   0.193  0.6835  0.6546 -0.2683
 3743TIP3    H211236   5.527   4.126   0.180  0.2629  0.2344  2.3295
 3744TIP3   OH211237   1.036   0.235   1.367 -0.4083  0.3301 -0.2289
 3744TIP3    H111238   0.967   0.280   1.416 -1.1440 -0.6730 -0.3309
 3744TIP3    H211239   1.093   0.306   1.336 -0.6295  1.0660  0.9981
 3745TIP3   OH211240   2.693   2.209   1.066  0.1232 -0.2615 -0.6768
 3745TIP3    H111241   2.610   2.200   1.019  0.3441  0.8868 -1.3284
 3745TIP3    H211242   2.707   2.303   1.071  0.3651 -0.3674  1.2801
 3746TIP3   OH211243   5.975   5.998   4.905  0.1285  0.6903  0.1337
 3746TIP3    H111244   5.897   5.942   4.904  0.8136 -0.3308  1.0741
 3746TIP3    H211245   6.039   5.950   4.851  0.7472  0.5076  1.0076
 3747TIP3   OH211246   5.327   2.430   4.575 -0.0142  0.3100  0.7431
 3747TIP3    H111247   5.355   2.490   4.643  1.4275  1.1395 -0.5089
 3747TIP3    H211248   5.369   2.462   4.495  0.1478 -1.8711 -0.1404
 3748TIP3   OH211249   0.303   4.179   2.340 -0.1807  0.1218  0.1757
 3748TIP3    H111250   0.213   4.149   2.327 -0.3983  0.8497 -0.0687
 3748TIP3    H211251   0.299   4.273   2.324  0.9125 -0.0595 -1.3950
 3749TIP3   OH211252   2.204   1.209   3.707 -0.5298  0.8015 -0.2481
 3749TIP3    H111253   2.202   1.114   3.717  0.5439  0.8315  0.3539
 3749TIP3    H211254   2.279   1.238   3.759  0.7481  1.7292 -2.4841
 3750TIP3   OH211255   5.421   0.465   1.235 -0.5199 -0.0078  0.2240
 3750TIP3    H111256   5.388   0.523   1.304  0.8742  0.3963  0.5958
 3750TIP3    H211257   5.346   0.452   1.177 -1.1720  1.3175  0.7099
 3751TIP3   OH211258   5.583   0.941   1.198 -0.2245  0.7481  0.1020
 3751TIP3    H111259   5.547   0.880   1.134  0.0634  1.2611 -0.5630
 3751TIP3    H211260   5.526   1.018   1.191  0.8073  1.4675 -0.7756
 3752TIP3   OH211261   2.631   2.701   2.036 -0.6525 -0.4009  0.1431
 3752TIP3    H111262   2.672   2.622   2.070  0.2838  0.4324  1.0118
 3752TIP3    H211263   2.655   2.703   1.944  0.8587 -0.2173  0.5099
 3753TIP3   OH211264   0.489   2.242   0.222  0.2039  0.8845 -0.0822
 3753TIP3    H111265   0.457   2.221   0.310  1.0097  2.2197  0.5579
 3753TIP3    H211266   0.415   2.287   0.180 -0.0079  0.7112  0.1040
 3754TIP3   OH211267   0.424   1.978   4.436  0.0411  0.0580  0.1794
 3754TIP3    H111268   0.417   1.950   4.345 -1.4964  0.8049  0.0426
 3754TIP3    H211269   0.385   2.065   4.438  1.1268  0.5513  1.3361
 3755TIP3   OH211270   5.418   3.103   3.723 -0.2923  0.2255 -0.1221
 3755TIP3    H111271   5.329   3.067   3.720 -0.3290  0.3362 -0.3772
 3755TIP3    H211272   5.465   3.047   3.785 -0.6931  0.5005  0.4475
 3756TIP3   OH211273   5.755   2.909   0.994  0.4370  0.0923 -0.2971
 3756TIP3    H111274   5.667   2.883   1.021 -0.1155  2.2099  0.0807
 3756TIP3    H211275   5.741   2.974   0.925  1.6484  1.5364  0.7603
 3757TIP3   OH211276   2.195   2.245   0.913  0.2264 -0.1758 -0.0933
 3757TIP3    H111277   2.142   2.309   0.959 -0.5883 -0.7002 -0.2888
 3757TIP3    H211278   2.139   2.213   0.843  0.3183 -1.6898  0.4903
 3758TIP3   OH211279   5.533   3.485   5.004  0.5433 -0.1601  0.3217
 3758TIP3    H111280   5.568   3.403   5.039  0.9093  0.2317  0.8949
 3758TIP3    H211281   5.568   3.552   5.062  0.0515  0.3827 -0.0012
 3759TIP3   OH211282   0.707   2.131   2.838 -0.6829 -0.3622 -0.5620
 3759TIP3    H111283   0.686   2.211   2.790  0.0931  0.2431  0.0815
 3759TIP3    H211284   0.781   2.094   2.791  0.0407  0.2011  0.1049
 3760TIP3   OH211285   3.847   1.094   0.469 -0.1864  0.1226  0.0244
 3760TIP3    H111286   3.757   1.114   0.442  0.4420  3.5885  0.0394
 3760TIP3    H211287   3.900   1.108   0.391  0.6016  0.5943  0.6277
 3761TIP3   OH211288   0.155   1.430   2.141 -0.3810  0.4844  0.4275
 3761TIP3    H111289   0.106   1.444   2.222 -1.0033  0.0069  0.1432
 3761TIP3    H211290   0.116   1.351   2.103  0.8381 -0.1182  0.3625
 3762TIP3   OH211291   2.934   5.269   0.391 -0.4879  0.1737  0.2128
 3762TIP3    H111292   2.985   5.256   0.471 -1.8730  1.2807  1.3175
 3762TIP3    H211293   2.848   5.232   0.411 -0.6012 -0.3300 -1.1025
 3763TIP3   OH211294   0.051   2.112   4.715  0.4786 -0.3236 -0.1407
 3763TIP3    H111295   0.123   2.114   4.651  0.4013 -0.8816 -0.2447
 3763TIP3    H211296   0.070   2.185   4.774  1.7440 -1.1560  0.5039
 3764TIP3   OH211297   2.717   4.702   1.556 -0.1796  0.7403  0.2808
 3764TIP3    H111298   2.675   4.639   1.615 -1.6602  0.4746 -0.9652
 3764TIP3    H211299   2.808   4.673   1.551 -0.1924  0.3410  1.8276
 3765TIP3   OH211300   2.940   3.539   0.442 -0.7401  0.2274 -0.5661
 3765TIP3    H111301   3.002   3.536   0.515  0.0298  1.8757 -1.1062
 3765TIP3    H211302   2.873   3.475   0.465  1.5701 -2.3237 -0.3905
 3766TIP3   OH211303   3.327   1.095   1.966 -0.1094  0.1935 -0.1248
 3766TIP3    H111304   3.364   1.115   1.880  0.0871 -0.3925 -0.1837
 3766TIP3    H211305   3.233   1.089   1.951  0.0779 -2.1367 -0.7946
 3767TIP3   OH211306   0.120   4.414   2.050 -0.1050  0.1955  1.6417
 3767TIP3    H111307   0.134   4.502   2.087 -1.0953  1.8657 -1.6020
 3767TIP3    H211308   0.207   4.375   2.048  0.9328  2.4093  0.2578
 3768TIP3   OH211309   2.943   3.038   0.562 -0.4500 -0.4599 -0.1422
 3768TIP3    H111310   3.000   3.070   0.632  0.5940  1.2518 -1.6541
 3768TIP3    H211311   3.004   3.006   0.495 -1.3074  0.0345 -1.1877
 3769TIP3   OH211312   1.958   4.714   3.241 -0.2200  0.1980  0.3406
 3769TIP3    H111313   2.028   4.714   3.306 -1.2924 -1.5992  1.6158
 3769TIP3    H211314   1.909   4.794   3.259  0.4512  0.5427  0.6602
 3770TIP3   OH211315   3.982   5.071   3.485 -0.1339 -0.0583  0.2968
 3770TIP3    H111316   3.976   4.996   3.427  1.2961 -0.3122  0.4578
 3770TIP3    H211317   3.924   5.049   3.559 -0.2481 -0.6895  0.0233
 3771TIP3   OH211318   3.039   3.616   1.622 -0.2368 -0.1853 -0.2626
 3771TIP3    H111319   3.027   3.686   1.557 -0.5712 -0.0885 -0.1014
 3771TIP3    H211320   3.083   3.658   1.695  1.6561 -0.6576 -1.0625
 3772TIP3   OH211321   2.737   2.646   3.001  0.2679 -0.7280 -0.3554
 3772TIP3    H111322   2.824   2.687   2.997 -0.0957  0.1415  0.2499
 3772TIP3    H211323   2.679   2.717   3.029 -0.2808 -1.8180  1.4418
 3773TIP3   OH211324   2.758   0.960   2.150  0.3334  0.2731 -0.1419
 3773TIP3    H111325   2.667   0.951   2.178  0.7315  0.6733  1.4291
 3773TIP3    H211326   2.768   1.052   2.129  1.2104  1.1209  3.2729
 3774TIP3   OH211327   6.119   5.654   0.338 -0.4462  0.4962 -0.1280
 3774TIP3    H111328   6.089   5.626   0.424 -0.5889 -0.7380 -0.5577
 3774TIP3    H211329   6.167   5.735   0.354  1.1702 -0.6856  1.3670
 3775TIP3   OH211330   2.848   5.538   2.780 -0.2034  0.2505  0.6058
 3775TIP3    H111331   2.787   5.611   2.794 -0.8690 -0.3043  0.6552
 3775TIP3    H211332   2.903   5.566   2.708 -0.7309  0.6343  0.3490
 3776TIP3   OH211333   0.761   0.543   0.162 -0.2859 -0.0785  0.3041
 3776TIP3    H111334   0.712   0.488   0.102 -1.1599 -0.8300  1.6562
 3776TIP3    H211335   0.792   0.483   0.230  0.5533  0.7620  0.6997
 3777TIP3   OH211336   1.248   4.797   3.351 -0.3860 -0.1268 -0.4520
 3777TIP3    H111337   1.234   4.820   3.260 -0.5449 -3.0345 -1.2646
 3777TIP3    H211338   1.337   4.826   3.370  0.2142 -0.8495 -2.0390
 3778TIP3   OH211339   1.275   4.934   1.342 -0.2957  0.1932 -0.4098
 3778TIP3    H111340   1.287   4.858   1.399  0.7961  1.6242  1.3925
 3778TIP3    H211341   1.194   4.975   1.373 -0.5028  0.1629 -0.8981
 3779TIP3   OH211342   1.605   4.726   2.983  0.6906 -0.4176  0.3991
 3779TIP3    H111343   1.691   4.732   2.941  0.5043  1.1079  0.1670
 3779TIP3    H211344   1.557   4.661   2.931  0.9390  0.4060 -0.9118
 3780TIP3   OH211345   1.804   0.770   2.808  0.6112 -0.8506 -0.2616
 3780TIP3    H111346   1.799   0.782   2.902 -1.2717  3.0374 -0.6723
 3780TIP3    H211347   1.725   0.721   2.786 -0.7644  1.1171 -0.0155
 3781TIP3   OH211348   1.686   5.946   0.067 -0.8060  0.1681  0.1515
 3781TIP3    H111349   1.739   5.910   0.138  2.1654 -3.7311 -3.4957
 3781TIP3    H211350   1.747   6.001   0.017 -1.9326  0.4631 -0.9478
 3782TIP3   OH211351   5.974   4.712   4.778  0.4021 -0.5214 -0.1174
 3782TIP3    H111352   6.010   4.676   4.697  1.3202 -1.0893  0.5269
 3782TIP3    H211353   6.043   4.700   4.843 -0.5188 -0.5924  0.8861
 3783TIP3   OH211354   6.083   2.034   1.490  0.1228  0.3254  0.3972
 3783TIP3    H111355   6.011   1.972   1.477  1.2637 -0.8925 -0.3525
 3783TIP3    H211356   6.150   2.006   1.428  1.4974  1.0323  1.5165
 3784TIP3   OH211357   1.203   0.018   4.879  0.6149  0.1407 -0.3160
 3784TIP3    H111358   1.150   0.047   4.954  0.7184  0.4999 -0.3840
 3784TIP3    H211359   1.165   0.063   4.804 -0.3327 -1.2096 -0.6987
 3785TIP3   OH211360   4.683   1.939   5.018  0.4161 -0.2978  0.7932
 3785TIP3    H111361   4.599   1.948   4.974  0.8215 -0.0902  0.0397
 3785TIP3    H211362   4.695   2.021   5.065  0.6902  0.1195  0.0083
 3786TIP3   OH211363   3.535   4.844   1.541  0.0519  0.4948 -0.7860
 3786TIP3    H111364   3.469   4.843   1.471 -0.9135  0.5281  0.0868
 3786TIP3    H211365   3.509   4.918   1.597  1.3472  1.0423 -0.8740
 3787TIP3   OH211366   1.314   3.000   1.836  0.3116  1.0032  0.1734
 3787TIP3    H111367   1.343   3.004   1.746 -0.9713  0.3766 -0.2987
 3787TIP3    H211368   1.393   2.981   1.887  1.4852  3.6641 -0.5105
 3788TIP3   OH211369   0.785   5.123   0.407  0.1384  0.2217 -0.5127
 3788TIP3    H111370   0.786   5.097   0.315 -1.2122  0.4701 -0.6143
 3788TIP3    H211371   0.740   5.051   0.451 -0.5727  0.8121 -0.2750
 3789TIP3   OH211372   2.005   5.231   0.873  0.5278 -0.1307 -0.0275
 3789TIP3    H111373   2.084   5.190   0.909 -0.7773 -2.7695  0.0616
 3789TIP3    H211374   2.005   5.206   0.781 -0.4365 -0.5769  0.0823
 3790TIP3   OH211375   4.235   1.717   0.601 -1.1725 -0.1233 -0.1204
 3790TIP3    H111376   4.215   1.717   0.694 -2.3066  0.9090 -0.3418
 3790TIP3    H211377   4.219   1.627   0.572 -2.1302 -0.1255  0.4098
 3791TIP3   OH211378   5.616   0.938   1.672  0.1251  0.1263  0.3553
 3791TIP3    H111379   5.596   1.030   1.655 -1.1020 -0.3847 -1.2522
 3791TIP3    H211380   5.685   0.940   1.739  1.3267  2.2494 -0.8262
 3792TIP3   OH211381   2.401   1.771   4.229 -0.6519  0.1384 -0.1732
 3792TIP3    H111382   2.328   1.748   4.286  0.6315  0.6628  1.7701
 3792TIP3    H211383   2.409   1.867   4.237  0.5087  0.0471  0.0305
 3793TIP3   OH211384   1.864   0.083   1.456  0.3780  0.3183  0.2929
 3793TIP3    H111385   1.871   0.149   1.525 -0.0875  1.7347 -0.9505
 3793TIP3    H211386   1.774   0.092   1.424 -0.0942 -1.8085  0.9228
 3794TIP3   OH211387   2.490   4.771   5.002  0.3492 -0.2897 -0.3294
 3794TIP3    H111388   2.471   4.862   4.977  0.3546 -0.1970 -0.0032
 3794TIP3    H211389   2.556   4.778   5.071 -0.3757 -0.4906  0.4023
 3795TIP3   OH211390   2.426   0.949   1.901  0.2931 -0.0001  0.7263
 3795TIP3    H111391   2.418   0.935   1.996  0.5965 -0.3043  0.7097
 3795TIP3    H211392   2.410   0.863   1.863  0.6080  0.0276  0.5270
 3796TIP3   OH211393   3.530   3.749   2.560  0.3994 -0.3037  0.0268
 3796TIP3    H111394   3.438   3.723   2.553  0.2727  0.1553 -0.0530
 3796TIP3    H211395   3.533   3.836   2.521  0.3127  0.9444  2.5982
 3797TIP3   OH211396   2.659   0.160   3.307  0.1096  0.5356  0.4166
 3797TIP3    H111397   2.621   0.224   3.248 -1.4895 -0.7987 -0.0935
 3797TIP3    H211398   2.726   0.116   3.254  0.0245  0.6390  0.2215
 3798TIP3   OH211399   5.468   0.623   5.165  0.0718  0.0171 -0.0532
 3798TIP3    H111400   5.551   0.649   5.125 -0.9247 -0.4688 -2.6389
 3798TIP3    H211401   5.489   0.547   5.219  1.2686 -0.1937 -0.7963
 3799TIP3   OH211402   4.864   4.261   3.875 -0.1082  0.2430 -0.7870
 3799TIP3    H111403   4.780   4.267   3.920 -0.3562 -0.0283 -1.2093
 3799TIP3    H211404   4.843   4.227   3.788  0.3084  1.1327 -1.2599
 3800TIP3   OH211405   4.031   2.034   4.341  0.3503  0.0245  0.2471
 3800TIP3    H111406   4.090   2.098   4.303  0.8362  1.4911  3.1598
 3800TIP3    H211407   4.044   1.955   4.289  1.4058  1.6215 -2.0675
 3801TIP3   OH211408   2.687   2.495   0.989  0.5391 -0.0561  0.2526
 3801TIP3    H111409   2.625   2.540   1.047  0.2473  0.0287 -0.1228
 3801TIP3    H211410   2.668   2.530   0.902  0.0142 -1.2133 -0.1207
 3802TIP3   OH211411   5.640   5.441   3.793 -0.2372  0.2547 -0.4013
 3802TIP3    H111412   5.555   5.458   3.753  0.0914 -1.0918 -1.7386
 3802TIP3    H211413   5.703   5.486   3.736 -0.0678  1.9894  1.0608
 3803TIP3   OH211414   1.770   3.050   4.637 -0.4220 -0.0591 -0.0246
 3803TIP3    H111415   1.852   3.098   4.625 -1.5690  1.3856 -3.0289
 3803TIP3    H211416   1.704   3.118   4.648 -1.3382 -1.1877  1.8166
 3804TIP3   OH211417   1.773   2.225   1.469  0.7210  0.2476  0.6005
 3804TIP3    H111418   1.789   2.289   1.538  1.0468 -0.8015  1.5245
 3804TIP3    H211419   1.678   2.212   1.471  0.5483  1.3016 -0.1568
 3805TIP3   OH211420   4.287   3.407   2.490 -0.3465  0.1556 -0.0146
 3805TIP3    H111421   4.367   3.457   2.504  0.5892 -1.2973  0.0465
 3805TIP3    H211422   4.283   3.347   2.565 -1.9582  0.7851  0.4341
 3806TIP3   OH211423   6.197   5.243   1.044 -0.3406  0.4048 -0.0076
 3806TIP3    H111424   6.163   5.222   0.957 -2.7776 -1.3067  1.2389
 3806TIP3    H211425   6.134   5.305   1.081 -0.2339 -0.1140  1.0908
 3807TIP3   OH211426   3.342   1.871   1.786  0.0032  0.2540 -0.1208
 3807TIP3    H111427   3.288   1.803   1.748  1.2361 -0.5753 -0.4493
 3807TIP3    H211428   3.411   1.887   1.721  1.3407 -0.1923  1.1236
 3808TIP3   OH211429   1.224   1.615   0.521 -0.0454 -0.0630  0.0268
 3808TIP3    H111430   1.317   1.592   0.511  0.5908  0.7571  2.8749
 3808TIP3    H211431   1.178   1.531   0.522  0.9286 -0.6073  0.3996
 3809TIP3   OH211432   6.346   0.080   3.821  0.2212 -0.0751  0.6281
 3809TIP3    H111433   6.273   0.129   3.859  0.1694 -0.2227  0.7223
 3809TIP3    H211434   6.396   0.049   3.896  0.7728  0.6037  0.5525
 3810TIP3   OH211435   4.226   0.081   0.479 -0.0911 -0.1004  0.5434
 3810TIP3    H111436   4.230   0.176   0.468 -2.1129 -0.0993 -0.5702
 3810TIP3    H211437   4.239   0.046   0.391 -2.7207 -0.6692  0.2954
 3811TIP3   OH211438   6.138   4.689   5.001 -0.1261  0.2310  0.2879
 3811TIP3    H111439   6.073   4.726   5.061 -0.7707  1.0734 -0.8770
 3811TIP3    H211440   6.214   4.746   5.009 -0.0601  0.0936  0.6186
 3812TIP3   OH211441   2.687   4.479   3.249 -0.1306  0.3609 -0.1009
 3812TIP3    H111442   2.616   4.418   3.232 -2.7213  2.2602  2.7178
 3812TIP3    H211443   2.765   4.425   3.257 -1.9213 -2.3001  0.3604
 3813TIP3   OH211444   0.253   1.892   2.394 -0.4084 -0.2299  0.2206
 3813TIP3    H111445   0.233   1.814   2.342 -0.2512 -0.7060  0.8583
 3813TIP3    H211446   0.176   1.948   2.384  0.0983  0.2317 -1.4782
 3814TIP3   OH211447   1.215   5.132   1.942  0.6088  0.3641  0.2352
 3814TIP3    H111448   1.287   5.068   1.941  0.3264  0.0220 -1.5818
 3814TIP3    H211449   1.223   5.175   2.028  1.1440 -1.6960  1.2910
 3815TIP3   OH211450   3.209   3.882   1.676 -0.3089 -0.0798 -0.4464
 3815TIP3    H111451   3.132   3.889   1.732  0.0180  0.2233 -0.0245
 3815TIP3    H211452   3.244   3.972   1.673 -0.8108  0.0944 -1.8397
 3816TIP3   OH211453   0.802   3.970   4.159 -0.0659 -0.1705 -0.9591
 3816TIP3    H111454   0.882   3.964   4.211 -0.5726 -0.7603 -0.2178
 3816TIP3    H211455   0.739   4.011   4.219 -0.1045  1.0577 -1.8082
 3817TIP3   OH211456   1.843   3.823   2.079 -0.5535  0.1296 -0.4049
 3817TIP3    H111457   1.748   3.829   2.089 -0.6028 -0.4239 -0.5464
 3817TIP3    H211458   1.858   3.845   1.987 -0.5170  0.4711 -0.3205
 3818TIP3   OH211459   4.796   4.600   3.997  0.4247  0.4524 -0.2237
 3818TIP3    H111460   4.874   4.573   4.046  1.3004  0.7057 -1.4627
 3818TIP3    H211461   4.724   4.554   4.041  1.5076 -1.4498 -0.3293
 3819TIP3   OH211462   3.573   0.917   2.353  0.2116  0.5653 -0.2870
 3819TIP3    H111463   3.654   0.892   2.398 -0.0498  0.9615  0.4138
 3819TIP3    H211464   3.517   0.952   2.422  0.2813  2.4018 -1.1095
 3820TIP3   OH211465   4.016   3.212   0.601 -0.0652 -0.2566  0.0520
 3820TIP3    H111466   3.999   3.213   0.507 -0.6906 -0.9683  0.1472
 3820TIP3    H211467   3.963   3.139   0.634 -0.7674  0.7136  1.1247
 3821TIP3   OH211468   4.256   1.926   3.205 -0.0356 -0.2252  0.0327
 3821TIP3    H111469   4.266   2.019   3.183  0.6754 -0.1512  0.6110
 3821TIP3    H211470   4.208   1.926   3.288  0.4297 -0.3477  0.3058
 3822TIP3   OH211471   1.223   1.666   1.112  0.1070  0.0102  0.1852
 3822TIP3    H111472   1.245   1.658   1.019 -1.2188 -0.4159 -0.1146
 3822TIP3    H211473   1.244   1.757   1.134 -2.4642  1.0956 -1.3973
 3823TIP3   OH211474   0.929   5.282   4.122  0.0098  0.7609 -0.5641
 3823TIP3    H111475   0.947   5.255   4.212  0.1320 -0.4974 -0.9416
 3823TIP3    H211476   0.834   5.270   4.113  0.2344 -0.9853 -1.1371
 3824TIP3   OH211477   0.930   1.455   4.501  0.3682  0.7274 -0.0863
 3824TIP3    H111478   1.023   1.433   4.494 -0.3445 -3.2462  0.5902
 3824TIP3    H211479   0.892   1.424   4.418 -0.5949  0.7426  0.3430
 3825TIP3   OH211480   4.314   5.558   0.695  0.8033  0.1557 -0.2041
 3825TIP3    H111481   4.356   5.580   0.778  0.8546 -0.0888 -0.1643
 3825TIP3    H211482   4.222   5.544   0.717  0.5051  1.5844 -0.4370
 3826TIP3   OH211483   4.881   5.702   0.053 -0.1843  0.0537  0.5291
 3826TIP3    H111484   4.813   5.745   0.002 -2.2315 -1.8744  1.4442
 3826TIP3    H211485   4.882   5.749   0.137  2.6408  2.7228 -0.8031
 3827TIP3   OH211486   6.073   4.134   5.056 -0.5004  0.1846 -0.2031
 3827TIP3    H111487   6.162   4.120   5.023 -0.7776 -1.4600 -0.3558
 3827TIP3    H211488   6.082   4.202   5.123  0.8561  0.0925 -0.2651
 3828TIP3   OH211489   2.850   0.913   0.558 -0.1821  0.3591 -0.3849
 3828TIP3    H111490   2.823   0.897   0.468 -0.9910 -1.2488  0.1103
 3828TIP3    H211491   2.822   0.835   0.606  0.4544  1.0703  1.2163
 3829TIP3   OH211492   1.967   3.928   2.352 -0.5788  1.0530  0.6487
 3829TIP3    H111493   1.921   3.861   2.301 -0.0248  1.4796 -0.4334
 3829TIP3    H211494   1.927   3.923   2.439 -1.4298  0.1994  0.2272
 3830TIP3   OH211495   4.954   0.110   3.402 -0.1190 -0.0216 -0.2179
 3830TIP3    H111496   4.872   0.064   3.385 -1.1334  1.6573 -0.1227
 3830TIP3    H211497   4.982   0.077   3.487  0.7086 -2.4966 -1.3559
 3831TIP3   OH211498   0.094   3.422   0.801 -0.1385 -0.1015  0.3002
 3831TIP3    H111499   0.109   3.515   0.788 -0.0079 -0.1708 -0.0601
 3831TIP3    H211500  -0.001   3.412   0.794 -0.3353  0.2610  2.0925
 3832TIP3   OH211501   3.319   1.595   4.541 -0.2118  0.2225  0.0637
 3832TIP3    H111502   3.226   1.591   4.562 -0.0600 -0.5241  0.6076
 3832TIP3    H211503   3.330   1.535   4.468  0.0914 -0.8644  0.9704
 3833TIP3   OH211504   1.113   5.864   4.073  0.0822  0.3216  0.6930
 3833TIP3    H111505   1.099   5.840   4.165 -1.2009 -2.6999 -0.1556
 3833TIP3    H211506   1.027   5.894   4.042  0.4176  0.9741  0.3647
 3834TIP3   OH211507   2.828   1.132   3.002 -0.1210  0.0973  0.4568
 3834TIP3    H111508   2.830   1.207   2.942  2.5330  0.3267  0.7213
 3834TIP3    H211509   2.843   1.056   2.945 -1.0706 -0.0836  0.4246
 3835TIP3   OH211510   1.367   1.367   0.796  0.2077 -0.1943  0.1518
 3835TIP3    H111511   1.410   1.351   0.712  2.6661  1.8975  0.8906
 3835TIP3    H211512   1.306   1.293   0.806 -0.6704 -0.2121 -3.7020
 3836TIP3   OH211513   5.733   3.678   3.810 -0.5884 -0.1891 -0.4030
 3836TIP3    H111514   5.728   3.694   3.904  0.2833  0.9458 -0.5320
 3836TIP3    H211515   5.807   3.731   3.780  0.5182 -2.1541 -1.3997
 3837TIP3   OH211516   2.761   3.651   3.030 -0.6100  0.2280 -0.8247
 3837TIP3    H111517   2.814   3.571   3.033  1.8728  1.7834  0.5191
 3837TIP3    H211518   2.779   3.688   2.943  0.5247  0.7049 -0.4064
 3838TIP3   OH211519   5.303   0.628   1.444  0.0921  0.4985  0.4418
 3838TIP3    H111520   5.384   0.677   1.456  0.6014 -0.4831  1.1243
 3838TIP3    H211521   5.233   0.692   1.460  0.7362  1.0310  1.1747
 3839TIP3   OH211522   2.537   0.188   1.423  0.1032 -0.5684  0.0461
 3839TIP3    H111523   2.507   0.101   1.397 -0.8012 -0.2906  0.1304
 3839TIP3    H211524   2.621   0.198   1.378 -0.1320 -1.1913 -0.5563
 3840TIP3   OH211525   5.559   4.415   3.684  0.3047  0.0673 -0.4643
 3840TIP3    H111526   5.619   4.404   3.610  0.2369 -4.3267 -0.1291
 3840TIP3    H211527   5.472   4.416   3.644  0.3710  1.0255 -0.6054
 3841TIP3   OH211528   2.590   4.081   2.835  0.1060  0.2982  0.0976
 3841TIP3    H111529   2.565   4.144   2.767  1.0180  1.8291  1.1298
 3841TIP3    H211530   2.512   4.075   2.891  0.2830  1.1409  0.4453
 3842TIP3   OH211531   3.856   5.601   4.529  0.4751 -0.0223  0.4643
 3842TIP3    H111532   3.895   5.684   4.557  0.1072 -0.1120  1.2651
 3842TIP3    H211533   3.914   5.570   4.459 -0.2630  1.6699 -0.9547
 3843TIP3   OH211534   1.482   4.711   3.685 -0.5898  0.2193  0.1244
 3843TIP3    H111535   1.557   4.747   3.637 -0.2493 -1.5297 -0.7385
 3843TIP3    H211536   1.446   4.645   3.626 -0.9911 -1.0779  1.7605
 3844TIP3   OH211537   2.915   2.652   0.404  0.8050 -0.1890  0.3047
 3844TIP3    H111538   2.857   2.637   0.479 -0.9767 -0.8945 -1.1167
 3844TIP3    H211539   2.865   2.710   0.346  2.0428  0.1747 -0.4386
 3845TIP3   OH211540   4.734   0.870   2.848 -0.7661 -0.0183 -0.0630
 3845TIP3    H111541   4.673   0.824   2.791 -1.6144  0.9137  0.0664
 3845TIP3    H211542   4.763   0.804   2.911 -2.1514 -0.3195  0.2789
 3846TIP3   OH211543   3.318   2.674   1.241  0.5352  0.0424  0.1125
 3846TIP3    H111544   3.285   2.736   1.176  1.3426 -0.1552 -0.5013
 3846TIP3    H211545   3.297   2.588   1.204  0.6803 -0.0641  0.2809
 3847TIP3   OH211546   5.519   4.494   4.369 -0.1512  0.6584 -0.3236
 3847TIP3    H111547   5.442   4.469   4.420  0.6219  0.1381  0.6293
 3847TIP3    H211548   5.579   4.531   4.434  0.0274  1.9663 -1.2071
 3848TIP3   OH211549   3.492   2.008   1.597  0.0461  0.3757 -0.4627
 3848TIP3    H111550   3.518   2.085   1.648 -1.1443  0.7171 -0.3370
 3848TIP3    H211551   3.557   2.004   1.526 -0.6638  2.3556 -1.3021
 3849TIP3   OH211552   2.822   0.368   2.423 -0.0376  0.1084 -0.7259
 3849TIP3    H111553   2.837   0.454   2.384 -1.3670  0.5684 -0.2798
 3849TIP3    H211554   2.870   0.307   2.367 -0.2804  0.9753 -1.9059
 3850TIP3   OH211555   5.363   0.609   0.989  0.5097 -0.6910 -0.4821
 3850TIP3    H111556   5.435   0.584   1.047  0.2542  1.8888  1.0899
 3850TIP3    H211557   5.307   0.531   0.986  2.4664 -2.1719 -0.3883
 3851TIP3   OH211558   6.114   0.134   3.396  0.1783 -0.5965  0.3437
 3851TIP3    H111559   6.167   0.211   3.374  0.1004 -0.6842 -0.1742
 3851TIP3    H211560   6.028   0.153   3.357 -0.0199 -0.6789  0.7394
 3852TIP3   OH211561   5.555   1.294   0.586  0.1773 -0.5291 -0.1983
 3852TIP3    H111562   5.490   1.358   0.556 -0.1860 -0.9879 -0.3839
 3852TIP3    H211563   5.514   1.250   0.659  0.1682 -1.0099 -0.4908
 3853TIP3   OH211564   3.229   2.921   1.078  0.1333  0.0645 -0.2396
 3853TIP3    H111565   3.248   2.854   1.011  0.5115 -1.5016  1.3434
 3853TIP3    H211566   3.135   2.933   1.073  0.0052 -0.8628 -0.3218
 3854TIP3   OH211567   3.102   2.189   4.749  0.0603  0.2134  0.3452
 3854TIP3    H111568   3.084   2.222   4.836  0.2254  0.2609  0.3615
 3854TIP3    H211569   3.019   2.201   4.701  0.2895  1.1927  0.1746
 3855TIP3   OH211570   4.458   5.563   1.791  0.1149  0.5105 -0.0735
 3855TIP3    H111571   4.387   5.560   1.856  0.9703 -2.8035  0.9206
 3855TIP3    H211572   4.426   5.509   1.718  1.8457 -1.9732  0.8499
 3856TIP3   OH211573   1.016   2.844   1.898 -0.0769  0.1284  0.1937
 3856TIP3    H111574   1.055   2.831   1.985  1.1087  0.0973 -0.3225
 3856TIP3    H211575   1.090   2.861   1.841 -0.8669  0.4022 -0.7808
 3857TIP3   OH211576   6.020   2.885   0.905 -0.2378  0.3877 -0.0328
 3857TIP3    H111577   5.949   2.857   0.963  0.8163 -1.1231  0.6166
 3857TIP3    H211578   5.978   2.904   0.822 -1.5598  0.8305  0.7105
 3858TIP3   OH211579   3.941   3.354   3.923 -0.1289 -0.2017  0.5379
 3858TIP3    H111580   3.939   3.281   3.860  0.0690 -0.3624  0.7184
 3858TIP3    H211581   3.924   3.432   3.869  0.1004 -0.3315  0.2705
 3859TIP3   OH211582   2.579   0.296   2.911  0.1656  0.4136  0.2481
 3859TIP3    H111583   2.653   0.330   2.960  0.0047 -0.4345  1.1125
 3859TIP3    H211584   2.504   0.347   2.942 -0.0265 -0.4968  1.3176
 3860TIP3   OH211585   3.068   2.126   0.816  0.1161  0.4565 -0.3922
 3860TIP3    H111586   3.116   2.111   0.735 -0.1593  0.5836 -0.5804
 3860TIP3    H211587   3.029   2.041   0.837 -2.0529  0.9951 -1.8524
 3861TIP3   OH211588   3.208   3.617   0.066  0.3220 -0.2713 -0.3238
 3861TIP3    H111589   3.143   3.583   0.004  1.0546 -0.0746 -1.2173
 3861TIP3    H211590   3.224   3.706   0.037  1.4700 -0.5307 -0.5006
 3862TIP3   OH211591   1.391   3.177   0.571 -0.2039  0.0964 -0.3631
 3862TIP3    H111592   1.312   3.133   0.538 -0.4787  0.2228  0.1238
 3862TIP3    H211593   1.401   3.253   0.514 -1.3465  0.9692  0.5404
 3863TIP3   OH211594   0.774   4.467   3.516  0.0741  0.3494 -0.2723
 3863TIP3    H111595   0.856   4.434   3.552 -0.3832 -0.0685  0.4072
 3863TIP3    H211596   0.782   4.562   3.522 -0.3152  0.2999  1.7386
 3864TIP3   OH211597   0.949   5.457   4.811 -0.3415 -0.4417  0.0417
 3864TIP3    H111598   1.027   5.461   4.755 -2.1681 -0.7337 -2.7297
 3864TIP3    H211599   0.917   5.547   4.814  0.2212 -0.2562  1.4729
 3865TIP3   OH211600   4.269   3.619   4.658 -0.3593 -0.2666  0.4170
 3865TIP3    H111601   4.204   3.680   4.693 -0.4496 -0.7373  1.1111
 3865TIP3    H211602   4.249   3.613   4.565 -0.9734  0.0007  0.5234
 3866TIP3   OH211603   3.899   0.851   5.006  0.1915 -0.3188 -0.2485
 3866TIP3    H111604   3.990   0.831   5.030 -0.1930 -0.9318  0.7726
 3866TIP3    H211605   3.875   0.926   5.060 -0.9871 -2.2955  2.1674
 3867TIP3   OH211606   2.955   3.684   2.767  0.0682 -0.2804 -0.9300
 3867TIP3    H111607   3.002   3.764   2.791  0.1268 -0.1317 -1.5273
 3867TIP3    H211608   2.946   3.689   2.672 -2.1821  0.2899 -0.7496
 3868TIP3   OH211609   3.267   4.204   1.028  0.2962  0.5456  0.2290
 3868TIP3    H111610   3.296   4.275   0.970  0.0761  0.1086 -0.4345
 3868TIP3    H211611   3.171   4.204   1.018  0.3362 -0.2276 -0.2509
 3869TIP3   OH211612   5.465   3.373   2.045  0.4402 -0.1795  0.2430
 3869TIP3    H111613   5.487   3.380   2.138 -2.0905 -1.6488  1.0634
 3869TIP3    H211614   5.497   3.286   2.020  0.3365 -0.1437 -0.0129
 3870TIP3   OH211615   3.948   0.257   4.413  0.2879  0.0073 -0.2530
 3870TIP3    H111616   3.868   0.215   4.383  0.2492 -0.0526 -0.0640
 3870TIP3    H211617   3.927   0.351   4.415 -0.5107 -0.1633  1.9697
 3871TIP3   OH211618   0.561   4.246   3.789  0.2349 -0.0756  0.1614
 3871TIP3    H111619   0.534   4.324   3.739 -0.4997 -0.8645 -0.7119
 3871TIP3    H211620   0.656   4.240   3.774  0.4643  1.1573  0.9872
 3872TIP3   OH211621   3.290   0.167   3.582  0.0683 -0.4391  0.0420
 3872TIP3    H111622   3.326   0.253   3.560 -1.1908  0.0323 -0.2512
 3872TIP3    H211623   3.197   0.175   3.564 -0.0516 -1.9098 -0.0935
 3873TIP3   OH211624   0.122   2.996   4.823  0.3273  0.0311  0.0000
 3873TIP3    H111625   0.098   2.904   4.824 -0.6104  0.2013 -1.7708
 3873TIP3    H211626   0.148   3.012   4.732  1.5695  1.2611  0.5379
 3874TIP3   OH211627   3.632   2.575   3.092  0.7025  0.3966 -0.1168
 3874TIP3    H111628   3.563   2.626   3.050  0.7877  1.3770  0.8747
 3874TIP3    H211629   3.699   2.640   3.116 -0.0492  0.2076  2.9321
 3875TIP3   OH211630   2.658   4.704   4.646  0.2069  0.0040  0.3929
 3875TIP3    H111631   2.632   4.666   4.731  1.8711 -1.6707  0.2246
 3875TIP3    H211632   2.608   4.653   4.582  1.2153 -0.8464  0.2514
 3876TIP3   OH211633   4.955   5.986   4.961 -0.5414 -0.0838  0.3891
 3876TIP3    H111634   4.861   5.972   4.955 -0.4200 -0.5547 -0.5633
 3876TIP3    H211635   4.994   5.904   4.931  0.1793  0.2338  0.4285
 3877TIP3   OH211636   3.101   1.428   0.568  0.2239  0.2059  0.6914
 3877TIP3    H111637   3.187   1.386   0.572 -0.4108 -1.5005 -1.5035
 3877TIP3    H211638   3.096   1.481   0.648  2.1119 -1.9469  2.3498
 3878TIP3   OH211639   0.195   2.459   3.641 -0.0319  0.6368 -0.2523
 3878TIP3    H111640   0.193   2.376   3.594 -1.1952  0.7744 -0.4721
 3878TIP3    H211641   0.236   2.520   3.580  0.7234  0.2552 -0.1321
 3879TIP3   OH211642   3.616   3.207   3.706 -0.4463 -0.0065  0.4589
 3879TIP3    H111643   3.685   3.270   3.686 -0.6867  0.0095 -0.3861
 3879TIP3    H211644   3.618   3.197   3.801 -0.9842  1.9391  0.7100
 3880TIP3   OH211645   2.144   3.597   4.284  0.2372  0.3023 -0.0743
 3880TIP3    H111646   2.177   3.507   4.295  1.9778  1.0369  1.1740
 3880TIP3    H211647   2.157   3.616   4.191 -0.7825 -0.9391 -0.5036
 3881TIP3   OH211648   0.051   3.169   0.389 -0.4055 -0.7328  0.2416
 3881TIP3    H111649   0.082   3.247   0.436 -0.7609  0.3788 -1.3011
 3881TIP3    H211650  -0.036   3.153   0.426 -0.1848 -0.6386  0.8242
 3882TIP3   OH211651   4.696   2.764   1.020 -0.1449  0.5720  0.3066
 3882TIP3    H111652   4.613   2.809   1.003  0.7724  1.4408 -2.2838
 3882TIP3    H211653   4.763   2.823   0.987  1.3358 -1.1775  0.0202
 3883TIP3   OH211654   4.946   4.264   4.948 -0.1444  0.1060  0.4173
 3883TIP3    H111655   4.996   4.186   4.925  0.8438  0.2690  1.8570
 3883TIP3    H211656   4.970   4.282   5.039 -3.1817 -0.0152  1.3382
 3884TIP3   OH211657   4.786   1.813   3.271 -0.0769  0.3345 -0.2162
 3884TIP3    H111658   4.836   1.754   3.327 -1.2253 -0.6285 -0.1912
 3884TIP3    H211659   4.787   1.771   3.185  0.2247  0.9602 -0.5325
 3885TIP3   OH211660   3.096   5.334   1.036 -0.1963  0.2040  0.0542
 3885TIP3    H111661   3.102   5.428   1.052 -0.0178  0.3992 -1.0532
 3885TIP3    H211662   3.004   5.313   1.052 -0.0960  0.4244  0.9733
 3886TIP3   OH211663   2.484   4.807   3.696  0.4034  0.5906  0.0114
 3886TIP3    H111664   2.489   4.838   3.787  1.5228 -1.2283  0.6263
 3886TIP3    H211665   2.574   4.816   3.663  0.2377  0.1959 -0.5513
 3887TIP3   OH211666   1.743   2.710   4.030 -0.2827  0.3323  0.7082
 3887TIP3    H111667   1.721   2.639   3.969 -0.7763  1.0002  0.0781
 3887TIP3    H211668   1.671   2.712   4.092  0.3011 -0.4538  1.4164
 3888TIP3   OH211669   1.442   0.107   2.255  0.2760  0.2370 -0.7136
 3888TIP3    H111670   1.375   0.090   2.321  0.9559  1.2077  0.2664
 3888TIP3    H211671   1.427   0.041   2.188 -2.7431  1.4569 -1.4023
 3889TIP3   OH211672   4.737   3.447   2.124 -0.4899  0.0352 -0.0863
 3889TIP3    H111673   4.825   3.476   2.103 -1.5539  2.1773 -2.0472
 3889TIP3    H211674   4.716   3.381   2.058 -0.8617  0.6644 -0.6160
 3890TIP3   OH211675   5.859   0.707   2.109 -0.3179  0.5127  0.0873
 3890TIP3    H111676   5.790   0.643   2.128 -0.7834  0.8851 -0.3359
 3890TIP3    H211677   5.894   0.679   2.025 -0.0452  0.4148  0.2300
 3891TIP3   OH211678   6.289   3.758   0.751 -0.0378 -0.2535  0.2948
 3891TIP3    H111679   6.219   3.821   0.768  0.7684  0.4884  0.9522
 3891TIP3    H211680   6.302   3.713   0.835  1.7153  1.1225  0.8155
 3892TIP3   OH211681   0.769   2.790   3.274  0.2682 -0.3139 -0.1363
 3892TIP3    H111682   0.768   2.882   3.244  0.2123 -0.6907 -1.3539
 3892TIP3    H211683   0.862   2.767   3.275  0.5542  0.5824  2.9609
 3893TIP3   OH211684   0.413   0.528   0.855 -0.1669 -0.6136  0.1764
 3893TIP3    H111685   0.455   0.575   0.927  0.0862 -0.8452  0.1792
 3893TIP3    H211686   0.466   0.449   0.843  0.5154  0.0099 -1.0841
 3894TIP3   OH211687   0.687   5.343   0.220  0.5576  0.5090  0.1969
 3894TIP3    H111688   0.644   5.377   0.141 -0.9033  0.6548  1.0133
 3894TIP3    H211689   0.780   5.347   0.200  0.2217  0.2482 -1.6387
 3895TIP3   OH211690   5.422   4.759   1.445 -0.3220  0.1606  0.3843
 3895TIP3    H111691   5.445   4.849   1.423  0.3329 -0.1094 -0.0894
 3895TIP3    H211692   5.326   4.757   1.440 -0.4261  1.0875  1.4894
 3896TIP3   OH211693   1.889   5.603   1.889  0.6789  0.2013  0.2756
 3896TIP3    H111694   1.839   5.679   1.857  0.5562 -0.2140 -0.5289
 3896TIP3    H211695   1.832   5.563   1.955 -0.0873 -0.2905 -0.6629
 3897TIP3   OH211696   4.746   2.462   5.177 -0.2369  0.3030 -0.7587
 3897TIP3    H111697   4.819   2.512   5.140 -0.2532  0.3998 -0.6592
 3897TIP3    H211698   4.687   2.528   5.213 -0.0239  0.1902 -0.2002
 3898TIP3   OH211699   5.315   3.021   0.141  0.4062 -0.0224  0.1563
 3898TIP3    H111700   5.398   3.042   0.098  0.1325 -1.2447 -1.0404
 3898TIP3    H211701   5.327   2.932   0.174  0.0394  0.3060  1.1912
 3899TIP3   OH211702   3.961   1.133   0.174 -0.3061  0.1261 -0.5676
 3899TIP3    H111703   4.010   1.122   0.255 -0.6759 -0.6728 -0.4424
 3899TIP3    H211704   3.924   1.221   0.180  0.4769  0.4478 -0.3269
 3900TIP3   OH211705   1.156   3.074   0.098  0.6349 -0.0062 -0.1220
 3900TIP3    H111706   1.090   3.011   0.125 -0.6142  0.8058 -1.1515
 3900TIP3    H211707   1.186   3.043   0.012 -1.5674  1.8484 -1.6868
 3901TIP3   OH211708   3.583   4.651   4.475  0.3321 -0.4214 -0.1762
 3901TIP3    H111709   3.491   4.666   4.453  0.5000  1.1316  0.0667
 3901TIP3    H211710   3.627   4.642   4.390  0.2345  0.7355 -0.3593
 3902TIP3   OH211711   4.066   4.806   1.467 -0.0814 -0.2708 -0.0393
 3902TIP3    H111712   4.112   4.803   1.551  0.6580 -2.4950 -0.4596
 3902TIP3    H211713   4.112   4.743   1.412 -1.9522 -0.5677 -1.3706
 3903TIP3   OH211714   1.603   4.020   4.126  0.2730 -0.2161  0.4729
 3903TIP3    H111715   1.669   4.050   4.189  0.8526  0.3273 -0.3839
 3903TIP3    H211716   1.524   4.008   4.179  0.0934  2.4705  0.9573
 3904TIP3   OH211717   5.093   2.473   0.862 -0.2529 -0.2131  0.3100
 3904TIP3    H111718   5.145   2.504   0.936  1.9829 -0.0483 -1.2405
 3904TIP3    H211719   5.052   2.392   0.893  0.8631 -0.2909  1.6293
 3905TIP3   OH211720   3.354   0.926   2.555  0.1414 -0.1557 -0.4569
 3905TIP3    H111721   3.296   1.003   2.561  1.0889  0.4804  3.6908
 3905TIP3    H211722   3.294   0.851   2.559 -0.5833  0.4596  0.8231
 3906TIP3   OH211723   4.203   5.313   4.032  0.7772 -0.1790 -0.0183
 3906TIP3    H111724   4.197   5.392   4.086  0.6634 -1.8879  2.6761
 3906TIP3    H211725   4.295   5.285   4.041  1.0491  0.0671 -1.6878
 3907TIP3   OH211726   6.324   2.273   3.792  0.4649 -0.0154 -0.0965
 3907TIP3    H111727   6.323   2.296   3.699  1.0671  0.4719  0.0150
 3907TIP3    H211728   6.236   2.238   3.809 -0.0895  1.1137 -0.5466
 3908TIP3   OH211729   3.763   1.467   0.437  0.1245 -0.2293 -0.7227
 3908TIP3    H111730   3.828   1.435   0.500 -1.2156 -2.0038 -0.1418
 3908TIP3    H211731   3.804   1.454   0.351  1.1923  0.3333 -0.3119
 3909TIP3   OH211732   3.078   3.751   1.391 -0.2329 -0.0961 -0.0832
 3909TIP3    H111733   3.060   3.844   1.383 -2.1135 -0.4620 -0.7092
 3909TIP3    H211734   3.011   3.709   1.337 -0.2059 -1.8586  1.1491
 3910TIP3   OH211735   5.029   0.220   2.456 -0.2986 -0.1782 -0.9898
 3910TIP3    H111736   5.011   0.296   2.401 -1.1466  0.8626  0.6344
 3910TIP3    H211737   5.102   0.247   2.511 -0.4016 -0.6594 -0.6124
 3911TIP3   OH211738   4.650   4.524   0.691 -0.0772  0.2206 -0.7596
 3911TIP3    H111739   4.628   4.432   0.710  0.6477  0.2334  0.2544
 3911TIP3    H211740   4.566   4.564   0.667 -0.9246 -0.1275  1.3135
 3912TIP3   OH211741   2.258   3.789   3.013 -0.5428 -0.1040 -0.5385
 3912TIP3    H111742   2.328   3.726   3.000  0.0630  0.1830  1.0828
 3912TIP3    H211743   2.291   3.870   2.974 -0.8093 -0.4464 -1.5116
 3913TIP3   OH211744   5.933   5.349   2.418  0.4674  0.3873  0.5834
 3913TIP3    H111745   5.855   5.404   2.411  0.2605  0.3230  1.9977
 3913TIP3    H211746   5.899   5.261   2.436  0.8600  0.4045  1.4615
 3914TIP3   OH211747   3.416   0.481   4.335  0.8246 -0.4595  0.4020
 3914TIP3    H111748   3.471   0.552   4.367  0.7650  0.8211 -2.0835
 3914TIP3    H211749   3.327   0.507   4.358  0.8899 -0.2451  0.4132
 3915TIP3   OH211750   1.784   0.042   0.920 -0.5773 -0.1626 -0.2663
 3915TIP3    H111751   1.797  -0.037   0.972  0.0745 -0.3773 -0.7464
 3915TIP3    H211752   1.740   0.103   0.980 -0.3148 -0.5894  0.3734
 3916TIP3   OH211753   5.414   4.795   1.889  0.0366 -0.2850  0.6069
 3916TIP3    H111754   5.367   4.867   1.847  0.9030 -0.0787 -0.0479
 3916TIP3    H211755   5.355   4.721   1.883  0.0906 -0.2438 -0.9462
 3917TIP3   OH211756   4.443   1.539   3.194 -0.2641  0.6925 -0.4280
 3917TIP3    H111757   4.500   1.579   3.128  0.1879  0.7661  0.0041
 3917TIP3    H211758   4.368   1.507   3.144  0.2637  0.3822 -1.0467
 3918TIP3   OH211759   4.480   4.608   2.772 -0.3109  0.2413  0.1881
 3918TIP3    H111760   4.416   4.537   2.777  0.9467 -0.8988  0.9166
 3918TIP3    H211761   4.521   4.609   2.858 -0.0833  1.6748  0.0897
 3919TIP3   OH211762   0.388   5.420   0.779 -0.3084 -0.5624  0.0050
 3919TIP3    H111763   0.399   5.501   0.728 -0.4066 -0.2731  0.4345
 3919TIP3    H211764   0.311   5.437   0.834 -1.5803 -1.7073 -1.3331
 3920TIP3   OH211765   2.818   3.723   4.314  0.0689  0.4551 -0.4629
 3920TIP3    H111766   2.855   3.794   4.367  1.9050 -1.0679  0.4366
 3920TIP3    H211767   2.728   3.713   4.347 -0.2345  2.3182 -0.6207
 3921TIP3   OH211768   2.605   2.906   4.850 -0.0012 -0.2744  0.0476
 3921TIP3    H111769   2.583   2.951   4.769 -2.3274 -1.8440 -0.2650
 3921TIP3    H211770   2.649   2.825   4.822  2.7198  0.8968  0.5620
 3922TIP3   OH211771   5.818   4.346   0.313  0.2469 -0.1732 -0.5650
 3922TIP3    H111772   5.769   4.414   0.266  0.0426 -0.3611 -0.6210
 3922TIP3    H211773   5.777   4.264   0.288  1.3274 -0.4441 -1.5282
 3923TIP3   OH211774   4.923   0.265   3.168 -0.4422 -0.4051 -0.1535
 3923TIP3    H111775   4.942   0.215   3.247 -2.2987 -0.8788  0.0565
 3923TIP3    H211776   4.839   0.229   3.137 -1.4253  1.9912 -0.4772
 3924TIP3   OH211777   3.388   4.786   3.692  0.6061  0.0411  0.1393
 3924TIP3    H111778   3.352   4.872   3.712  2.4068  0.9893 -0.4411
 3924TIP3    H211779   3.329   4.724   3.736 -1.5468  1.4504 -0.6277
 3925TIP3   OH211780   5.241   0.842   1.700  0.5918  0.2275  0.3652
 3925TIP3    H111781   5.148   0.853   1.717  0.2750 -0.5817 -0.7330
 3925TIP3    H211782   5.253   0.875   1.611  1.2123 -0.3758  0.2216
 3926TIP3   OH211783   4.700   1.807   0.832  0.4707  0.2427  0.2332
 3926TIP3    H111784   4.692   1.734   0.770 -2.7602 -0.0255  0.7962
 3926TIP3    H211785   4.718   1.883   0.776  1.4098 -0.5647 -0.6109
 3927TIP3   OH211786   0.628   2.170   3.650 -0.1557  0.1888 -0.0558
 3927TIP3    H111787   0.609   2.250   3.601  1.6548 -0.3630 -1.7918
 3927TIP3    H211788   0.675   2.200   3.728 -2.4753  1.0299  1.0807
 3928TIP3   OH211789   1.465   0.135   5.017 -0.0204  0.3145  0.3429
 3928TIP3    H111790   1.401   0.187   4.968  0.1820 -0.4951 -0.8265
 3928TIP3    H211791   1.434   0.045   5.009 -0.1274  0.1792  1.9725
 3929TIP3   OH211792   0.905   0.095   1.132 -0.0820  0.0417  0.7727
 3929TIP3    H111793   0.935   0.153   1.062 -1.2323  1.2275  1.2114
 3929TIP3    H211794   0.933   0.139   1.213 -0.1059 -0.5271  1.0951
 3930TIP3   OH211795   3.338   5.179   0.708  0.2978 -0.0267  0.0512
 3930TIP3    H111796   3.321   5.187   0.802  0.7666  0.7298  0.0799
 3930TIP3    H211797   3.414   5.120   0.704  0.7203  0.4984  0.1935
 3931TIP3   OH211798   1.058   3.411   1.474  0.4001  0.2281 -0.2130
 3931TIP3    H111799   1.087   3.331   1.517  3.8641  1.0118 -0.8267
 3931TIP3    H211800   1.043   3.385   1.383  3.1541  0.4833 -0.8135
 3932TIP3   OH211801   3.501   5.076   2.098  0.0327  0.1752 -0.1939
 3932TIP3    H111802   3.439   5.007   2.075  0.7244 -0.5560  0.1309
 3932TIP3    H211803   3.447   5.144   2.138 -0.3288 -1.3114  2.0116
 3933TIP3   OH211804   0.592   2.984   2.312  0.0022 -0.3206 -0.6390
 3933TIP3    H111805   0.549   2.922   2.253 -0.5580  0.3327 -0.9326
 3933TIP3    H211806   0.678   2.945   2.329 -0.5994 -1.5350 -0.2453
 3934TIP3   OH211807   1.009   5.715   0.309 -0.1517 -0.2774 -0.0573
 3934TIP3    H111808   1.083   5.728   0.368 -0.8718 -0.4190  0.8988
 3934TIP3    H211809   0.951   5.789   0.326 -0.1915 -0.1045 -0.8854
 3935TIP3   OH211810   3.687   3.908   0.608 -0.2903  0.0050  0.2942
 3935TIP3    H111811   3.609   3.939   0.561 -0.6774 -0.1452  0.8259
 3935TIP3    H211812   3.737   3.860   0.542 -0.8354 -0.2193  0.0365
 3936TIP3   OH211813   1.532   5.161   1.182  0.0342 -0.5002 -0.5537
 3936TIP3    H111814   1.624   5.156   1.206 -0.1752 -0.9391  0.1731
 3936TIP3    H211815   1.488   5.196   1.259 -0.4661 -0.6901 -0.7451
 3937TIP3   OH211816   5.088   0.451   0.243 -0.0614 -0.4514  0.2250
 3937TIP3    H111817   5.142   0.516   0.289  0.9190  0.1513 -1.6553
 3937TIP3    H211818   5.141   0.426   0.167 -1.8439 -0.8920 -0.9334
 3938TIP3   OH211819   4.251   2.722   0.683  0.1877 -0.0322 -0.0035
 3938TIP3    H111820   4.163   2.745   0.653  0.5401  0.6783 -0.5187
 3938TIP3    H211821   4.237   2.654   0.749 -0.6531 -1.0623 -1.2011
 3939TIP3   OH211822   4.875   3.054   1.101  0.0781 -0.1293  0.1901
 3939TIP3    H111823   4.961   3.088   1.124 -0.2762  1.8759 -1.1351
 3939TIP3    H211824   4.893   2.975   1.050  1.0890 -0.2338  0.6882
 3940TIP3   OH211825   6.262   2.521   2.442 -0.6030 -0.4461 -0.7804
 3940TIP3    H111826   6.349   2.533   2.405 -0.0170 -1.1597  0.3124
 3940TIP3    H211827   6.269   2.440   2.493 -2.2590 -1.2142 -1.7040
 3941TIP3   OH211828   1.071   4.868   2.170 -0.4178  0.0567  0.0301
 3941TIP3    H111829   1.148   4.905   2.214  0.6076 -1.2707 -0.5677
 3941TIP3    H211830   1.020   4.944   2.143 -0.4164  0.9352  2.3054
 3942TIP3   OH211831   0.845   2.215   4.876  0.8902 -0.7599  0.2825
 3942TIP3    H111832   0.875   2.265   4.953 -1.7367  0.4835  0.6109
 3942TIP3    H211833   0.776   2.159   4.910 -0.3931 -0.1114 -1.1411
 3943TIP3   OH211834   5.466   5.343   2.148  0.4984 -0.0100 -0.3291
 3943TIP3    H111835   5.526   5.283   2.104  3.3789  2.7349 -0.4355
 3943TIP3    H211836   5.512   5.370   2.227 -0.8099  1.8428 -0.1492
 3944TIP3   OH211837   3.183   4.635   1.168 -0.3214  0.1764  0.1517
 3944TIP3    H111838   3.253   4.586   1.125 -0.2847  1.8051 -1.7702
 3944TIP3    H211839   3.103   4.612   1.121 -0.6067  0.5467  0.4363
 3945TIP3   OH211840   0.351   3.580   4.448  0.3237 -0.2162 -0.0790
 3945TIP3    H111841   0.355   3.666   4.489 -0.6085  0.0681 -0.5490
 3945TIP3    H211842   0.440   3.564   4.419  0.4099  0.8502 -0.4722
 3946TIP3   OH211843   5.249   1.392   0.950 -0.1859  0.2315  0.1739
 3946TIP3    H111844   5.260   1.421   1.041  0.8136  0.5954 -0.0517
 3946TIP3    H211845   5.338   1.385   0.916 -0.4993 -0.8134 -0.5074
 3947TIP3   OH211846   0.412   5.561   3.765 -0.6706  0.3591  0.2801
 3947TIP3    H111847   0.491   5.579   3.713  0.3773  1.1667  2.0634
 3947TIP3    H211848   0.347   5.623   3.733 -0.3023  0.3071 -0.5891
 3948TIP3   OH211849   4.917   1.980   3.073 -0.1762 -0.4322 -0.0946
 3948TIP3    H111850   4.860   1.969   3.149  2.0361  0.2166  1.7753
 3948TIP3    H211851   4.865   1.948   2.999 -2.1789 -1.7772  1.7636
 3949TIP3   OH211852   0.977   0.096   3.996 -0.2543 -0.2176  0.1228
 3949TIP3    H111853   0.998   0.005   4.018 -2.3451 -0.3799  1.8321
 3949TIP3    H211854   1.033   0.148   4.052 -1.5646 -0.5658  1.8360
 3950TIP3   OH211855   0.555   3.665   1.220  0.4556  0.1334 -0.0560
 3950TIP3    H111856   0.482   3.633   1.168  1.1114  0.7449 -1.4159
 3950TIP3    H211857   0.539   3.759   1.230  0.5454  0.0946  0.5118
 3951TIP3   OH211858   2.292   2.056   0.264 -0.1054 -0.3904 -0.2250
 3951TIP3    H111859   2.298   2.115   0.189 -1.3156  1.4168  1.0071
 3951TIP3    H211860   2.273   1.971   0.226 -1.6209  0.6429 -1.9412
 3952TIP3   OH211861   0.614   2.452   1.066  0.0490 -0.3378 -0.3620
 3952TIP3    H111862   0.537   2.472   1.013  0.4192 -1.1956 -1.2539
 3952TIP3    H211863   0.578   2.430   1.152 -0.5837  0.7690 -0.3235
 3953TIP3   OH211864   6.286   3.600   1.014 -0.6350  0.6652 -0.0389
 3953TIP3    H111865   6.248   3.613   1.101 -1.5863 -0.7214 -0.2111
 3953TIP3    H211866   6.293   3.505   1.006  1.0976  0.8242 -0.7942
 3954TIP3   OH211867   1.632   2.469   2.058  0.1912 -0.6735  0.2449
 3954TIP3    H111868   1.715   2.476   2.106 -0.3206  1.1164  0.9386
 3954TIP3    H211869   1.568   2.514   2.113 -1.0891 -1.3124 -0.6642
 3955TIP3   OH211870   1.046   4.739   4.405  0.2995  0.4794 -0.1595
 3955TIP3    H111871   1.076   4.816   4.454 -0.9186  0.6907  0.2834
 3955TIP3    H211872   1.118   4.676   4.414  0.7048  1.0372  0.7053
 3956TIP3   OH211873   0.847   0.216   2.962  0.0581  0.2204  0.3728
 3956TIP3    H111874   0.755   0.237   2.954 -0.3113 -0.5359  2.1062
 3956TIP3    H211875   0.888   0.297   2.993 -0.1850  0.3010  0.4841
 3957TIP3   OH211876   0.707   5.268   4.534  0.1032  0.2627  0.1586
 3957TIP3    H111877   0.617   5.293   4.515  0.5211  0.0216 -2.4407
 3957TIP3    H211878   0.760   5.342   4.506  0.8965 -0.8588 -1.4835
 3958TIP3   OH211879   1.272   5.600   0.499 -0.0931  0.4228  0.0878
 3958TIP3    H111880   1.280   5.616   0.593 -2.3899  1.2645  0.2142
 3958TIP3    H211881   1.220   5.519   0.493 -1.3798  1.2587 -0.4103
 3959TIP3   OH211882   5.270   0.376   1.595  0.6341 -0.2395  0.0770
 3959TIP3    H111883   5.211   0.378   1.671 -0.7427 -1.8526 -0.8789
 3959TIP3    H211884   5.235   0.444   1.536 -0.3883 -1.2284 -0.5120
 3960TIP3   OH211885   0.806   5.175   1.590 -0.6646 -1.0737  0.1243
 3960TIP3    H111886   0.847   5.193   1.675 -0.8756  1.8758 -0.2864
 3960TIP3    H211887   0.727   5.126   1.611 -0.1201 -1.3944  1.5105
 3961TIP3   OH211888   4.683   1.630   0.619 -0.1193 -0.0854 -0.0538
 3961TIP3    H111889   4.700   1.536   0.613 -1.0106 -0.3662  1.2491
 3961TIP3    H211890   4.687   1.662   0.529  0.0618 -1.3964 -0.5228
 3962TIP3   OH211891   1.919   1.990  -0.022 -0.1377  0.2519  0.0400
 3962TIP3    H111892   1.900   2.070   0.029  2.0161  0.7845  0.1200
 3962TIP3    H211893   1.930   1.922   0.044  0.0985  0.3611  0.1132
 3963TIP3   OH211894   4.144   5.692   5.163 -0.0245  0.2811 -0.0856
 3963TIP3    H111895   4.083   5.726   5.228 -0.0530 -0.6904  0.4190
 3963TIP3    H211896   4.090   5.642   5.102  0.1940 -0.1645  0.0787
 3964TIP3   OH211897   1.501   1.856   2.919  0.1502 -0.0876  0.3550
 3964TIP3    H111898   1.438   1.926   2.900  0.2543 -0.4446 -1.3954
 3964TIP3    H211899   1.478   1.828   3.008 -0.9054  1.0837  0.4887
 3965TIP3   OH211900   3.719   2.441   4.988 -0.0785 -0.3713 -0.0401
 3965TIP3    H111901   3.652   2.506   5.009  0.3803  0.4245 -0.9824
 3965TIP3    H211902   3.783   2.488   4.935  1.5124 -0.9706  1.2582
 3966TIP3   OH211903   1.399   4.526   1.008 -0.9095  0.1706 -0.1419
 3966TIP3    H111904   1.325   4.564   0.961 -0.8304 -0.6434 -0.9603
 3966TIP3    H211905   1.367   4.516   1.097 -1.2355  1.2883 -0.1145
 3967TIP3   OH211906   4.163   4.125   0.997  0.2542  0.3694  0.4043
 3967TIP3    H111907   4.068   4.120   0.990  0.1675  1.5317  0.5273
 3967TIP3    H211908   4.189   4.183   0.925  0.8094  0.5390  0.7335
 3968TIP3   OH211909   2.507   0.613   3.493 -0.1443 -0.2256  0.2459
 3968TIP3    H111910   2.445   0.679   3.523 -0.2764 -1.1724  2.2262
 3968TIP3    H211911   2.455   0.533   3.483  0.7133 -1.0587  2.0393
 3969TIP3   OH211912   0.999   1.748   4.354 -0.0969 -0.0600  0.3258
 3969TIP3    H111913   1.007   1.657   4.327  0.1541 -0.3945  1.4641
 3969TIP3    H211914   0.967   1.794   4.276 -3.5575 -1.6721  0.5946
 3970TIP3   OH211915   1.878   2.950   4.059  0.0379 -0.2918  0.3577
 3970TIP3    H111916   1.848   2.965   4.149 -1.9250  0.3036 -0.3367
 3970TIP3    H211917   1.835   2.869   4.033  0.7634 -0.5695  0.0071
 3971TIP3   OH211918   3.856   5.567   1.211  0.1402  0.2027 -0.3707
 3971TIP3    H111919   3.784   5.507   1.193 -1.3209  1.7709 -0.0212
 3971TIP3    H211920   3.853   5.581   1.305 -0.9850  2.4639 -0.6725
 3972TIP3   OH211921   4.754   2.205   2.841 -0.1057  0.5736  0.2994
 3972TIP3    H111922   4.794   2.128   2.800 -0.3424  0.2446  0.6740
 3972TIP3    H211923   4.828   2.259   2.867  0.0572  0.5719 -0.1521
 3973TIP3   OH211924   2.187   1.043   2.220  0.4581  0.1842  0.2395
 3973TIP3    H111925   2.222   1.124   2.183 -0.4408  0.9006  0.9111
 3973TIP3    H211926   2.254   0.977   2.202  0.3369  0.6187 -2.0939
 3974TIP3   OH211927   3.767   5.902   1.096  0.2519  0.3939  0.1862
 3974TIP3    H111928   3.797   5.821   1.139  0.6567  0.5201  0.1469
 3974TIP3    H211929   3.756   5.878   1.005  2.0532  0.7918 -0.1839
 3975TIP3   OH211930   4.192   5.213   2.224  0.6271 -0.2559 -0.2131
 3975TIP3    H111931   4.142   5.276   2.276  2.4417  0.7691  0.3959
 3975TIP3    H211932   4.130   5.144   2.204 -1.0071  0.9250  0.5244
 3976TIP3   OH211933   3.984   1.538   4.834 -0.4284 -0.0866 -0.2905
 3976TIP3    H111934   4.000   1.489   4.914 -0.1085  1.6208  0.7472
 3976TIP3    H211935   4.071   1.555   4.798 -0.5741 -0.8919 -1.0440
 3977TIP3   OH211936   6.205   4.671   2.487 -0.4593  0.4570 -0.0117
 3977TIP3    H111937   6.133   4.635   2.538 -1.7133  0.2820 -1.8254
 3977TIP3    H211938   6.284   4.641   2.532 -1.5032 -0.1613  1.4673
 3978TIP3   OH211939   5.541   4.094   2.240 -0.3821 -0.1438 -0.0264
 3978TIP3    H111940   5.619   4.139   2.207 -0.1925 -0.2557  0.2643
 3978TIP3    H211941   5.543   4.009   2.197  0.2566 -0.5649  0.8027
 3979TIP3   OH211942   3.687   4.556   4.251  0.0529 -0.1775 -0.2986
 3979TIP3    H111943   3.725   4.618   4.187 -0.5605  0.0522 -0.4469
 3979TIP3    H211944   3.640   4.493   4.197  0.9165 -0.9552 -0.1635
 3980TIP3   OH211945   2.950   5.073   3.987  0.2735  0.0719 -0.3744
 3980TIP3    H111946   2.872   5.125   3.966  1.5909  2.9789  1.3869
 3980TIP3    H211947   2.924   5.022   4.064  0.1337  1.1884  0.3365
 3981TIP3   OH211948   0.948   3.588   1.743 -0.2180  0.1949 -0.1756
 3981TIP3    H111949   0.925   3.644   1.817  0.7357 -0.9447  1.0209
 3981TIP3    H211950   1.023   3.537   1.772  0.6568  0.2107 -2.1970
 3982TIP3   OH211951   4.949   2.141   4.912  0.2034 -0.3645 -0.1566
 3982TIP3    H111952   4.997   2.224   4.899  0.0760 -0.1855  0.4726
 3982TIP3    H211953   4.858   2.163   4.892  0.0947 -0.2273  0.4619
 3983TIP3   OH211954   1.782   3.196   3.009 -0.1642 -0.2516 -0.1123
 3983TIP3    H111955   1.812   3.128   2.949  1.2307 -1.1796  1.5366
 3983TIP3    H211956   1.740   3.149   3.081 -1.4982  0.8055 -0.1613
 3984TIP3   OH211957   0.884   5.966   1.222 -0.4074  0.8018  0.1390
 3984TIP3    H111958   0.807   5.963   1.279  0.0559 -2.0247  0.7467
 3984TIP3    H211959   0.957   5.983   1.281 -0.0902 -0.7874  0.2433
 3985TIP3   OH211960   2.115   0.381   2.503 -0.7360 -0.1019 -0.1174
 3985TIP3    H111961   2.096   0.452   2.564  0.0936 -0.4735  0.6001
 3985TIP3    H211962   2.033   0.332   2.496 -1.6923  1.5675 -1.5469
 3986TIP3   OH211963   5.874   2.346   3.738  0.1409  0.8072  0.1033
 3986TIP3    H111964   5.926   2.270   3.711  0.7179  1.2141  0.0577
 3986TIP3    H211965   5.804   2.309   3.792  0.0810  0.1806 -0.3875
 3987TIP3   OH211966   1.241   4.528   4.455 -0.0036 -0.0796  0.8145
 3987TIP3    H111967   1.215   4.461   4.518 -0.4489  0.6796  1.4497
 3987TIP3    H211968   1.331   4.504   4.432 -0.0498 -0.7229  1.2525
 3988TIP3   OH211969   3.895   4.458   3.750  0.1678  0.3208  0.1791
 3988TIP3    H111970   3.853   4.408   3.820 -1.4726  1.0116 -0.2635
 3988TIP3    H211971   3.942   4.528   3.796  0.8133 -0.4109  0.6755
 3989TIP3   OH211972   0.263   3.894   2.405 -0.2848  0.4013  0.0661
 3989TIP3    H111973   0.270   3.885   2.500 -0.2322 -0.4085 -0.0072
 3989TIP3    H211974   0.298   3.981   2.387 -1.7798  1.2207  0.9331
 3990TIP3   OH211975   6.233   1.344   2.261 -0.1109 -0.3263  0.0372
 3990TIP3    H111976   6.257   1.430   2.295 -1.0101 -0.4102  0.9521
 3990TIP3    H211977   6.262   1.283   2.330 -0.0044 -0.7053 -0.3393
 3991TIP3   OH211978   3.698   5.357   1.165  0.6132 -0.5601  0.1306
 3991TIP3    H111979   3.635   5.407   1.215  0.6771 -0.9486  0.5993
 3991TIP3    H211980   3.659   5.270   1.156  0.7154 -0.5670 -0.2745
 3992TIP3   OH211981   5.945   2.358   2.357  0.1200 -0.3540  0.4155
 3992TIP3    H111982   5.870   2.307   2.325  0.5557  0.4121 -2.0110
 3992TIP3    H211983   6.021   2.310   2.325  0.5723  0.8720 -0.3803
 3993TIP3   OH211984   5.788   2.706   2.423 -0.0281  0.2063 -0.4212
 3993TIP3    H111985   5.843   2.634   2.391 -2.0012 -0.8247 -1.7464
 3993TIP3    H211986   5.848   2.763   2.471  1.7893 -1.8492 -0.0815
 3994TIP3   OH211987   5.224   4.144   1.260  0.0765 -0.7303 -0.1697
 3994TIP3    H111988   5.161   4.112   1.195 -1.1047  0.5847  0.2529
 3994TIP3    H211989   5.292   4.187   1.208 -0.7488  0.1258 -0.5934
 3995TIP3   OH211990   5.398   4.676   2.369  0.2454  0.0438  0.1034
 3995TIP3    H111991   5.399   4.731   2.447 -1.3500 -3.0150  2.4913
 3995TIP3    H211992   5.316   4.700   2.325  0.5042  0.8734  0.0594
 3996TIP3   OH211993   3.738   4.129   2.766  0.0100 -0.4548 -0.5507
 3996TIP3    H111994   3.724   4.138   2.672 -2.7995  2.7028 -0.0157
 3996TIP3    H211995   3.747   4.219   2.798  1.8628 -1.4570  2.1569
 3997TIP3   OH211996   1.471   4.609   2.642 -0.1483 -0.6026 -0.4802
 3997TIP3    H111997   1.438   4.593   2.730  0.4465 -3.0203 -0.6316
 3997TIP3    H211998   1.566   4.615   2.652  0.0404 -2.1856 -1.0740
 3998TIP3   OH211999   5.231   1.010   0.975  0.0908  0.4689 -0.1437
 3998TIP3    H112000   5.249   1.027   1.068 -1.4859 -0.1471  0.2970
 3998TIP3    H212001   5.296   0.944   0.950 -0.1473 -0.1438  0.8121
 3999TIP3   OH212002   3.100   2.798   4.674 -0.1977 -0.3059 -0.2730
 3999TIP3    H112003   3.185   2.806   4.717 -0.0556 -1.2335 -0.3592
 3999TIP3    H212004   3.098   2.708   4.641 -0.9060 -0.0580 -0.9316
 4000TIP3   OH212005   3.995   0.999   4.344 -0.4621  0.1482 -0.1874
 4000TIP3    H112006   3.966   1.088   4.328 -1.4960  0.3667  2.4165
 4000TIP3    H212007   4.079   1.009   4.389 -0.0198 -0.2676 -0.8882
 4001TIP3   OH212008   6.127   1.398   3.515 -0.1283 -0.0804  0.4004
 4001TIP3    H112009   6.114   1.493   3.510  0.3369 -0.0638 -0.9564
 4001TIP3    H212010   6.041   1.364   3.540 -0.2616  0.7023  1.0633
 4002TIP3   OH212011   2.972   2.749   1.235  0.0723 -0.2741 -0.5553
 4002TIP3    H112012   2.902   2.814   1.230 -1.4034 -1.7701 -0.2980
 4002TIP3    H212013   2.926   2.665   1.244  1.7453 -1.6787 -3.3838
 4003TIP3   OH212014   4.264   0.291   1.101  0.0337 -0.4773  0.5348
 4003TIP3    H112015   4.276   0.381   1.131  1.6894 -0.8250  1.0328
 4003TIP3    H212016   4.202   0.253   1.162 -0.3622  0.2121  0.5641
 4004TIP3   OH212017   3.447   1.365   4.525  0.0184 -0.1729  0.1533
 4004TIP3    H112018   3.455   1.444   4.578  1.6316  0.4757 -0.9845
 4004TIP3    H212019   3.523   1.312   4.548  0.4694 -0.1110 -1.0818
 4005TIP3   OH212020   5.768   4.965   0.984 -0.1149 -0.3048  0.0924
 4005TIP3    H112021   5.857   4.929   0.984 -0.6612 -1.6900  0.4716
 4005TIP3    H212022   5.773   5.041   0.926  1.6586  0.5019  1.1987
 4006TIP3   OH212023   0.414   3.471   0.131 -0.5227 -0.1917 -0.2329
 4006TIP3    H112024   0.402   3.439   0.220 -1.5736  0.5356 -0.0973
 4006TIP3    H212025   0.508   3.459   0.114 -0.4462 -1.0515  0.6748
 4007TIP3   OH212026   5.922   3.969   1.157  0.0009 -0.0912  0.6057
 4007TIP3    H112027   5.907   4.043   1.100 -1.5891 -2.3820 -2.2096
 4007TIP3    H212028   5.955   4.007   1.238  2.2979  3.4072 -1.7128
 4008TIP3   OH212029   4.146   0.486   1.287  0.3969  0.4969  0.1359
 4008TIP3    H112030   4.186   0.503   1.373  0.2363  1.3698  0.0425
 4008TIP3    H212031   4.052   0.479   1.305  0.5524 -1.8792  0.4063
 4009TIP3   OH212032   0.311   0.924   3.396  0.5513  0.1019  0.1454
 4009TIP3    H112033   0.330   0.860   3.465  0.2899 -0.3404 -0.1876
 4009TIP3    H212034   0.279   1.001   3.443 -1.7925 -0.9583  0.4395
 4010TIP3   OH212035   1.113   4.015   2.697  0.3529  0.3277  0.1883
 4010TIP3    H112036   1.113   3.944   2.633 -0.4004 -0.5167  1.1120
 4010TIP3    H212037   1.041   4.072   2.670  0.3889  0.2667 -0.0358
 4011TIP3   OH212038   1.082   5.388   0.490 -0.0248  0.8737 -0.6160
 4011TIP3    H112039   1.083   5.345   0.405  0.9318 -0.7499  0.1758
 4011TIP3    H212040   0.989   5.405   0.507 -0.2915  0.4533 -1.6084
 4012TIP3   OH212041   4.858   0.565   0.919 -0.0101 -0.2036  0.0282
 4012TIP3    H112042   4.785   0.600   0.970 -0.3443  0.5206 -0.9116
 4012TIP3    H212043   4.901   0.642   0.881  3.5609 -0.2191  3.4372
 4013TIP3   OH212044   6.295   3.062   3.572  0.0760 -0.2684 -0.4875
 4013TIP3    H112045   6.350   2.985   3.559 -1.4290 -1.5463  0.3403
 4013TIP3    H212046   6.261   3.083   3.485  1.4973  0.2837 -0.9334
 4014TIP3   OH212047   4.843   0.708   3.035 -0.8066  0.2496 -0.3290
 4014TIP3    H112048   4.909   0.646   3.004 -1.7830  0.3905 -2.9070
 4014TIP3    H212049   4.856   0.711   3.130 -0.8688 -4.1319  0.0350
 4015TIP3   OH212050   3.614   2.789   1.229 -0.1651  0.2953 -0.4069
 4015TIP3    H112051   3.534   2.752   1.268 -0.6707  0.7237 -1.0203
 4015TIP3    H212052   3.680   2.721   1.241 -0.3720  0.3029  0.9559
 4016TIP3   OH212053   4.103   1.606   3.744 -0.2441  0.2895 -0.4703
 4016TIP3    H112054   4.008   1.597   3.739 -0.0611 -1.9576 -1.4476
 4016TIP3    H212055   4.135   1.573   3.660  1.4000  1.7213 -0.4754
 4017TIP3   OH212056   3.957   2.165   2.121 -0.2706 -0.5266 -0.5070
 4017TIP3    H112057   4.007   2.137   2.044  0.3087  0.1102 -0.3736
 4017TIP3    H212058   3.981   2.102   2.189  1.3772  0.5056 -0.0788
 4018TIP3   OH212059   6.196   3.140   2.794 -0.2044  0.1398 -0.3692
 4018TIP3    H112060   6.176   3.080   2.867 -0.2330  0.1898 -0.3358
 4018TIP3    H212061   6.218   3.223   2.837 -0.0828  0.1299 -0.4126
 4019TIP3   OH212062   4.516   5.823   0.720  0.2747  0.1759  0.0993
 4019TIP3    H112063   4.500   5.749   0.778  0.2409 -0.1701 -0.3391
 4019TIP3    H212064   4.428   5.852   0.694  0.2951 -0.2708 -0.5092
 4020TIP3   OH212065   2.268   1.492   2.375  0.4650 -0.0634 -0.2790
 4020TIP3    H112066   2.332   1.512   2.443 -1.0681  0.0545  1.2201
 4020TIP3    H212067   2.205   1.564   2.381 -1.2202 -1.4997  0.1587
 4021TIP3   OH212068   2.978   4.158   2.744 -0.0301  0.7205  0.1329
 4021TIP3    H112069   2.926   4.136   2.666  0.7852 -2.1451  0.2713
 4021TIP3    H212070   3.040   4.224   2.713  0.1703 -0.2286 -1.6471
 4022TIP3   OH212071   2.636   5.259   2.496 -0.3765  0.5824 -0.5720
 4022TIP3    H112072   2.567   5.228   2.437  2.9356 -1.8249 -3.6696
 4022TIP3    H212073   2.634   5.199   2.570 -0.5100 -0.6813 -1.5598
 4023TIP3   OH212074   3.881   5.583   1.495 -0.2302 -0.2453  0.1947
 4023TIP3    H112075   3.832   5.645   1.550  3.2919  2.6760  0.4668
 4023TIP3    H212076   3.922   5.524   1.558 -1.2034 -0.9990  0.1488
 4024TIP3   OH212077   2.542   2.483   1.273  0.3012  0.4324  0.3096
 4024TIP3    H112078   2.514   2.391   1.269  0.0797  0.4230  1.5688
 4024TIP3    H212079   2.460   2.532   1.276  0.3709  0.5070  2.1701
 4025TIP3   OH212080   1.843   4.537   4.364  0.1963  0.4256  0.1260
 4025TIP3    H112081   1.848   4.600   4.436 -0.7633  0.8286 -0.1366
 4025TIP3    H212082   1.933   4.507   4.351  0.5556  1.2183  0.7228
 4026TIP3   OH212083   2.385   5.066   0.493 -0.4289  0.5544  0.1596
 4026TIP3    H112084   2.346   4.978   0.491 -0.0496  0.3906 -1.7188
 4026TIP3    H212085   2.479   5.051   0.496 -0.3076  0.8478 -1.4079
 4027TIP3   OH212086   5.460   0.771   3.011 -0.2025  0.2757  0.2634
 4027TIP3    H112087   5.391   0.720   2.970  1.1004 -0.3974 -1.1923
 4027TIP3    H212088   5.493   0.829   2.942  1.4957 -0.2960  0.5345
 4028TIP3   OH212089   0.985   0.235   0.924  0.3209  0.4329 -0.9697
 4028TIP3    H112090   1.020   0.168   0.865 -0.4683 -0.5732 -0.3217
 4028TIP3    H212091   0.913   0.274   0.875  0.5474  0.5675 -1.2034
 4029TIP3   OH212092   3.492   0.192   0.887 -0.2016  0.3145  0.0039
 4029TIP3    H112093   3.429   0.259   0.860  0.1369  0.8327  0.4797
 4029TIP3    H212094   3.442   0.132   0.941 -0.2150  0.9588  0.7350
 4030TIP3   OH212095   2.300   3.667   2.456 -0.7778 -0.0532  0.7025
 4030TIP3    H112096   2.255   3.679   2.540 -3.6796 -0.6441 -0.6682
 4030TIP3    H212097   2.324   3.575   2.455  1.2440  0.3883  1.7021
 4031TIP3   OH212098   1.564   1.527   2.656 -0.0707 -0.1016  0.6260
 4031TIP3    H112099   1.518   1.467   2.598 -0.1509 -0.0237  0.6102
 4031TIP3    H212100   1.503   1.543   2.728 -1.2044  2.1813 -0.7337
 4032TIP3   OH212101   5.989   5.366   4.822  0.6321 -0.1047  0.3356
 4032TIP3    H112102   6.011   5.444   4.872 -2.0716  0.2035  1.2121
 4032TIP3    H212103   6.008   5.389   4.731  1.9262  0.7378  0.7863
 4033TIP3   OH212104   5.854   2.958   1.733  0.6924 -0.1832 -0.2890
 4033TIP3    H112105   5.934   2.986   1.777  0.9889 -0.4627 -0.6408
 4033TIP3    H212106   5.784   3.006   1.777  1.2234  1.5010 -1.2127
 4034TIP3   OH212107   5.215   2.214   5.141  0.0476 -0.1358  0.3731
 4034TIP3    H112108   5.211   2.120   5.161 -0.5071 -0.4026 -0.8970
 4034TIP3    H212109   5.299   2.225   5.098  0.7701  0.2479  1.7993
 4035TIP3   OH212110   3.265   1.287   3.838 -0.1933 -0.2511  0.3588
 4035TIP3    H112111   3.325   1.353   3.872  1.7555 -1.8239  0.1365
 4035TIP3    H212112   3.227   1.247   3.916 -1.4960  1.1440  0.4956
 4036TIP3   OH212113   0.019   3.326   3.014 -0.3128 -0.6171  0.2335
 4036TIP3    H112114   0.079   3.348   2.942 -0.7612 -1.2644 -0.3497
 4036TIP3    H212115   0.066   3.258   3.063 -0.0309 -0.2166  0.5235
 4037TIP3   OH212116   4.519   2.317   4.596  0.0250 -0.5834  0.2615
 4037TIP3    H112117   4.487   2.231   4.568  0.7069 -0.6714 -0.2489
 4037TIP3    H212118   4.470   2.334   4.677 -2.9125  0.2304 -1.5220
 4038TIP3   OH212119   4.662   5.395   3.718  0.0320  0.4679  0.3125
 4038TIP3    H112120   4.635   5.312   3.757 -1.3444  0.2129 -1.0625
 4038TIP3    H212121   4.730   5.370   3.654 -0.7471  0.3041 -0.4707
 4039TIP3   OH212122   0.982   3.423   4.221  0.1255 -0.4074 -0.5895
 4039TIP3    H112123   1.048   3.436   4.289 -0.0095 -0.6894 -0.4027
 4039TIP3    H212124   0.932   3.348   4.251 -3.1500  2.3162  1.5915
 4040TIP3   OH212125   1.400   0.120   4.340  0.3475 -0.0023  0.0459
 4040TIP3    H112126   1.355   0.161   4.267  2.3634 -0.4954 -1.5676
 4040TIP3    H212127   1.347   0.043   4.361 -0.5477  0.4448 -0.5284
 4041TIP3   OH212128   3.312   4.423   2.247 -0.8680 -0.8617 -0.0707
 4041TIP3    H112129   3.349   4.380   2.170  0.1261  0.2157 -0.2205
 4041TIP3    H212130   3.274   4.504   2.213  0.0841 -0.1016  0.6332
 4042TIP3   OH212131   3.139   2.983   2.643  0.4184  0.0678  0.3126
 4042TIP3    H112132   3.066   2.932   2.678 -0.0253  1.5659  1.7156
 4042TIP3    H212133   3.108   3.014   2.558  0.6998 -1.9296 -0.5653
 4043TIP3   OH212134   2.198   0.327   1.513 -0.6949  0.0861  0.2499
 4043TIP3    H112135   2.145   0.319   1.433 -1.0610  0.6857  0.4241
 4043TIP3    H212136   2.195   0.240   1.552  0.0277 -0.3937 -0.7243
 4044TIP3   OH212137   1.680   4.206   5.024 -0.0416 -0.2968 -0.2256
 4044TIP3    H112138   1.664   4.221   5.117 -0.2407 -2.6111  0.1837
 4044TIP3    H212139   1.741   4.275   4.999 -0.0296  0.4197  1.6154
 4045TIP3   OH212140   5.720   2.920   3.825  0.1120 -0.0107  0.5675
 4045TIP3    H112141   5.780   2.851   3.797 -0.3424 -0.2045  0.0510
 4045TIP3    H212142   5.659   2.876   3.884 -0.5425 -0.1990 -0.2259
 4046TIP3   OH212143   2.565   3.582   4.143  1.0799  0.4371 -0.2440
 4046TIP3    H112144   2.582   3.673   4.163  0.1388  0.5263  0.2297
 4046TIP3    H212145   2.470   3.578   4.126  1.2332 -0.3081 -1.0337
 4047TIP3   OH212146   4.901   5.784   1.298 -0.3652  0.3969 -0.4482
 4047TIP3    H112147   4.879   5.820   1.384 -0.5002 -0.9226  0.0826
 4047TIP3    H212148   4.941   5.858   1.252 -0.7470  1.2655  0.5590
 4048TIP3   OH212149   0.689   1.082   1.120  0.4217 -0.1879 -0.2456
 4048TIP3    H112150   0.755   1.077   1.052 -0.3587  1.5050 -1.2012
 4048TIP3    H212151   0.616   1.129   1.079 -0.3810  0.1857  1.5081
 4049TIP3   OH212152   5.692   3.152   1.851 -0.4005  0.1967 -0.0559
 4049TIP3    H112153   5.622   3.137   1.914  0.4530 -0.4130  0.7625
 4049TIP3    H212154   5.737   3.230   1.882 -1.5863  1.4805 -1.4011
 4050TIP3   OH212155   0.744   1.978   4.308 -0.2041  0.4437 -0.0901
 4050TIP3    H112156   0.680   1.978   4.237  0.1791  0.8892 -0.4439
 4050TIP3    H212157   0.728   1.896   4.355 -0.7810  0.3731 -0.3960
 4051TIP3   OH212158   2.612   5.634   3.982 -0.7122  0.0261  0.0093
 4051TIP3    H112159   2.604   5.704   3.918  1.3419  0.1847 -0.1498
 4051TIP3    H212160   2.668   5.670   4.051 -0.7532 -1.0079  0.6120
 4052TIP3   OH212161   0.722   5.576   0.453 -0.4732  0.0199 -0.3153
 4052TIP3    H112162   0.650   5.609   0.506 -0.0185 -0.1732  0.4431
 4052TIP3    H212163   0.704   5.483   0.442 -0.9800  0.2034 -1.1980
 4053TIP3   OH212164   5.339   2.344   2.892  0.2248  0.6439 -0.6229
 4053TIP3    H112165   5.340   2.368   2.799  0.5896  1.1791 -0.4832
 4053TIP3    H212166   5.324   2.249   2.891  1.7071  0.3755 -1.2971
 4054TIP3   OH212167   5.587   2.444   1.545  1.4956  0.4058 -0.5452
 4054TIP3    H112168   5.660   2.384   1.536 -0.5451 -2.2894 -0.3657
 4054TIP3    H212169   5.542   2.440   1.460  0.3700  0.2961  0.0336
 4055TIP3   OH212170   1.013   0.162   1.764  0.3910 -0.5575 -0.7296
 4055TIP3    H112171   1.066   0.104   1.710  1.2111 -0.3941 -0.1242
 4055TIP3    H212172   0.950   0.105   1.808 -0.5790 -0.6342 -2.1812
 4056TIP3   OH212173   1.210   5.270   3.738 -0.5999  0.1336 -0.3903
 4056TIP3    H112174   1.210   5.291   3.831  0.1120 -0.3584 -0.2750
 4056TIP3    H212175   1.238   5.178   3.734 -1.4812 -0.1319 -1.0301
 4057TIP3   OH212176   2.308   3.476   5.134  0.2610  0.3996 -0.1048
 4057TIP3    H112177   2.357   3.538   5.080  0.0302  0.8718  0.2249
 4057TIP3    H212178   2.373   3.412   5.162  0.6873  1.0193  0.3260
 4058TIP3   OH212179   5.789   1.739   3.191 -0.3489  0.0745 -0.1574
 4058TIP3    H112180   5.795   1.644   3.189  1.1376  0.1614 -0.6193
 4058TIP3    H212181   5.858   1.766   3.251  0.1922  0.9226 -1.1364
 4059TIP3   OH212182   4.889   3.297   0.211 -0.1373 -0.0573 -0.0069
 4059TIP3    H112183   4.967   3.254   0.174  1.0167  0.5719  1.5982
 4059TIP3    H212184   4.840   3.226   0.252  2.0936  0.0462  3.2234
 4060TIP3   OH212185   1.728   0.591   3.758  0.1568  0.0680 -0.0274
 4060TIP3    H112186   1.751   0.553   3.673  0.7834  1.0511 -0.3142
 4060TIP3    H212187   1.645   0.549   3.781 -0.3304  0.2054 -1.4016
 4061TIP3   OH212188   5.239   4.272   1.508 -0.3252  0.2448  0.5971
 4061TIP3    H112189   5.215   4.200   1.566  1.5116 -0.5289  0.4492
 4061TIP3    H212190   5.212   4.242   1.421 -1.1097  0.4786  0.7548
 4062TIP3   OH212191   5.397   1.671   0.076  0.5481  0.1541 -0.0827
 4062TIP3    H112192   5.310   1.653   0.042  0.8748 -1.0404 -0.3367
 4062TIP3    H212193   5.455   1.656   0.001  1.0313  0.2786  0.2605
 4063TIP3   OH212194   0.349   3.266   2.608  0.0755  0.1373  0.4214
 4063TIP3    H112195   0.276   3.204   2.605 -0.0254  0.2885 -0.9077
 4063TIP3    H212196   0.426   3.212   2.592  0.5153 -0.3108  3.5082
 4064TIP3   OH212197   1.561   2.886   1.953  0.2522  0.1793  0.1216
 4064TIP3    H112198   1.621   2.960   1.949  1.4815 -0.8192 -0.6968
 4064TIP3    H212199   1.612   2.812   1.920 -1.0396 -0.9727  0.6123
 4065TIP3   OH212200   6.015   2.512   1.976 -0.6491  0.0330  0.1851
 4065TIP3    H112201   6.087   2.538   2.034 -0.1464  0.9832 -0.8317
 4065TIP3    H212202   5.953   2.585   1.981  0.5473  1.3568 -2.3222
 4066TIP3   OH212203   6.306   3.859   3.184 -0.1854 -0.6352 -0.5436
 4066TIP3    H112204   6.336   3.770   3.165  0.7921 -0.4307 -0.0218
 4066TIP3    H212205   6.338   3.878   3.272  0.0783  0.4134 -0.8411
 4067TIP3   OH212206   2.228   5.510   2.784 -0.9968  0.1179  0.3415
 4067TIP3    H112207   2.170   5.538   2.714 -0.1084 -1.4145 -1.0666
 4067TIP3    H212208   2.170   5.472   2.850 -1.6822 -0.1916 -0.4374
 4068TIP3   OH212209   4.040   5.524   0.771  0.1673 -0.2254 -0.5538
 4068TIP3    H112210   3.988   5.590   0.818  2.1945 -0.1742  1.7684
 4068TIP3    H212211   4.015   5.441   0.811  1.2044 -0.2963 -0.0379
 4069TIP3   OH212212   2.368   0.527   1.368  0.1178 -0.0681 -0.2478
 4069TIP3    H112213   2.344   0.448   1.319 -0.3518 -0.9975  1.3812
 4069TIP3    H212214   2.312   0.524   1.446  1.2973  0.9795  0.6752
 4070TIP3   OH212215   4.532   0.552   0.901  0.4480  0.0040  0.2230
 4070TIP3    H112216   4.454   0.578   0.949  0.3223  0.9036 -0.4541
 4070TIP3    H212217   4.566   0.477   0.950 -1.8858 -1.6574 -0.5355
 4071TIP3   OH212218   3.908   2.600   4.859  0.3110  0.2859  0.0951
 4071TIP3    H112219   3.895   2.643   4.774 -0.1489 -1.1192 -0.5946
 4071TIP3    H212220   3.999   2.570   4.857  0.5636  0.9996  0.4818
 4072TIP3   OH212221   3.259   5.817   0.850  0.1407 -0.0599  0.4323
 4072TIP3    H112222   3.318   5.742   0.855 -1.2462 -1.2893 -0.5649
 4072TIP3    H212223   3.240   5.826   0.757 -2.1619 -0.5240  0.7937
 4073TIP3   OH212224   2.849   4.141   4.777  0.0594 -0.6649  0.9735
 4073TIP3    H112225   2.926   4.088   4.756  0.5178  0.8628 -1.5683
 4073TIP3    H212226   2.775   4.089   4.745  0.4535 -0.1309 -0.9146
 4074TIP3   OH212227   3.711   0.738   2.955  0.2441  0.3388  0.3746
 4074TIP3    H112228   3.754   0.770   2.876 -0.4778  1.0048  0.2461
 4074TIP3    H212229   3.774   0.757   3.025  0.4495  0.6901  0.0986
 4075TIP3   OH212230   1.380   4.671   0.243 -0.5403 -0.5010  0.3884
 4075TIP3    H112231   1.449   4.681   0.308  1.3909 -0.2076 -1.6023
 4075TIP3    H212232   1.299   4.685   0.292  0.9014  1.8379  2.3241
 4076TIP3   OH212233   4.944   3.014   3.602  0.3643 -0.7068 -0.1189
 4076TIP3    H112234   4.966   3.000   3.510 -0.1635  1.0576 -0.5584
 4076TIP3    H212235   4.852   3.039   3.600  0.2485 -1.0241  0.9414
 4077TIP3   OH212236   4.712   0.372   1.021  0.4223  0.5917 -0.4230
 4077TIP3    H112237   4.774   0.420   0.967  1.2164 -2.0764 -2.0651
 4077TIP3    H212238   4.740   0.281   1.016 -1.9096 -0.3307  1.2145
 4078TIP3   OH212239   1.660   0.706   4.310 -0.6662 -0.1026 -0.3338
 4078TIP3    H112240   1.619   0.630   4.351 -0.4551  0.1430  0.3469
 4078TIP3    H212241   1.589   0.748   4.261 -0.6373 -1.0871 -1.2340
 4079TIP3   OH212242   3.932   0.733   4.204  0.4235 -0.5664  0.0448
 4079TIP3    H112243   3.926   0.815   4.253 -0.6115 -0.6784  0.1302
 4079TIP3    H212244   3.939   0.760   4.113 -2.2541 -0.3348 -0.1797
 4080TIP3   OH212245   6.211   4.601   1.210  0.0424 -0.8412  0.4254
 4080TIP3    H112246   6.195   4.567   1.122 -1.4431 -0.6645  0.5906
 4080TIP3    H212247   6.148   4.555   1.265  1.3957 -1.4435  1.5405
 4081TIP3   OH212248   5.093   0.062   4.791  0.3597 -0.4382 -0.2478
 4081TIP3    H112249   5.062  -0.000   4.726 -1.8382  0.7826 -0.4559
 4081TIP3    H212250   5.146   0.124   4.741 -0.0662 -0.3630 -0.6089
 4082TIP3   OH212251   4.240   5.680   1.648  0.3741  0.2210 -0.1623
 4082TIP3    H112252   4.221   5.667   1.741  0.2348  1.1120 -0.0559
 4082TIP3    H212253   4.331   5.711   1.647  1.2308 -2.1105 -0.5219
 4083TIP3   OH212254   5.715   4.375   4.983 -0.3407  0.0185 -0.2491
 4083TIP3    H112255   5.802   4.382   4.944 -0.6216 -2.3714 -1.5108
 4083TIP3    H212256   5.663   4.441   4.938  0.8063  1.5741  0.6166
 4084TIP3   OH212257   3.288   0.375   3.400  0.5926 -0.0428 -0.3291
 4084TIP3    H112258   3.371   0.412   3.370  0.4343  0.7279  0.1469
 4084TIP3    H212259   3.225   0.447   3.394  0.0660 -0.4846 -0.2372
 4085TIP3   OH212260   0.259   5.106   3.423  0.2142 -0.3619 -0.0013
 4085TIP3    H112261   0.222   5.031   3.378 -0.5658 -0.5108  0.8636
 4085TIP3    H212262   0.354   5.090   3.423  0.1377 -0.8123 -0.7524
 4086TIP3   OH212263   2.434   3.111   2.484 -0.3350 -0.6467  0.6850
 4086TIP3    H112264   2.484   3.041   2.444 -0.4935 -0.2569 -0.2316
 4086TIP3    H212265   2.422   3.084   2.575  0.4523 -1.3262  0.5951
 4087TIP3   OH212266   4.019   0.105   2.589  0.2022 -0.4848  0.1429
 4087TIP3    H112267   4.093   0.057   2.551 -0.0468 -0.0254 -0.9780
 4087TIP3    H212268   4.048   0.197   2.588 -0.6925 -0.1935 -1.1221
 4088TIP3   OH212269   0.202   2.467   1.875 -0.2193  0.1778 -0.0125
 4088TIP3    H112270   0.225   2.444   1.785  0.3638 -1.0785  0.4425
 4088TIP3    H212271   0.285   2.461   1.923 -0.7768 -0.5455  0.8817
 4089TIP3   OH212272   2.551   2.861   0.786 -0.3103  0.4870 -0.3457
 4089TIP3    H112273   2.616   2.873   0.717 -0.6129 -1.7594 -1.1144
 4089TIP3    H212274   2.520   2.949   0.806  3.8858  1.9016  1.0356
 4090TIP3   OH212275   0.703   2.376   4.697 -0.1436 -0.0397 -0.9113
 4090TIP3    H112276   0.700   2.428   4.777 -1.2697  1.2350 -1.7336
 4090TIP3    H212277   0.755   2.299   4.720 -0.6467  0.1661  1.1081
 4091TIP3   OH212278   6.065   2.209   0.671  0.0038  0.4290  0.0342
 4091TIP3    H112279   6.014   2.288   0.689  0.0101  0.2915  0.6535
 4091TIP3    H212280   6.000   2.140   0.662  0.1028  0.1696  1.2653
 4092TIP3   OH212281   5.999   3.837   1.792  0.1600  0.4724 -0.1725
 4092TIP3    H112282   6.078   3.890   1.803  1.3633 -0.7546 -2.3193
 4092TIP3    H212283   5.998   3.780   1.869  0.7691  1.2221  0.4127
 4093TIP3   OH212284   5.640   4.657   1.597  0.1606 -0.3305 -0.1430
 4093TIP3    H112285   5.559   4.680   1.551 -0.3004  0.8933  1.2137
 4093TIP3    H212286   5.616   4.580   1.649 -0.0574 -0.1205  0.0670
 4094TIP3   OH212287   1.724   0.878   0.435 -0.3915 -0.5083 -0.3879
 4094TIP3    H112288   1.753   0.967   0.414  1.9704 -1.5302 -1.8479
 4094TIP3    H212289   1.737   0.871   0.530 -2.1204  1.1521  0.0272
 4095TIP3   OH212290   5.680   4.389   3.395  0.0475 -0.3557  0.2136
 4095TIP3    H112291   5.690   4.480   3.423 -1.8763  0.0489 -0.2772
 4095TIP3    H212292   5.595   4.386   3.351 -0.5519 -2.6698  1.3439
 4096TIP3   OH212293   6.254   4.520   1.580  0.5816 -0.4212  0.2079
 4096TIP3    H112294   6.325   4.583   1.573 -0.3085  0.4036 -2.7539
 4096TIP3    H212295   6.186   4.566   1.630  1.3684 -0.5210  1.4059
 4097TIP3   OH212296   1.290   5.001   3.695  0.5419  0.3441  0.1755
 4097TIP3    H112297   1.238   4.946   3.636 -0.4465  0.0044  1.3317
 4097TIP3    H212298   1.379   4.993   3.661 -0.1510  1.1619 -2.0179
 4098TIP3   OH212299   5.786   1.023   0.261  0.2673 -0.3285  0.1598
 4098TIP3    H112300   5.872   1.055   0.234  1.2229 -2.1956  0.8132
 4098TIP3    H212301   5.764   0.955   0.196 -0.2004 -0.6300  0.6252
 4099TIP3   OH212302   1.460   1.439   1.806  0.3032  0.2972  0.0518
 4099TIP3    H112303   1.408   1.394   1.872  1.8935 -2.1369 -0.2444
 4099TIP3    H212304   1.521   1.373   1.774  0.6556  1.8204 -2.7348
 4100TIP3   OH212305   3.163   5.705   0.100  0.0366 -0.4323  0.1083
 4100TIP3    H112306   3.112   5.635   0.141 -2.4579  1.0676 -0.1893
 4100TIP3    H212307   3.209   5.663   0.028 -2.1714 -1.6595 -0.6854
 4101TIP3   OH212308   3.211   5.564   1.978  0.8680 -0.2105 -0.4356
 4101TIP3    H112309   3.304   5.541   1.974  1.3161  1.6121 -1.6912
 4101TIP3    H212310   3.210   5.660   1.986 -0.9061 -0.2381  0.1453
 4102TIP3   OH212311   1.613   2.221   2.294  0.2024  0.2828  0.4778
 4102TIP3    H112312   1.662   2.210   2.213  0.3484 -1.3714  0.7621
 4102TIP3    H212313   1.646   2.303   2.331 -0.4892  1.5592 -1.5316
 4103TIP3   OH212314   1.435   5.636   3.209  0.0408 -0.2563 -0.2978
 4103TIP3    H112315   1.424   5.690   3.287  0.0656 -0.7477  0.0481
 4103TIP3    H212316   1.499   5.683   3.156 -1.0166  0.8132 -0.6874
 4104TIP3   OH212317   1.487   5.452   4.426 -0.8053 -0.2437  0.1650
 4104TIP3    H112318   1.562   5.444   4.485  1.1353  3.1485 -1.5356
 4104TIP3    H212319   1.490   5.372   4.373  0.9614 -0.6817  0.8621
 4105TIP3   OH212320   5.567   1.233   1.236 -0.5243 -0.2783 -0.0089
 4105TIP3    H112321   5.583   1.248   1.143  0.5795 -0.8595  0.0730
 4105TIP3    H212322   5.653   1.214   1.273 -0.8708  0.4494  1.2383
 4106TIP3   OH212323   0.522   4.500   0.956 -0.4675 -0.1845 -0.7088
 4106TIP3    H112324   0.614   4.513   0.934 -0.4437 -0.2051 -0.6228
 4106TIP3    H212325   0.514   4.534   1.045  0.0278 -2.4348  0.2767
 4107TIP3   OH212326   5.172   3.023   4.786 -0.3752  0.0278  0.5665
 4107TIP3    H112327   5.162   2.978   4.702  0.4145 -1.3107  1.1636
 4107TIP3    H212328   5.093   3.001   4.835 -0.0276 -0.6568  0.8263
 4108TIP3   OH212329   1.231   5.793   4.829  0.1758  0.2603  0.3463
 4108TIP3    H112330   1.284   5.720   4.797 -0.1120  0.7408 -1.3310
 4108TIP3    H212331   1.293   5.850   4.875  0.7014 -0.2353  0.2588
 4109TIP3   OH212332   3.945   0.427   1.925 -0.2550  0.5565 -0.1956
 4109TIP3    H112333   3.868   0.461   1.880 -0.2454 -0.3464 -0.9295
 4109TIP3    H212334   3.972   0.352   1.873 -0.0877 -0.3801  1.1715
 4110TIP3   OH212335   4.357   2.130   2.673 -0.1416 -0.1262  0.1161
 4110TIP3    H112336   4.429   2.162   2.619 -0.7078 -0.0791 -0.6176
 4110TIP3    H212337   4.379   2.038   2.689  0.0362 -0.1380 -0.1820
 4111TIP3   OH212338   4.533   1.637   2.963  0.0382  0.0339 -0.5542
 4111TIP3    H112339   4.533   1.708   2.899 -1.1775  0.2261 -0.3503
 4111TIP3    H212340   4.480   1.569   2.923  0.6933 -0.5324 -0.4797
 4112TIP3   OH212341   4.509   2.920   2.786 -0.1548  0.0432  0.4585
 4112TIP3    H112342   4.536   2.828   2.780  2.1847  0.7036 -0.2674
 4112TIP3    H212343   4.429   2.918   2.839  0.5535 -2.2838  1.5913
 4113TIP3   OH212344   4.057   1.194   3.524 -0.9339 -0.4997 -0.1451
 4113TIP3    H112345   4.149   1.212   3.503 -0.3683 -0.6044  1.9445
 4113TIP3    H212346   4.053   1.099   3.533 -1.0372 -0.4359  0.5452
 4114TIP3   OH212347   2.897   1.384   4.119  0.2802 -0.0886 -0.3628
 4114TIP3    H112348   2.947   1.465   4.108  1.2993 -0.3390  1.8571
 4114TIP3    H212349   2.900   1.367   4.214 -2.9507 -0.8140 -0.2818
 4115TIP3   OH212350   2.713   1.985   1.572  0.2230 -0.1444 -0.2691
 4115TIP3    H112351   2.807   1.985   1.590  0.3590 -2.7039 -0.5722
 4115TIP3    H212352   2.707   2.007   1.479  0.6029 -0.6697 -0.4248
 4116TIP3   OH212353   0.940   1.912   1.810  0.1324 -0.0646  0.6014
 4116TIP3    H112354   1.026   1.949   1.792  1.3981 -1.9421  2.2244
 4116TIP3    H212355   0.939   1.829   1.763 -0.4186 -0.4616  1.2740
 4117TIP3   OH212356   5.343   5.203   1.575  0.2469  0.1054  0.9602
 4117TIP3    H112357   5.271   5.260   1.548 -0.0684 -0.2810  0.9907
 4117TIP3    H212358   5.414   5.264   1.595  0.8357  0.4013 -1.6456
 4118TIP3   OH212359   5.963   5.918   2.061 -0.1027  0.4264 -0.0418
 4118TIP3    H112360   6.052   5.909   2.094 -0.3499 -1.5583  0.2090
 4118TIP3    H212361   5.941   5.832   2.026 -2.0628  0.7530  0.2626
 4119TIP3   OH212362   2.040   4.379   4.283  0.0113  0.0531  0.0218
 4119TIP3    H112363   2.034   4.335   4.198  1.2546 -0.0990 -0.0036
 4119TIP3    H212364   1.999   4.318   4.345 -1.2943  0.3554 -0.5069
 4120TIP3   OH212365   4.129   0.529   4.258  0.6710  0.2234  0.2461
 4120TIP3    H112366   4.155   0.590   4.328  0.2147 -0.6142  1.1714
 4120TIP3    H212367   4.067   0.579   4.205  0.4350  0.6265  0.8906
 4121TIP3   OH212368   4.298   4.586   4.771 -0.0353  0.0725  0.1006
 4121TIP3    H112369   4.383   4.552   4.798  0.7093  1.6262 -0.1578
 4121TIP3    H212370   4.262   4.626   4.850  0.2471  0.9018 -0.1802
 4122TIP3   OH212371   2.677   0.593   1.063  0.1445 -0.1975 -0.2610
 4122TIP3    H112372   2.661   0.499   1.076  0.6400 -0.3664 -0.8467
 4122TIP3    H212373   2.765   0.607   1.099 -0.6980  0.4577  1.6889
 4123TIP3   OH212374   0.377   0.859   1.581  0.1972  0.4536  0.7779
 4123TIP3    H112375   0.429   0.910   1.642  1.3573  3.3449 -2.3122
 4123TIP3    H212376   0.442   0.806   1.533 -0.2138  0.7688 -0.1570
 4124TIP3   OH212377   0.791   3.607   1.107 -0.5372 -0.2473 -0.0139
 4124TIP3    H112378   0.746   3.567   1.032 -0.9432 -1.1055  0.6645
 4124TIP3    H212379   0.721   3.629   1.168 -0.0809 -1.7435  1.1239
 4125TIP3   OH212380   3.715   4.447   1.155 -0.1405 -0.1941  0.3304
 4125TIP3    H112381   3.676   4.437   1.242 -0.8343  0.8564  0.1628
 4125TIP3    H212382   3.793   4.501   1.170 -0.2542 -0.0222  0.3060
 4126TIP3   OH212383   5.748   4.752   4.952  0.0514  0.0529 -0.1950
 4126TIP3    H112384   5.697   4.690   4.900 -1.5809  1.9350 -1.0051
 4126TIP3    H212385   5.834   4.754   4.909  0.7270 -2.7491  0.8303
 4127TIP3   OH212386   4.005   2.194   1.530 -0.4861 -0.1415 -0.7487
 4127TIP3    H112387   4.072   2.183   1.462  1.6490 -1.7288  1.4278
 4127TIP3    H212388   3.968   2.106   1.541 -2.0697  0.4648 -1.0285
 4128TIP3   OH212389   5.354   2.249   3.724 -0.4764  0.0274 -0.0837
 4128TIP3    H112390   5.374   2.296   3.643  0.5587 -0.9915 -0.4584
 4128TIP3    H212391   5.286   2.187   3.699 -1.5339  0.9894  0.3097
 4129TIP3   OH212392   5.345   2.361   4.193  0.1901 -0.8486  0.0343
 4129TIP3    H112393   5.268   2.328   4.240  0.9549 -2.5581  0.1921
 4129TIP3    H212394   5.375   2.436   4.244  0.3334 -1.9772  1.6816
 4130TIP3   OH212395   0.312   1.343   3.632 -0.0437 -0.0814 -0.5305
 4130TIP3    H112396   0.321   1.379   3.543 -0.2052  0.1900 -0.4373
 4130TIP3    H212397   0.362   1.261   3.629  1.0134  0.5409 -0.5194
 4131TIP3   OH212398   0.446   2.327   1.317 -0.3471  0.1039 -0.1612
 4131TIP3    H112399   0.502   2.251   1.335 -0.4545  0.0313 -0.1387
 4131TIP3    H212400   0.359   2.291   1.305 -0.5336  0.3013  0.5705
 4132TIP3   OH212401   2.409   1.428   4.234 -0.7289  0.2854 -0.2609
 4132TIP3    H112402   2.313   1.426   4.235 -0.7765 -2.8494  1.8491
 4132TIP3    H212403   2.434   1.448   4.324  0.6645  0.9522 -0.7546
 4133TIP3   OH212404   5.769   1.655   0.316  0.2271  0.4339  0.4857
 4133TIP3    H112405   5.823   1.710   0.373 -0.2162  1.3766  0.0187
 4133TIP3    H212406   5.808   1.568   0.323  0.7193  0.7167  1.5302
 4134TIP3   OH212407   2.600   0.627   0.027 -0.2161 -0.2071 -0.4016
 4134TIP3    H112408   2.649   0.691  -0.025  0.2320  0.4043  0.7273
 4134TIP3    H212409   2.509   0.655   0.021 -0.1151  0.0983 -0.5241
 4135TIP3   OH212410   3.739   0.894   1.195 -0.2802 -0.6892  0.4608
 4135TIP3    H112411   3.742   0.921   1.287 -1.3801 -2.3459  1.0266
 4135TIP3    H212412   3.796   0.818   1.190  1.0996  0.3560 -0.6431
 4136TIP3   OH212413   1.486   3.577   0.143  0.4874  0.2579  0.8617
 4136TIP3    H112414   1.520   3.510   0.085  1.2450  0.3552  1.1735
 4136TIP3    H212415   1.562   3.634   0.160  0.2638  0.2704  1.8696
 4137TIP3   OH212416   5.251   1.288   4.383 -0.7602  0.0563 -1.0470
 4137TIP3    H112417   5.308   1.363   4.399 -0.7533  0.0860 -1.2067
 4137TIP3    H212418   5.194   1.284   4.460 -1.1373  0.5710 -1.2899
 4138TIP3   OH212419   4.654   0.167   3.096  0.0137  0.1882 -0.4105
 4138TIP3    H112420   4.636   0.262   3.094 -0.9939  0.0006 -1.1680
 4138TIP3    H212421   4.639   0.138   3.006  1.2235 -0.5512 -0.3945
 4139TIP3   OH212422   0.923   2.114   1.134  0.4629  0.6839  0.0282
 4139TIP3    H112423   0.852   2.131   1.073  1.3260  0.0761 -1.1888
 4139TIP3    H212424   0.920   2.188   1.195 -3.3465 -0.9819  2.2111
 4140TIP3   OH212425   1.568   4.093   4.797 -0.5191 -0.5479 -0.4632
 4140TIP3    H112426   1.571   4.162   4.731  0.0064 -1.6525 -1.6197
 4140TIP3    H212427   1.588   4.139   4.879 -2.4545  1.0903 -0.8092
 4141TIP3   OH212428   3.115   0.860   3.658  0.1524 -0.2559 -0.1264
 4141TIP3    H112429   3.078   0.949   3.658  0.9230  0.0761 -0.8631
 4141TIP3    H212430   3.038   0.803   3.663 -0.3043  0.4471  1.4118
 4142TIP3   OH212431   3.531   1.683   0.029  0.5376 -0.0584 -0.0767
 4142TIP3    H112432   3.527   1.777   0.050 -0.2390 -0.1422  0.1992
 4142TIP3    H212433   3.573   1.680  -0.057 -0.5855  0.6577 -0.6915
 4143TIP3   OH212434   4.173   2.471   4.291 -0.0379 -0.0191 -0.1127
 4143TIP3    H112435   4.114   2.539   4.324  0.2058  1.4097 -2.4232
 4143TIP3    H212436   4.253   2.481   4.343 -0.6970  0.1426  0.8874
 4144TIP3   OH212437   1.331   3.204   4.973 -0.1098 -0.4011 -0.4139
 4144TIP3    H112438   1.330   3.224   4.879 -0.4045  0.0412 -0.3172
 4144TIP3    H212439   1.423   3.216   4.998  0.3170 -2.1922 -0.9902
 4145TIP3   OH212440   1.905   2.104   4.454  0.8685 -0.7606  0.2731
 4145TIP3    H112441   1.826   2.058   4.483  0.6104 -1.0876 -0.8795
 4145TIP3    H212442   1.884   2.197   4.466  0.2080 -0.8322 -0.2488
 4146TIP3   OH212443   2.941   2.874   2.204 -0.3774 -0.2968  0.3325
 4146TIP3    H112444   2.967   2.926   2.129 -1.7065  1.1249  0.8224
 4146TIP3    H212445   2.940   2.784   2.172  2.2991 -0.1424 -0.4356
 4147TIP3   OH212446   4.132   3.348   4.633 -0.2377 -0.2400 -0.0294
 4147TIP3    H112447   4.101   3.403   4.561  1.2526 -0.1732 -0.6650
 4147TIP3    H212448   4.073   3.368   4.706 -0.5826  1.1603 -0.6595
 4148TIP3   OH212449   2.399   0.814   0.986 -0.5824 -0.0692 -0.0177
 4148TIP3    H112450   2.439   0.781   1.066 -0.7254 -1.2235 -0.3934
 4148TIP3    H212451   2.428   0.905   0.979  0.4142 -0.3186  0.7098
 4149TIP3   OH212452   4.302   2.852   0.350  0.7791  0.1053  0.5754
 4149TIP3    H112453   4.220   2.804   0.362  1.2972 -1.2050 -0.7586
 4149TIP3    H212454   4.296   2.887   0.261  1.7452 -0.1827  0.3889
 4150TIP3   OH212455   1.709   4.950   3.920 -0.2021  0.6658 -0.0606
 4150TIP3    H112456   1.682   4.935   4.011 -1.4720  2.2253 -0.1345
 4150TIP3    H212457   1.711   4.862   3.881 -1.9614  0.1618  0.8778
 4151TIP3   OH212458   1.559   3.039   2.483  0.1765 -0.4068  0.1527
 4151TIP3    H112459   1.605   2.958   2.506 -0.1221 -0.8605 -0.7826
 4151TIP3    H212460   1.619   3.083   2.423 -0.1246 -0.4591 -0.1874
 4152TIP3   OH212461   5.352   1.612   1.594  0.3604 -0.0272  0.1111
 4152TIP3    H112462   5.265   1.575   1.601  0.3203  0.3376  2.0141
 4152TIP3    H212463   5.339   1.706   1.607  1.1032 -0.0644  1.2758
 4153TIP3   OH212464   1.100   5.902   3.081 -0.4318  0.5052  0.2078
 4153TIP3    H112465   1.067   5.950   3.005 -0.1094  0.3735 -0.0212
 4153TIP3    H212466   1.089   5.962   3.154  0.0951  0.9859 -0.0957
 4154TIP3   OH212467   4.038   2.546   2.005  0.4910  0.4554  0.0293
 4154TIP3    H112468   4.093   2.493   2.064  2.1255  0.7850 -1.1207
 4154TIP3    H212469   4.045   2.502   1.921 -0.4870  0.9081 -0.2990
 4155TIP3   OH212470   0.382   0.705   1.928  0.3493 -0.6024  0.1899
 4155TIP3    H112471   0.286   0.696   1.927  0.2659 -0.1602  1.6940
 4155TIP3    H212472   0.405   0.697   2.020  1.6790  0.2437 -0.0535
 4156TIP3   OH212473   0.969   0.696   1.285 -0.0065  0.1251 -0.4704
 4156TIP3    H112474   0.892   0.711   1.230 -0.3827 -0.3825 -0.0975
 4156TIP3    H212475   0.987   0.780   1.325 -1.2214 -0.0519  0.5084
 4157TIP3   OH212476   4.979   2.544   3.110  0.3142  0.6194 -0.1652
 4157TIP3    H112477   4.963   2.461   3.155 -0.5052  0.7764 -0.1485
 4157TIP3    H212478   5.027   2.520   3.031  1.9179  0.3549  0.8624
 4158TIP3   OH212479   1.398   3.126   3.144 -0.1124 -1.2341  0.1391
 4158TIP3    H112480   1.351   3.206   3.168 -1.1062 -1.1892 -1.7992
 4158TIP3    H212481   1.487   3.156   3.122 -0.9215 -0.3286 -2.2098
 4159TIP3   OH212482   6.193   3.855   2.874 -0.3051 -0.9246  0.0386
 4159TIP3    H112483   6.123   3.918   2.893  0.7661  0.4191 -0.3197
 4159TIP3    H212484   6.236   3.841   2.958  0.6633  0.3576 -0.2136
 4160TIP3   OH212485   4.452   0.980   1.926  0.0943  0.1220 -0.1390
 4160TIP3    H112486   4.448   1.062   1.977 -0.2870  0.1027 -0.1356
 4160TIP3    H212487   4.542   0.949   1.939 -0.0893 -0.0519  0.7959
 4161TIP3   OH212488   0.784   4.369   1.953 -0.2077  0.1074 -0.0645
 4161TIP3    H112489   0.864   4.392   2.001 -0.8080  2.2286  0.0460
 4161TIP3    H212490   0.769   4.277   1.974  1.1736  0.1679  1.4104
 4162TIP3   OH212491   6.046   2.984   0.205 -0.2286 -0.4631  0.4607
 4162TIP3    H112492   5.955   2.977   0.234 -0.5913 -0.3740 -0.6065
 4162TIP3    H212493   6.049   3.065   0.154  1.1493  1.1246  2.8304
 4163TIP3   OH212494   3.737   2.887   5.045  0.0891 -0.1498  0.0022
 4163TIP3    H112495   3.689   2.807   5.068 -1.2846  0.9834  1.2744
 4163TIP3    H212496   3.818   2.882   5.096  0.1130 -0.8389 -0.0990
 4164TIP3   OH212497   3.050   4.521   2.895 -0.0208  0.1900  0.3629
 4164TIP3    H112498   3.090   4.488   2.814  0.7472 -0.4625  0.9847
 4164TIP3    H212499   2.991   4.451   2.922 -3.3252  1.9375 -1.6226
 4165TIP3   OH212500   1.313   3.250   1.586 -0.2003  0.0326  0.0980
 4165TIP3    H112501   1.323   3.158   1.563  0.2014  0.4881 -1.7335
 4165TIP3    H212502   1.245   3.251   1.654 -1.9838 -1.4407 -1.5396
 4166TIP3   OH212503   5.300   0.732   2.320 -0.8031 -0.5005 -0.0507
 4166TIP3    H112504   5.303   0.746   2.415 -1.7703 -0.2128 -0.0595
 4166TIP3    H212505   5.207   0.728   2.299 -0.5865 -1.1511 -0.9088
 4167TIP3   OH212506   3.978   0.184   0.108  0.5592 -0.7947 -0.3595
 4167TIP3    H112507   4.045   0.123   0.138 -1.4589 -2.4607  1.0378
 4167TIP3    H212508   4.019   0.271   0.117  1.6483 -1.4942  3.2160
 4168TIP3   OH212509   4.494   5.280   0.868 -0.3867  0.1928  0.5209
 4168TIP3    H112510   4.427   5.255   0.805 -0.2668 -1.2186  0.9199
 4168TIP3    H212511   4.565   5.316   0.816 -0.8870  0.4106 -0.0180
 4169TIP3   OH212512   5.511   3.119   3.070  0.4525 -0.3044 -0.4041
 4169TIP3    H112513   5.542   3.122   3.161  0.2598  0.9506 -0.3577
 4169TIP3    H212514   5.589   3.138   3.018  0.2978  0.3569 -0.4125
 4170TIP3   OH212515   1.664   4.942   1.035 -0.0273  0.0336 -0.1694
 4170TIP3    H112516   1.577   4.971   1.062  0.6255  0.0978  2.0395
 4170TIP3    H212517   1.649   4.854   0.998 -1.0977  0.3146 -0.4499
 4171TIP3   OH212518   2.484   0.630   2.227  0.0942 -0.1188 -0.2728
 4171TIP3    H112519   2.483   0.570   2.152 -0.0580 -0.1161 -0.2741
 4171TIP3    H212520   2.393   0.630   2.258  0.2197 -0.3647  0.1027
 4172TIP3   OH212521   5.313   0.103   1.186 -0.0586 -0.1704 -0.0294
 4172TIP3    H112522   5.295   0.191   1.153  1.6269 -0.0797 -0.7906
 4172TIP3    H212523   5.261   0.045   1.130 -0.2125  0.2538 -0.3309
 4173TIP3   OH212524   3.497   0.872   5.040  0.1906  0.2334  0.6831
 4173TIP3    H112525   3.558   0.835   5.103  0.5870  1.1700  0.8649
 4173TIP3    H212526   3.497   0.966   5.059 -1.1504  0.2729  0.5445
 4174TIP3   OH212527   4.583   2.430   2.813 -0.1188 -0.3466 -0.0110
 4174TIP3    H112528   4.629   2.346   2.814 -1.5633 -1.1701 -0.6401
 4174TIP3    H212529   4.498   2.412   2.852  0.2657  1.3169  1.7658
 4175TIP3   OH212530   4.300   1.878   0.951 -0.0842  0.4309 -0.0532
 4175TIP3    H112531   4.370   1.832   0.998  0.6888  1.2893 -0.3331
 4175TIP3    H212532   4.342   1.909   0.871 -0.6891  1.3042 -0.0390
 4176TIP3   OH212533   2.967   4.673   4.079 -0.0735 -0.3233 -0.4550
 4176TIP3    H112534   2.908   4.675   4.003 -0.8876  3.3182  0.0988
 4176TIP3    H212535   2.923   4.617   4.142 -0.4689 -1.6010 -1.7973
 4177TIP3   OH212536   0.777   1.179   4.726  0.1441 -0.2828  0.0513
 4177TIP3    H112537   0.728   1.258   4.702 -0.0826 -0.3738  0.2128
 4177TIP3    H212538   0.713   1.108   4.717  0.6006 -0.5824 -1.0489
 4178TIP3   OH212539   6.127   2.065   4.644 -0.2808 -0.0829  0.3872
 4178TIP3    H112540   6.165   2.050   4.558  0.2259 -0.5081  0.6781
 4178TIP3    H212541   6.202   2.088   4.700 -0.7741  1.6093  0.4071
 4179TIP3   OH212542   0.783   1.812   0.366 -0.6107  0.8732 -0.0941
 4179TIP3    H112543   0.819   1.900   0.355  1.8164  0.1023  1.1184
 4179TIP3    H212544   0.813   1.784   0.452 -1.5111 -1.0790 -0.3521
 4180TIP3   OH212545   2.530   1.699   3.284  0.5458 -0.7152 -0.5342
 4180TIP3    H112546   2.487   1.705   3.369  0.3528 -0.9769 -0.6121
 4180TIP3    H212547   2.617   1.664   3.304  0.7083 -0.2335 -0.3836
 4181TIP3   OH212548   2.237   5.168   3.482  0.1546  0.2813  0.5651
 4181TIP3    H112549   2.232   5.082   3.441  0.1811 -0.6174  2.3595
 4181TIP3    H212550   2.305   5.159   3.549  0.2411  1.7415  0.7098
 4182TIP3   OH212551   1.408   0.481   0.753  0.3962  0.4909  0.1156
 4182TIP3    H112552   1.365   0.566   0.739 -1.4654 -0.4662 -0.2822
 4182TIP3    H212553   1.456   0.465   0.672 -1.3455  0.0313 -0.8811
 4183TIP3   OH212554   3.866   5.913   4.105  0.1897  0.1756  0.0193
 4183TIP3    H112555   3.837   6.004   4.113  2.2227  0.8791 -0.0248
 4183TIP3    H212556   3.810   5.865   4.166 -0.3226  1.6193  0.7401
 4184TIP3   OH212557   2.994   3.324   3.559 -0.2336  0.5558  0.3169
 4184TIP3    H112558   3.026   3.355   3.475  0.0990 -1.6065 -0.4190
 4184TIP3    H212559   2.927   3.260   3.537  0.2265 -0.4429  1.6590
 4185TIP3   OH212560   4.832   2.123   2.443  0.5809  0.3923 -0.3433
 4185TIP3    H112561   4.917   2.164   2.459  0.6975  0.4436 -1.0380
 4185TIP3    H212562   4.849   2.029   2.450  0.9670  0.3422 -1.5990
 4186TIP3   OH212563   4.841   5.123   0.917  0.3673  0.1275 -0.0084
 4186TIP3    H112564   4.857   5.136   1.010 -0.5975  0.6070  0.1042
 4186TIP3    H212565   4.830   5.028   0.907  0.2080  0.1000  0.4190
 4187TIP3   OH212566   0.284   0.783   4.499  0.0584  0.4129  0.1596
 4187TIP3    H112567   0.209   0.814   4.549 -0.2781  0.1411 -0.1780
 4187TIP3    H212568   0.318   0.709   4.550 -1.5359 -1.2127 -1.0358
 4188TIP3   OH212569   3.513   4.147   2.213 -0.2032 -0.1266 -0.0811
 4188TIP3    H112570   3.505   4.126   2.120 -0.6272 -1.7234  0.2845
 4188TIP3    H212571   3.564   4.229   2.215 -1.2372  0.6008 -1.7434
 4189TIP3   OH212572   5.628   0.911   4.612 -0.1032  0.3585 -0.7226
 4189TIP3    H112573   5.621   0.847   4.684  0.0425  0.4295 -0.6459
 4189TIP3    H212574   5.593   0.992   4.649  2.4390  1.1382  0.1667
 4190TIP3   OH212575   2.379   0.744   4.473  0.0875  0.1033  0.3649
 4190TIP3    H112576   2.312   0.697   4.522  1.0113 -2.2715 -0.5168
 4190TIP3    H212577   2.427   0.794   4.540  0.5059 -2.0277  1.7503
 4191TIP3   OH212578   6.009   1.262   2.650  0.4743 -0.5303 -1.0458
 4191TIP3    H112579   5.939   1.204   2.622 -1.9996  2.2782 -1.1775
 4191TIP3    H212580   5.967   1.322   2.712  3.1722  0.3387  0.0829
 4192TIP3   OH212581   4.814   3.384   4.456  0.1251 -0.4628  0.3353
 4192TIP3    H112582   4.749   3.336   4.506 -0.1591 -0.0340  0.3790
 4192TIP3    H212583   4.841   3.323   4.387  0.8541 -1.2298  1.2631
 4193TIP3   OH212584   5.375   5.800   2.274 -0.1527  0.4723 -0.6339
 4193TIP3    H112585   5.451   5.838   2.318 -0.1280 -0.3994  0.1044
 4193TIP3    H212586   5.411   5.759   2.196 -0.2069  2.0923 -1.5664
 4194TIP3   OH212587   1.924   0.150   4.680  0.1251 -0.1149 -0.5814
 4194TIP3    H112588   1.974   0.175   4.758  0.3511  0.3126 -0.8648
 4194TIP3    H212589   1.841   0.116   4.715  0.3406 -0.1916 -0.1428
 4195TIP3   OH212590   1.742   3.778   0.404  0.1437 -0.0007 -0.3656
 4195TIP3    H112591   1.761   3.861   0.447  1.1097 -1.0301  1.3103
 4195TIP3    H212592   1.649   3.783   0.383 -0.0498  1.1168  0.6119
 4196TIP3   OH212593   2.081   4.777   3.509 -0.0246  0.4631  0.3220
 4196TIP3    H112594   2.045   4.718   3.575  0.2425 -1.9071 -1.5167
 4196TIP3    H212595   2.174   4.781   3.527 -0.1017  0.6741  0.6847
 4197TIP3   OH212596   0.592   3.626   2.577 -0.2994  0.2014  0.3519
 4197TIP3    H112597   0.514   3.616   2.522  0.0581 -3.4294  0.2761
 4197TIP3    H212598   0.558   3.621   2.667 -0.3891  1.4220  0.4031
 4198TIP3   OH212599   4.841   1.965   2.756  0.1750  0.0584 -0.4393
 4198TIP3    H112600   4.790   1.917   2.691 -0.2501  0.1281 -0.1586
 4198TIP3    H212601   4.926   1.921   2.756 -0.0696 -0.4184 -0.4947
 4199TIP3   OH212602   3.080   2.157   0.529  0.1454 -0.8843 -0.4340
 4199TIP3    H112603   3.002   2.182   0.480 -0.0075 -0.5411 -0.0103
 4199TIP3    H212604   3.110   2.077   0.486 -1.0399 -1.6237  0.0724
 4200TIP3   OH212605   2.324   3.631   4.813  0.2753  0.5323 -0.3097
 4200TIP3    H112606   2.283   3.584   4.741 -0.6913  0.8299  0.0276
 4200TIP3    H212607   2.390   3.570   4.847  0.2182  0.0984 -0.9518
 4201TIP3   OH212608   5.718   2.921   2.188  0.1245  0.8484 -0.2652
 4201TIP3    H112609   5.767   3.001   2.171  0.8075  0.7774  1.2415
 4201TIP3    H212610   5.724   2.909   2.283  0.0079 -0.9579 -0.4569
 4202TIP3   OH212611   4.813   4.872   1.932 -0.3646 -0.0256  0.0120
 4202TIP3    H112612   4.860   4.889   2.013 -1.5897  2.6656  0.2832
 4202TIP3    H212613   4.725   4.847   1.960 -0.6195  0.3217 -0.4569
 4203TIP3   OH212614   1.159   1.566   0.834  0.6727 -0.2549  0.1738
 4203TIP3    H112615   1.190   1.616   0.758  1.7007 -0.4936  0.4147
 4203TIP3    H212616   1.224   1.497   0.845 -0.3144 -1.1847  0.3189
 4204TIP3   OH212617   0.815   2.011   3.935 -0.4371  0.1743  0.2284
 4204TIP3    H112618   0.891   2.050   3.894  2.2939 -3.3717  1.4088
 4204TIP3    H212619   0.769   1.967   3.863  0.1382  0.1576 -0.1348
 4205TIP3   OH212620   2.516   2.585   0.392 -0.1817  0.3504 -0.2331
 4205TIP3    H112621   2.511   2.678   0.369 -0.3458  0.2691 -0.5325
 4205TIP3    H212622   2.537   2.584   0.485  0.9759  0.6933 -0.4752
 4206TIP3   OH212623   2.021   4.681   2.014 -0.4135 -0.4656 -0.2512
 4206TIP3    H112624   2.074   4.666   1.936  0.3993  0.2767  0.1421
 4206TIP3    H212625   2.048   4.612   2.075 -0.9075 -0.9261 -0.5429
 4207TIP3   OH212626   0.152   4.695   1.540  0.1040 -0.2997 -0.2930
 4207TIP3    H112627   0.200   4.627   1.588  0.0582 -0.0422  0.1228
 4207TIP3    H212628   0.199   4.776   1.559 -1.1280  0.1366  1.0443
 4208TIP3   OH212629   5.201   2.261   1.164  0.4241  0.1357  0.5275
 4208TIP3    H112630   5.213   2.181   1.215  0.1187 -0.6071 -0.5292
 4208TIP3    H212631   5.127   2.305   1.204  0.6805 -0.0389  1.2030
 4209TIP3   OH212632   1.978   0.425   3.805 -0.5791 -0.1701  0.5763
 4209TIP3    H112633   1.935   0.354   3.757  1.0049 -0.7322 -0.0804
 4209TIP3    H212634   1.906   0.485   3.828 -2.0677 -2.2800  1.7532
 4210TIP3   OH212635   4.281   4.954   2.348  0.4208  0.2423 -0.5029
 4210TIP3    H112636   4.331   4.917   2.420 -2.1878 -1.0168  0.8097
 4210TIP3    H212637   4.320   5.040   2.333  2.2125 -0.2191  1.1484
 4211TIP3   OH212638   6.371   1.956   4.018  0.1585  0.8294 -0.1830
 4211TIP3    H112639   6.301   1.937   4.080  0.7808 -2.0807 -0.2102
 4211TIP3    H212640   6.337   1.926   3.933  1.5725 -1.3833 -0.0717
 4212TIP3   OH212641   1.826   2.794   0.187 -0.9234  0.1444 -0.0798
 4212TIP3    H112642   1.819   2.702   0.161  0.3804  0.0973 -0.3429
 4212TIP3    H212643   1.867   2.790   0.274 -1.0559  0.4763 -0.0016
 4213TIP3   OH212644   3.942   0.662   2.220 -0.0057 -0.2022  0.0109
 4213TIP3    H112645   3.869   0.601   2.209 -0.0309 -0.2756  0.5740
 4213TIP3    H212646   4.020   0.610   2.201 -0.0992 -0.0916 -0.7193
 4214TIP3   OH212647   3.595   3.460   2.981 -0.3783  0.7204  0.5328
 4214TIP3    H112648   3.596   3.445   3.076 -1.6184 -0.5466  0.3840
 4214TIP3    H212649   3.517   3.414   2.951  0.9626 -0.4830 -1.3446
 4215TIP3   OH212650   2.238   5.433   1.276  0.2275  0.1322 -0.1285
 4215TIP3    H112651   2.317   5.381   1.264 -1.0044 -1.7626 -0.4309
 4215TIP3    H212652   2.212   5.457   1.187  0.5872  0.9997 -0.0117
 4216TIP3   OH212653   4.361   0.538   3.454  0.3154 -0.2576 -0.1891
 4216TIP3    H112654   4.296   0.607   3.455  0.5917  0.0102 -0.3555
 4216TIP3    H212655   4.442   0.581   3.482  0.0085 -1.0290  2.0695
 4217TIP3   OH212656   4.539   4.299   2.412  0.2937  0.2514  0.3725
 4217TIP3    H112657   4.534   4.371   2.350 -0.4316  0.3683  0.5658
 4217TIP3    H212658   4.578   4.227   2.362 -2.1780 -0.3323 -0.8748
 4218TIP3   OH212659   4.058   3.775   1.939  0.2310  0.2235 -0.1442
 4218TIP3    H112660   4.111   3.798   1.863  0.3428  0.6884  0.0694
 4218TIP3    H212661   4.017   3.692   1.916  1.5807 -0.5032 -0.0418
 4219TIP3   OH212662   4.012   3.783   4.714  0.5310  0.1214 -0.6473
 4219TIP3    H112663   3.929   3.815   4.677 -1.1853 -0.5208  2.2733
 4219TIP3    H212664   4.049   3.860   4.758  0.5042 -0.0025 -0.4034
 4220TIP3   OH212665   1.066   0.485   3.450  0.0178  0.2186  0.2418
 4220TIP3    H112666   1.053   0.580   3.449  0.1982  0.2419 -0.4695
 4220TIP3    H212667   1.161   0.474   3.443  0.0453 -0.0155  0.8547
 4221TIP3   OH212668   0.793   0.331   0.334 -0.2674  0.1983 -0.4233
 4221TIP3    H112669   0.875   0.287   0.359 -0.5323  1.2389  2.7948
 4221TIP3    H212670   0.732   0.259   0.315  0.5196 -0.7046  0.3311
 4222TIP3   OH212671   0.241   3.827   1.334  0.3936  0.4890 -0.3941
 4222TIP3    H112672   0.266   3.747   1.381 -0.8544 -1.2988 -2.5387
 4222TIP3    H212673   0.323   3.875   1.322  1.5608 -1.4679 -0.7067
 4223TIP3   OH212674   3.211   5.091   4.783 -0.2415 -0.0545  0.0833
 4223TIP3    H112675   3.289   5.035   4.773  0.4055  0.8598 -0.1464
 4223TIP3    H212676   3.144   5.049   4.730  0.6270  0.1053 -1.1756
 4224TIP3   OH212677   2.161   4.980   1.860  0.2282 -0.5046  0.1983
 4224TIP3    H112678   2.068   4.975   1.837  0.8875 -1.4196 -2.6545
 4224TIP3    H212679   2.174   5.072   1.883 -1.5915 -0.6126  2.0211
 4225TIP3   OH212680   4.526   0.732   3.564  0.2976  0.0435 -0.8375
 4225TIP3    H112681   4.536   0.782   3.645 -0.1445 -0.6760 -0.3196
 4225TIP3    H212682   4.519   0.798   3.496  0.4946  0.6690 -0.2655
 4226TIP3   OH212683   6.165   4.702   1.778  0.1797  0.3570 -0.2476
 4226TIP3    H112684   6.128   4.739   1.858 -0.0785  0.3752 -0.3768
 4226TIP3    H212685   6.179   4.778   1.721 -2.1383  0.0857 -1.2664
 4227TIP3   OH212686   2.578   1.709   2.380 -0.4748 -0.0670  0.0664
 4227TIP3    H112687   2.555   1.770   2.310  0.1567  0.8143  0.6035
 4227TIP3    H212688   2.494   1.675   2.411 -0.9777  1.6802  0.7597
 4228TIP3   OH212689   3.390   0.483   3.943 -0.4294 -0.4818  0.3952
 4228TIP3    H112690   3.430   0.516   3.862  0.0359 -1.2953  0.2813
 4228TIP3    H212691   3.328   0.551   3.969 -0.3956 -0.0958 -0.5093
 4229TIP3   OH212692   3.880   0.153   1.479 -1.1735  0.4119  0.3105
 4229TIP3    H112693   3.832   0.199   1.548 -1.2832  0.3013  0.3077
 4229TIP3    H212694   3.827   0.076   1.460 -0.8274  0.1157  0.5393
 4230TIP3   OH212695   4.192   4.462   3.796  0.6065 -0.4666 -1.0829
 4230TIP3    H112696   4.155   4.541   3.836  0.3329 -0.6020 -1.0623
 4230TIP3    H212697   4.285   4.464   3.819  0.4790 -0.4745 -0.5545
 4231TIP3   OH212698   0.242   4.663   2.245  0.1772  0.3445  0.0144
 4231TIP3    H112699   0.251   4.693   2.155 -0.0155  0.0129 -0.1185
 4231TIP3    H212700   0.165   4.710   2.278  0.6460  0.9758  0.2252
 4232TIP3   OH212701   1.912   0.913   3.537 -0.0453 -0.1969 -0.2409
 4232TIP3    H112702   1.908   0.959   3.453  1.8895 -0.3404 -0.4772
 4232TIP3    H212703   1.953   0.829   3.515 -0.8228 -0.8199  0.6413
 4233TIP3   OH212704   1.321   3.636   2.808  0.0081  0.1043  0.4455
 4233TIP3    H112705   1.266   3.561   2.828  0.8050 -0.5661  0.1934
 4233TIP3    H212706   1.264   3.696   2.759 -1.2062  0.5844  2.3434
 4234TIP3   OH212707   5.607   4.751   2.649  0.5062  0.2706  0.4822
 4234TIP3    H112708   5.555   4.796   2.716  0.6074  2.6057 -0.8917
 4234TIP3    H212709   5.574   4.661   2.649 -2.3241  1.2090  0.8933
 4235TIP3   OH212710   2.920   5.898   1.272 -0.4512  0.0244 -0.2129
 4235TIP3    H112711   2.995   5.937   1.226 -1.4645  1.9374 -0.3004
 4235TIP3    H212712   2.856   5.969   1.280 -1.1938 -0.8138  2.2679
 4236TIP3   OH212713   1.339   5.026   4.176  0.1603 -0.6472 -0.3179
 4236TIP3    H112714   1.316   5.023   4.269  0.1296 -0.1532 -0.3047
 4236TIP3    H212715   1.261   4.993   4.131  0.6679 -2.2169 -0.1139
 4237TIP3   OH212716   3.527   3.420   4.344  0.6184  0.5206 -0.3859
 4237TIP3    H112717   3.508   3.441   4.252  2.9109 -0.1077 -1.0650
 4237TIP3    H212718   3.526   3.505   4.388  1.8194  1.1630 -1.4997
 4238TIP3   OH212719   5.575   5.083   4.472 -0.0828 -0.3141  0.5369
 4238TIP3    H112720   5.485   5.051   4.462 -0.8676  1.1517  2.3078
 4238TIP3    H212721   5.597   5.119   4.386 -1.3871 -0.2378  0.2091
 4239TIP3   OH212722   4.159   4.613   1.675  0.1910  0.0031  0.1239
 4239TIP3    H112723   4.231   4.671   1.702  0.1211  0.7959 -1.3114
 4239TIP3    H212724   4.172   4.600   1.581 -2.3016  1.3390 -0.5133
 4240TIP3   OH212725   2.695   2.912   2.772  0.5383  0.5897 -0.2347
 4240TIP3    H112726   2.627   2.872   2.718  0.7128 -1.0884  0.7518
 4240TIP3    H212727   2.647   2.960   2.840  0.3245 -0.4164  0.3339
 4241TIP3   OH212728   5.033   2.378   4.042  0.2838 -0.0517  0.1214
 4241TIP3    H112729   5.025   2.283   4.037  0.9526 -0.1845  1.1897
 4241TIP3    H212730   4.949   2.407   4.077  0.1038 -0.2523 -0.1394
 4242TIP3   OH212731   2.538   0.010   2.405  0.1019 -0.2296 -0.0840
 4242TIP3    H112732   2.547   0.084   2.346  1.6155 -1.1468 -1.0812
 4242TIP3    H212733   2.610   0.019   2.468 -0.3236 -0.3042  0.4214
 4243TIP3   OH212734   4.574   3.763   1.451  0.4343 -0.6767 -0.5149
 4243TIP3    H112735   4.583   3.799   1.363 -1.7836  1.8551  0.1765
 4243TIP3    H212736   4.507   3.695   1.443  1.2944 -1.5002 -0.9863
 4244TIP3   OH212737   3.750   5.188   2.683 -0.6520 -0.5205 -0.3313
 4244TIP3    H112738   3.670   5.158   2.639 -2.5691  0.7298  2.0930
 4244TIP3    H212739   3.745   5.149   2.771  1.1089  0.0935  0.0776
 4245TIP3   OH212740   0.778   4.993   2.359 -0.3976  0.1061  1.4173
 4245TIP3    H112741   0.871   4.975   2.372  0.7623 -1.2270 -5.2742
 4245TIP3    H212742   0.735   4.910   2.378  0.4367 -0.5370  0.5804
 4246TIP3   OH212743   1.859   4.919   5.077 -0.1139 -0.6239  0.1901
 4246TIP3    H112744   1.819   4.913   5.163 -1.1746  0.5285 -0.1809
 4246TIP3    H212745   1.834   5.007   5.046  0.6118 -0.8532 -1.0983
 4247TIP3   OH212746   3.826   1.216   1.419 -0.0797  0.3035 -0.3140
 4247TIP3    H112747   3.869   1.251   1.497 -1.1875  1.9371 -0.3769
 4247TIP3    H212748   3.821   1.122   1.434  0.9250  0.4250  0.9694
 4248TIP3   OH212749   2.945   5.892   2.812  0.0624  0.1508  0.6239
 4248TIP3    H112750   2.859   5.868   2.778  0.0521  0.2568  0.5720
 4248TIP3    H212751   2.933   5.980   2.848  0.5020  0.8389 -0.7978
 4249TIP3   OH212752   1.764   0.610   2.036 -0.3434 -0.4143 -0.2650
 4249TIP3    H112753   1.798   0.606   2.125 -1.8242 -1.4092  0.2810
 4249TIP3    H212754   1.775   0.701   2.010  0.1815 -0.1329  0.8880
 4250TIP3   OH212755   5.352   3.694   0.172  0.0359 -0.1810  0.0334
 4250TIP3    H112756   5.411   3.654   0.236  0.4194 -1.5656 -1.1441
 4250TIP3    H212757   5.283   3.629   0.159 -0.9837  0.8074  0.2928
 4251TIP3   OH212758   0.552   1.490   0.521  0.5890 -0.4286  0.0724
 4251TIP3    H112759   0.619   1.483   0.588  0.5429 -1.9529 -0.0250
 4251TIP3    H212760   0.575   1.424   0.456 -1.4176 -1.5252  0.4127
 4252TIP3   OH212761   0.941   3.774   2.028 -0.4993 -0.2832  0.9640
 4252TIP3    H112762   1.032   3.804   2.022 -0.6148 -0.1754 -0.3516
 4252TIP3    H212763   0.891   3.855   2.041 -0.6182 -0.0620 -0.6598
 4253TIP3   OH212764   4.999   5.652   3.171 -0.2361 -0.4207 -0.0651
 4253TIP3    H112765   4.954   5.728   3.208  0.0187 -0.7080  0.8526
 4253TIP3    H212766   4.981   5.657   3.077  0.4082  1.1896 -0.1187
 4254TIP3   OH212767   3.180   1.804   1.295  0.1032  0.2824  0.2802
 4254TIP3    H112768   3.095   1.767   1.318 -0.2246 -1.3150 -2.9323
 4254TIP3    H212769   3.159   1.887   1.251  0.0610 -0.4084 -1.0797
 4255TIP3   OH212770   5.843   0.182   4.085  0.0192 -0.0304 -0.7204
 4255TIP3    H112771   5.753   0.167   4.114  0.4920  0.1136  0.9449
 4255TIP3    H212772   5.854   0.277   4.089  0.6997 -0.1378  0.6614
 4256TIP3   OH212773   6.040   0.829   1.301 -0.0229  0.0685  0.4489
 4256TIP3    H112774   6.116   0.875   1.335  0.6508 -0.5696 -0.1618
 4256TIP3    H212775   5.993   0.895   1.249  0.9346  0.0852 -0.4318
 4257TIP3   OH212776   4.446   5.160   4.047 -0.0893  0.2541 -0.1313
 4257TIP3    H112777   4.389   5.088   4.074  0.6425  0.0067  0.7865
 4257TIP3    H212778   4.528   5.146   4.094 -0.9614  3.4379  2.6820
 4258TIP3   OH212779   0.186   0.160   3.605  0.3662 -0.7289 -0.0975
 4258TIP3    H112780   0.124   0.186   3.674  0.0849  1.9137 -1.2341
 4258TIP3    H212781   0.271   0.186   3.639  0.4352 -1.0998  0.0098
 4259TIP3   OH212782   1.492   5.900   0.780 -0.3370 -0.6204  0.0327
 4259TIP3    H112783   1.481   5.992   0.803 -0.1373 -0.4162 -0.6640
 4259TIP3    H212784   1.573   5.898   0.728 -0.5271 -1.1343 -0.2496
 4260TIP3   OH212785   0.305   5.917   1.925  0.7077  0.0654  0.2977
 4260TIP3    H112786   0.391   5.886   1.955  1.0157 -0.2284 -0.8291
 4260TIP3    H212787   0.325   5.976   1.853 -0.0276  0.3363  0.3138
 4261TIP3   OH212788   5.658   1.611   2.922 -0.4516  0.2596  0.0843
 4261TIP3    H112789   5.595   1.630   2.991 -0.1276  1.4612  0.0688
 4261TIP3    H212790   5.736   1.660   2.947 -0.0683  0.0856 -0.7398
 4262TIP3   OH212791   0.934   4.738   4.903 -0.7050 -0.7939  0.1055
 4262TIP3    H112792   0.992   4.674   4.943  0.2561 -0.9930 -1.5166
 4262TIP3    H212793   0.954   4.820   4.948 -1.1355 -1.3787  1.4128
 4263TIP3   OH212794   6.032   5.910   1.751 -0.0781  0.0135  0.2821
 4263TIP3    H112795   6.096   5.863   1.805  0.2639  1.5323  1.2595
 4263TIP3    H212796   6.071   5.997   1.738 -2.7178  1.6869  2.5260
 4264TIP3   OH212797   3.383   4.920   3.007 -0.4227  0.2150 -0.2413
 4264TIP3    H112798   3.316   4.881   3.063  0.4506  0.2476  0.8694
 4264TIP3    H212799   3.432   4.978   3.066 -1.0219  2.2006 -1.6077
 4265TIP3   OH212800   2.734   4.584   0.813  0.1570  0.7307 -0.4389
 4265TIP3    H112801   2.705   4.670   0.846 -2.6994  0.5866 -2.2063
 4265TIP3    H212802   2.771   4.603   0.727 -0.4297  0.2380 -0.8080
 4266TIP3   OH212803   3.395   2.153   3.914 -0.0484 -0.1807 -0.3988
 4266TIP3    H112804   3.376   2.230   3.859  1.0800  2.2320  2.3165
 4266TIP3    H212805   3.319   2.146   3.972  0.1257 -0.7855 -0.2373
 4267TIP3   OH212806   2.259   3.213   1.878 -0.2622 -0.5248  0.5354
 4267TIP3    H112807   2.203   3.250   1.947 -1.3074 -1.3593  0.1819
 4267TIP3    H212808   2.215   3.237   1.796  1.3881  1.1243  0.0813
 4268TIP3   OH212809   2.468   2.809   2.663 -0.0324 -0.1624  0.1065
 4268TIP3    H112810   2.418   2.873   2.714 -0.9801  0.3122 -1.3416
 4268TIP3    H212811   2.417   2.799   2.582  2.1433  0.2212 -1.3805
 4269TIP3   OH212812   3.843   4.934   3.102 -0.2952 -0.0572 -0.1258
 4269TIP3    H112813   3.938   4.937   3.111 -0.3275  1.6503 -0.1263
 4269TIP3    H212814   3.826   4.849   3.063  1.3518  0.2025 -1.5356
 4270TIP3   OH212815   0.168   4.537   0.074  0.8955  0.3380 -0.2166
 4270TIP3    H112816   0.233   4.510   0.139  0.6356 -0.9720 -0.4586
 4270TIP3    H212817   0.104   4.587   0.123  0.8850 -0.3314  0.4766
 4271TIP3   OH212818   6.150   1.027   1.912  0.0638  0.6284  0.4600
 4271TIP3    H112819   6.093   0.950   1.911 -1.1495  1.4908 -0.8858
 4271TIP3    H212820   6.229   0.999   1.865 -0.7868  0.4892 -0.9216
 4272TIP3   OH212821   0.771   5.939   1.684 -0.2417  0.2861  0.0460
 4272TIP3    H112822   0.738   5.988   1.609 -1.7807  0.0797  0.5528
 4272TIP3    H212823   0.777   5.848   1.652 -0.2986  0.3010 -0.0070
 4273TIP3   OH212824   4.576   4.436   3.330 -0.5223  0.0595 -0.0584
 4273TIP3    H112825   4.622   4.353   3.319 -1.4002 -0.3613 -0.7081
 4273TIP3    H212826   4.487   4.410   3.355 -0.5143  0.8438  0.8202
 4274TIP3   OH212827   5.487   3.979   0.270  0.1726 -0.0307 -0.3142
 4274TIP3    H112828   5.421   3.936   0.324  0.2874  0.3747  0.1646
 4274TIP3    H212829   5.517   3.912   0.209  2.1254 -1.4114  1.9886
 4275TIP3   OH212830   6.332   2.853   2.265 -0.3133 -0.4118  0.4347
 4275TIP3    H112831   6.264   2.894   2.318  1.3530 -0.1833  2.5628
 4275TIP3    H212832   6.393   2.815   2.329  1.3388 -0.9676 -1.3566
 4276TIP3   OH212833   2.032   1.460   3.652 -0.4029 -0.2960 -0.7762
 4276TIP3    H112834   2.087   1.394   3.696  0.0893  0.4048 -0.3146
 4276TIP3    H212835   1.947   1.417   3.641 -0.1507 -0.9395 -0.3012
 4277TIP3   OH212836   1.349   1.482   4.702  0.1940  0.2335  0.5428
 4277TIP3    H112837   1.288   1.555   4.688  1.0013  1.0128  0.9800
 4277TIP3    H212838   1.320   1.443   4.784 -0.2349  0.0563  0.3133
 4278TIP3   OH212839   0.349   3.737   4.997  0.9877 -0.0811  0.6187
 4278TIP3    H112840   0.437   3.703   4.982  0.2757 -1.8902  0.2104
 4278TIP3    H212841   0.316   3.759   4.910  0.5688 -0.6809  0.6216
 4279TIP3   OH212842   2.842   1.329   0.492 -0.1714 -0.0286  0.5307
 4279TIP3    H112843   2.786   1.351   0.567 -0.7993 -0.5232  0.2163
 4279TIP3    H212844   2.930   1.355   0.520 -0.7149  2.0666  0.5202
 4280TIP3   OH212845   0.534   0.993   1.765 -0.3369  0.0389 -0.3134
 4280TIP3    H112846   0.621   0.974   1.730 -0.2567 -0.1798  0.0037
 4280TIP3    H212847   0.546   0.998   1.859 -0.4292  1.2946 -0.3530
 4281TIP3   OH212848   5.148   5.574   4.221 -0.2826 -0.0694  0.2946
 4281TIP3    H112849   5.218   5.533   4.170  0.3735  0.2018  0.9551
 4281TIP3    H212850   5.136   5.660   4.180  0.7966  0.4718  1.0484
 4282TIP3   OH212851   5.212   0.906   1.408  0.4463  0.2540 -0.3015
 4282TIP3    H112852   5.305   0.891   1.392  0.2024 -0.4380 -1.1863
 4282TIP3    H212853   5.200   0.999   1.393  1.1290  0.4893  0.5498
 4283TIP3   OH212854   3.795   3.895   4.568 -0.0306  0.3035 -0.1992
 4283TIP3    H112855   3.741   3.972   4.552 -2.1995 -1.3376 -1.3210
 4283TIP3    H212856   3.850   3.888   4.490 -0.3054  0.3613 -0.4017
 4284TIP3   OH212857   5.403   0.443   3.328  0.4940 -0.0722  0.2679
 4284TIP3    H112858   5.469   0.453   3.396 -0.5967 -0.2509  1.3685
 4284TIP3    H212859   5.363   0.358   3.345 -1.2823  0.8188  0.7614
 4285TIP3   OH212860   3.605   0.815   4.785 -0.2551  0.2909 -0.3966
 4285TIP3    H112861   3.613   0.802   4.880  4.4354  2.7187 -0.1583
 4285TIP3    H212862   3.567   0.902   4.776  0.6330  0.6655 -0.6428
 4286TIP3   OH212863   0.809   3.656   4.519  0.1033 -0.4308  0.8155
 4286TIP3    H112864   0.823   3.681   4.610  1.6711  0.8390  0.2847
 4286TIP3    H212865   0.897   3.647   4.483 -0.4515  0.5825 -0.9330
 4287TIP3   OH212866   1.252   0.842   0.340 -0.2573 -0.2531 -0.1978
 4287TIP3    H112867   1.344   0.851   0.315 -0.6864 -2.8560 -3.2647
 4287TIP3    H212868   1.255   0.795   0.424  1.1337  1.7031  0.9373
 4288TIP3   OH212869   5.796   2.546   1.780 -0.5608  0.4188 -0.4234
 4288TIP3    H112870   5.789   2.583   1.868  0.6540  0.9110 -0.5088
 4288TIP3    H212871   5.870   2.593   1.740  1.0300 -2.0284 -0.5648
 4289TIP3   OH212872   2.574   5.890   5.076  0.5417  0.6110  0.0840
 4289TIP3    H112873   2.647   5.834   5.050 -0.1758  0.8215 -2.6728
 4289TIP3    H212874   2.575   5.887   5.172  1.6124 -2.6725  0.1000
 4290TIP3   OH212875   5.823   1.993   0.602 -0.5078 -0.7124 -0.0927
 4290TIP3    H112876   5.731   1.983   0.627 -1.2262 -1.4482 -2.7663
 4290TIP3    H212877   5.854   1.904   0.587 -0.0144 -0.3600 -1.2712
 4291TIP3   OH212878   3.559   0.087   2.585  0.2113 -0.0270 -0.4210
 4291TIP3    H112879   3.487   0.032   2.617  0.7670 -2.3152 -2.7526
 4291TIP3    H212880   3.517   0.150   2.527 -0.2400  0.9852  0.9517
 4292TIP3   OH212881   3.162   3.171   1.845  0.3076 -0.1581  0.3624
 4292TIP3    H112882   3.085   3.228   1.838  0.3423 -0.2260 -0.7120
 4292TIP3    H212883   3.212   3.188   1.765  1.3832 -0.1691  1.0099
 4293TIP3   OH212884   0.804   3.155   0.499 -0.5520  0.2319 -0.1728
 4293TIP3    H112885   0.741   3.095   0.538 -0.6172 -0.3485 -1.1186
 4293TIP3    H212886   0.803   3.232   0.555 -3.4200  0.9796 -1.1279
 4294TIP3   OH212887   5.180   4.495   2.572  0.2274  0.1232 -0.5498
 4294TIP3    H112888   5.157   4.575   2.524  1.4902  1.5710  1.1299
 4294TIP3    H212889   5.098   4.462   2.606 -0.0331  2.4447  1.2719
 4295TIP3   OH212890   5.747   4.407   1.273  0.1086 -0.2178 -0.0332
 4295TIP3    H112891   5.739   4.367   1.360 -1.8132  2.1447  0.9890
 4295TIP3    H212892   5.815   4.474   1.285 -1.4940  1.4289  0.2799
 4296TIP3   OH212893   5.155   0.057   0.383  0.2049 -0.5680  0.1329
 4296TIP3    H112894   5.127   0.140   0.423 -1.0585 -0.4752 -0.8561
 4296TIP3    H212895   5.229   0.081   0.327 -0.5355  0.0431 -0.6233
 4297TIP3   OH212896   2.387   2.788   3.247  0.0121  0.2144  0.1643
 4297TIP3    H112897   2.342   2.857   3.296  0.4464 -0.4987  1.6453
 4297TIP3    H212898   2.436   2.834   3.180 -2.2773  1.0721 -1.0203
 4298TIP3   OH212899   4.146   0.333   4.916 -0.1061 -0.2086 -0.0500
 4298TIP3    H112900   4.207   0.406   4.926  1.5760 -1.4928 -0.3315
 4298TIP3    H212901   4.141   0.319   4.822 -0.7388 -0.1944 -0.0173
 4299TIP3   OH212902   0.915   3.840   1.205 -0.3145 -0.0601  0.2483
 4299TIP3    H112903   0.851   3.776   1.174  0.0413 -0.5119  0.4452
 4299TIP3    H212904   0.995   3.790   1.219 -0.0373  0.4228  0.4190
 4300TIP3   OH212905   1.845   5.515   2.784  0.0963  0.1429 -0.5025
 4300TIP3    H112906   1.750   5.526   2.795  0.2041  0.4576  0.1641
 4300TIP3    H212907   1.856   5.424   2.757 -0.3401 -0.1303  0.2159
 4301TIP3   OH212908   3.701   0.427   4.077  0.3504  0.0351 -0.6781
 4301TIP3    H112909   3.712   0.442   4.170 -0.2947  0.0183 -0.5916
 4301TIP3    H212910   3.612   0.392   4.069  0.6290 -0.5784 -1.2236
 4302TIP3   OH212911   4.168   3.606   4.390 -0.1719  0.7565  0.2166
 4302TIP3    H112912   4.172   3.689   4.342 -3.1662  2.1366  2.0293
 4302TIP3    H212913   4.111   3.551   4.336  1.2484  0.0785 -0.6386
 4303TIP3   OH212914   5.356   2.668   4.731 -0.4047  0.1409 -0.1891
 4303TIP3    H112915   5.451   2.676   4.739 -0.4544 -0.1895  1.0527
 4303TIP3    H212916   5.323   2.708   4.812 -1.3800  1.1704 -1.0673
 4304TIP3   OH212917   2.369   1.239   0.795 -0.1700  0.0827  0.0134
 4304TIP3    H112918   2.297   1.198   0.747  1.2383  0.1944 -2.3334
 4304TIP3    H212919   2.424   1.166   0.823 -0.3243  0.0935  0.3500
 4305TIP3   OH212920   0.895   2.944   0.744  0.0869  0.3617  0.1291
 4305TIP3    H112921   0.976   2.916   0.701 -0.2331 -1.2067  0.4805
 4305TIP3    H212922   0.905   3.038   0.755  1.2339  0.4251 -1.1462
 4306TIP3   OH212923   1.351   0.735   4.426 -0.0296  0.2368  0.3457
 4306TIP3    H112924   1.369   0.708   4.516  0.3519 -0.8545 -0.0376
 4306TIP3    H212925   1.338   0.830   4.431  0.5290  0.2694  1.4652
 4307TIP3   OH212926   6.238   5.235   1.913 -0.2028 -0.2921 -0.1287
 4307TIP3    H112927   6.205   5.227   1.824  0.4559  0.1228 -0.4198
 4307TIP3    H212928   6.160   5.239   1.967 -0.6157 -0.2906 -0.7148
 4308TIP3   OH212929   0.035   0.898   1.365  0.2062 -0.2593 -0.7483
 4308TIP3    H112930   0.040   0.927   1.456  0.2783  0.6496 -1.0306
 4308TIP3    H212931   0.036   0.802   1.370  1.4667 -0.2140  0.1330
 4309TIP3   OH212932   0.761   1.800   1.298  0.2963  0.6031 -0.6078
 4309TIP3    H112933   0.789   1.864   1.363 -0.8901  0.1211  0.4006
 4309TIP3    H212934   0.780   1.842   1.214 -2.0720  3.0875 -0.0339
 4310TIP3   OH212935   0.335   0.566   4.644  0.7291 -1.0903 -0.5542
 4310TIP3    H112936   0.347   0.564   4.739  1.1246  1.2092 -0.4865
 4310TIP3    H212937   0.383   0.489   4.612  1.1181 -1.5586  1.0463
 4311TIP3   OH212938   4.389   2.657   4.845  0.0521 -0.1277 -0.4683
 4311TIP3    H112939   4.319   2.610   4.890  0.3454 -0.8222 -0.7317
 4311TIP3    H212940   4.354   2.746   4.834 -0.1978 -0.0580  0.7171
 4312TIP3   OH212941   4.834   1.584   1.339 -0.2447 -0.0074  0.5498
 4312TIP3    H112942   4.764   1.519   1.327  0.4608 -0.9145  1.1844
 4312TIP3    H212943   4.912   1.543   1.300 -0.4485  1.8445 -2.0487
 4313TIP3   OH212944   4.304   0.854   2.458 -0.0587 -0.1848  0.3514
 4313TIP3    H112945   4.383   0.892   2.419 -1.1260  1.3088 -0.4365
 4313TIP3    H212946   4.235   0.869   2.393 -1.4534  0.5742  1.9204
 4314TIP3   OH212947   5.775   0.923   0.524  0.4340  0.0398  0.2165
 4314TIP3    H112948   5.793   0.941   0.432 -1.1676  1.2087  0.0858
 4314TIP3    H212949   5.782   0.828   0.531  0.7667 -0.0498 -1.0638
 4315TIP3   OH212950   6.167   4.377   4.316  0.0212 -0.2680 -0.0321
 4315TIP3    H112951   6.174   4.318   4.241  1.0774  0.8074 -0.8112
 4315TIP3    H212952   6.198   4.461   4.284  0.0479  0.3402  1.4898
 4316TIP3   OH212953   6.166   1.875   4.173 -0.1628 -0.8095  0.0205
 4316TIP3    H112954   6.215   1.804   4.215  0.0911 -1.3032 -1.0830
 4316TIP3    H212955   6.075   1.858   4.197  0.0337 -0.7203  0.8770
 4317TIP3   OH212956   4.311   3.765   3.081 -0.3018  0.0793  0.9074
 4317TIP3    H112957   4.218   3.788   3.086 -0.1110  1.2967 -0.5401
 4317TIP3    H212958   4.357   3.848   3.091  0.5420 -0.1309 -0.8462
 4318TIP3   OH212959   2.939   4.558   2.548  0.4819  0.1478  0.5774
 4318TIP3    H112960   2.927   4.643   2.589 -0.9371  0.0547  0.4108
 4318TIP3    H212961   2.876   4.501   2.593  2.0937 -1.0663  1.3683
 4319TIP3   OH212962   4.397   0.949   3.402  0.2571 -0.5371  0.4442
 4319TIP3    H112963   4.434   0.923   3.318  0.2344  1.0664 -0.0963
 4319TIP3    H212964   4.312   0.905   3.405 -0.3638  0.4774 -1.0404
 4320TIP3   OH212965   4.887   2.960   0.744  0.0429 -0.3438  0.0439
 4320TIP3    H112966   4.900   3.024   0.674 -0.0468  1.3529  1.5149
 4320TIP3    H212967   4.955   2.894   0.728  1.1897  0.9318 -0.6295
 4321TIP3   OH212968   4.171   1.818   2.688  0.6415 -0.1107 -0.2820
 4321TIP3    H112969   4.183   1.821   2.783  0.3453 -1.9619 -0.1478
 4321TIP3    H212970   4.076   1.821   2.675  0.6976  0.5752 -0.5446
 4322TIP3   OH212971   3.428   3.570   3.694  0.1270 -0.2807 -0.1371
 4322TIP3    H112972   3.421   3.477   3.716 -2.5037  0.2249  1.6347
 4322TIP3    H212973   3.352   3.588   3.639  1.0648  0.7057 -1.1857
 4323TIP3   OH212974   0.655   5.289   0.874  0.2271  0.3840 -0.1104
 4323TIP3    H112975   0.672   5.379   0.846 -0.6041  1.0363  1.3547
 4323TIP3    H212976   0.560   5.279   0.866  0.0222  0.4323  1.8876
 4324TIP3   OH212977   4.840   2.531   2.328 -0.7417 -0.1237  0.0033
 4324TIP3    H112978   4.807   2.592   2.261 -1.1547 -1.9103 -1.5284
 4324TIP3    H212979   4.812   2.445   2.296  1.0346 -1.2461  1.3326
 4325TIP3   OH212980   2.922   0.541   3.151 -0.0833 -0.2251 -0.0573
 4325TIP3    H112981   2.914   0.633   3.129 -0.9221 -0.4076 -0.5436
 4325TIP3    H212982   2.983   0.539   3.225 -0.8745  0.8188  0.6464
 4326TIP3   OH212983   3.556   3.118   5.007 -0.0034  0.2323 -0.9882
 4326TIP3    H112984   3.537   3.146   5.097 -0.5379  0.5155 -1.1839
 4326TIP3    H212985   3.591   3.029   5.016 -0.3031  0.1592 -0.5238
 4327TIP3   OH212986   2.328   1.359   2.770 -0.2641  0.0647 -0.3429
 4327TIP3    H112987   2.246   1.406   2.759  0.0390  0.4802 -0.8805
 4327TIP3    H212988   2.313   1.302   2.845 -0.9578  0.3167 -0.2815
 4328TIP3   OH212989   4.867   3.990   0.509  0.4261 -0.3111 -0.1432
 4328TIP3    H112990   4.824   3.907   0.488 -2.4576  1.3987 -1.6779
 4328TIP3    H212991   4.917   4.012   0.431 -2.3357  1.3367 -1.5956
 4329TIP3   OH212992   2.586   4.720   0.434 -0.5633 -0.0511  0.0639
 4329TIP3    H112993   2.523   4.756   0.371  0.8769  0.0249 -1.3773
 4329TIP3    H212994   2.563   4.627   0.440 -1.2696  0.1210  0.1268
 4330TIP3   OH212995   3.061   2.968   4.178  0.1263 -0.0472 -0.3350
 4330TIP3    H112996   3.111   2.934   4.252  0.8263  1.3218 -0.1436
 4330TIP3    H212997   3.030   2.890   4.132  0.1929 -0.9189  1.0482
 4331TIP3   OH212998   5.476   0.410   4.267  0.4014 -0.1645  0.6901
 4331TIP3    H112999   5.401   0.447   4.314  0.2716  2.2464 -1.1750
 4331TIP3    H213000   5.550   0.464   4.293  0.6505  0.1111 -0.5149
 4332TIP3   OH213001   4.743   5.057   4.815  0.3368 -0.4989 -0.5855
 4332TIP3    H113002   4.778   4.971   4.840 -1.4801 -1.5852 -1.5512
 4332TIP3    H213003   4.766   5.066   4.722  1.0061  0.3419 -0.3508
 4333TIP3   OH213004   5.427   5.192   3.655  0.1406 -0.5204 -0.2175
 4333TIP3    H113005   5.434   5.182   3.749 -0.1250  2.1398  0.1596
 4333TIP3    H213006   5.510   5.230   3.628 -0.7672  1.3415 -0.5727
 4334TIP3   OH213007   2.272   0.063   2.641  0.3642 -0.2639 -0.7676
 4334TIP3    H113008   2.220   0.110   2.706  0.4564 -1.6351  0.3450
 4334TIP3    H213009   2.363   0.085   2.664  0.3738 -0.2318 -0.8378
 4335TIP3   OH213010   4.476   3.231   0.209 -0.0697  0.3718 -0.3114
 4335TIP3    H113011   4.497   3.320   0.182 -0.2593  0.6248  0.3463
 4335TIP3    H213012   4.381   3.224   0.197  0.1540 -0.2905 -1.9045
 4336TIP3   OH213013   6.107   0.598   2.657 -0.2127  0.2337 -0.1336
 4336TIP3    H113014   6.173   0.667   2.656  0.2857 -0.2136  0.6354
 4336TIP3    H213015   6.146   0.528   2.710 -0.7715 -0.5711 -0.7529
 4337TIP3   OH213016   1.815   3.881   3.212  0.1358  0.2322 -0.4447
 4337TIP3    H113017   1.895   3.830   3.223 -0.3050 -0.7080 -1.4088
 4337TIP3    H213018   1.795   3.875   3.119 -1.9099 -0.9265  0.0030
 4338TIP3   OH213019   5.646   5.913   2.036  0.5790 -0.0704  0.3264
 4338TIP3    H113020   5.740   5.902   2.019  0.5260  0.1674 -0.1286
 4338TIP3    H213021   5.612   5.823   2.039  0.1282 -0.1944 -3.4920
 4339TIP3   OH213022   4.560   3.332   1.346 -0.1493 -0.1082  0.5592
 4339TIP3    H113023   4.572   3.312   1.253  0.0391 -0.8780  0.7451
 4339TIP3    H213024   4.620   3.405   1.363 -2.1692  1.9484 -0.5506
 4340TIP3   OH213025   0.336   5.267   3.668 -0.2453 -0.4870  0.3983
 4340TIP3    H113026   0.295   5.216   3.598  0.8838  0.4991 -1.0706
 4340TIP3    H213027   0.430   5.253   3.654  0.0643  1.4229  0.3628
 4341TIP3   OH213028   5.867   3.013   4.854  0.1933 -0.1993  0.3777
 4341TIP3    H113029   5.898   2.950   4.919 -0.6654 -2.0377 -0.9163
 4341TIP3    H213030   5.805   2.964   4.800 -1.8547  2.2027  0.3317
 4342TIP3   OH213031   0.608   4.008   0.526  0.1407 -0.3352  0.7359
 4342TIP3    H113032   0.666   3.973   0.459 -0.7921 -1.1187  0.3066
 4342TIP3    H213033   0.540   3.941   0.537 -0.3891  0.3148  1.5916
 4343TIP3   OH213034   2.755   3.349   1.343 -0.3396  0.1883 -0.2293
 4343TIP3    H113035   2.826   3.332   1.406 -1.4372  1.7134  1.5338
 4343TIP3    H213036   2.743   3.266   1.298  1.8745 -0.4003  0.1218
 4344TIP3   OH213037   1.086   0.614   2.167  0.3390  0.5087 -0.3177
 4344TIP3    H113038   1.151   0.602   2.098 -1.2007  1.5883 -2.0311
 4344TIP3    H213039   1.071   0.525   2.201  0.4467 -0.2002 -2.0341
 4345TIP3   OH213040   5.697   4.821   2.208  0.9268 -0.0859  0.4381
 4345TIP3    H113041   5.705   4.727   2.195  0.3658 -0.4661  2.4503
 4345TIP3    H213042   5.640   4.829   2.285 -1.9012  1.9611 -1.6368
 4346TIP3   OH213043   3.653   4.130   4.621  0.5124  0.3879 -0.3634
 4346TIP3    H113044   3.592   4.154   4.551 -0.1332  1.2624  0.4747
 4346TIP3    H213045   3.655   4.207   4.678  0.1746 -0.7216  1.1833
 4347TIP3   OH213046   0.801   3.425   5.023 -0.0330 -0.1387 -0.3742
 4347TIP3    H113047   0.855   3.393   4.951 -1.3236 -1.2884 -0.8673
 4347TIP3    H213048   0.862   3.473   5.079  0.9386  1.1874 -2.4352
 4348TIP3   OH213049   1.716   3.351   4.734 -0.1717  0.1045  0.2642
 4348TIP3    H113050   1.796   3.318   4.773 -0.2969  2.2906  2.6581
 4348TIP3    H213051   1.688   3.422   4.793 -3.4806 -0.1110 -0.8365
 4349TIP3   OH213052   2.115   4.966   1.125 -0.8599 -0.3546  0.1949
 4349TIP3    H113053   2.146   4.881   1.156  0.5147 -0.0169 -0.1999
 4349TIP3    H213054   2.020   4.954   1.114 -0.9160 -1.4058  1.4943
 4350TIP3   OH213055   4.904   5.906   4.134 -0.2482  0.3561 -1.2055
 4350TIP3    H113056   4.943   5.835   4.083  0.8243  0.5062 -0.6400
 4350TIP3    H213057   4.978   5.942   4.184 -0.8948  1.4574 -1.0135
 4351TIP3   OH213058   0.172   1.035   4.607  0.0577 -0.3424 -0.3389
 4351TIP3    H113059   0.158   1.073   4.520  1.8765  0.1907 -0.4419
 4351TIP3    H213060   0.115   0.958   4.609 -1.3350  0.6184 -1.3243
 4352TIP3   OH213061   4.894   2.475   2.624  0.7920 -0.2274 -0.4460
 4352TIP3    H113062   4.892   2.563   2.586  0.5675 -0.4671 -0.9970
 4352TIP3    H213063   4.803   2.445   2.621  0.7561 -0.2254  0.3542
 4353TIP3   OH213064   0.690   4.746   5.032  0.5925  0.3628  0.4022
 4353TIP3    H113065   0.768   4.729   4.978  0.4077  2.7745 -0.7550
 4353TIP3    H213066   0.629   4.676   5.007  1.5315 -0.2101 -0.4112
 4354TIP3   OH213067   6.091   2.384   5.044  0.1197  0.3607  0.2291
 4354TIP3    H113068   6.175   2.430   5.038 -1.3395  3.1679 -0.5935
 4354TIP3    H213069   6.025   2.453   5.032 -2.3290 -1.6976  0.9728
 4355TIP3   OH213070   0.460   3.878   0.028 -0.2463  0.1350  0.2042
 4355TIP3    H113071   0.400   3.952   0.028 -0.3070  0.0877 -0.2078
 4355TIP3    H213072   0.463   3.849   0.120  0.5502  1.2529  0.5494
 4356TIP3   OH213073   5.552   4.465   2.313  0.0128  0.8150  0.0041
 4356TIP3    H113074   5.597   4.504   2.238 -1.5075  2.4501 -0.1331
 4356TIP3    H213075   5.493   4.534   2.344  0.3915  0.1024  2.5639
 4357TIP3   OH213076   0.259   5.086   2.301  0.0768  0.3257 -0.3753
 4357TIP3    H113077   0.342   5.041   2.318 -0.3586 -0.5735 -0.5834
 4357TIP3    H213078   0.217   5.034   2.232 -1.2545 -0.0091  0.6464
 4358TIP3   OH213079   3.436   0.864   0.594 -0.2650  0.5329  0.1098
 4358TIP3    H113080   3.516   0.895   0.636 -0.0150 -0.6750  0.5639
 4358TIP3    H213081   3.466   0.813   0.519 -0.5973  0.0356  0.3104
 4359TIP3   OH213082   3.069   3.219   3.900 -0.0740  0.6630  0.2263
 4359TIP3    H113083   3.107   3.159   3.835 -1.1074  1.9154 -1.6369
 4359TIP3    H213084   3.066   3.303   3.855 -0.2488  1.7521  2.1713
 4360TIP3   OH213085   4.567   4.768   5.024  0.5648  0.5819  0.2468
 4360TIP3    H113086   4.516   4.846   5.000  0.8563  0.1963 -1.7551
 4360TIP3    H213087   4.521   4.733   5.100 -1.4845  0.9184 -0.7627
 4361TIP3   OH213088   1.442   5.858   1.581  0.1744  0.6671  0.1783
 4361TIP3    H113089   1.380   5.829   1.648 -2.7049  0.4828 -2.3320
 4361TIP3    H213090   1.424   5.952   1.570 -1.8171  0.1158 -2.4256
 4362TIP3   OH213091   2.227   4.714   1.189  0.1774  0.5342  0.1646
 4362TIP3    H113092   2.309   4.734   1.143  1.1241 -0.7974  1.1675
 4362TIP3    H213093   2.204   4.626   1.159 -1.5869  1.3731 -1.0341
 4363TIP3   OH213094   4.306   0.399   0.529  0.2209  0.4093 -0.5708
 4363TIP3    H113095   4.372   0.392   0.597  1.1400  1.8405 -1.2488
 4363TIP3    H213096   4.354   0.430   0.452 -0.9141 -0.4264 -1.6614
 4364TIP3   OH213097   5.013   2.827   3.160  0.6318  0.0262  0.3961
 4364TIP3    H113098   5.054   2.812   3.246 -1.6068 -2.9649  1.0965
 4364TIP3    H213099   4.981   2.741   3.133  0.4277  1.0387 -3.0718
 4365TIP3   OH213100   5.655   2.456   4.152 -0.5042  0.5539  0.4115
 4365TIP3    H113101   5.580   2.399   4.167 -1.1333  0.9884 -0.9235
 4365TIP3    H213102   5.631   2.539   4.194  0.1421  0.0506  1.8063
 4366TIP3   OH213103   1.502   5.132   1.726 -0.5404  0.6568  0.1506
 4366TIP3    H113104   1.522   5.226   1.719  0.6024  0.3497 -1.2639
 4366TIP3    H213105   1.463   5.109   1.641 -1.0012 -0.1162  0.5581
 4367TIP3   OH213106   4.694   2.357   3.112  0.2545  0.7262 -0.0870
 4367TIP3    H113107   4.612   2.403   3.129  0.0927 -0.0390  1.3866
 4367TIP3    H213108   4.686   2.324   3.023 -0.9013  0.9430 -0.0769
 4368TIP3   OH213109   1.578   5.282   0.130 -0.4004 -0.4108  0.4146
 4368TIP3    H113110   1.640   5.272   0.057  0.0812 -0.4124  0.8132
 4368TIP3    H213111   1.509   5.219   0.112 -1.5422  1.2248 -1.2972
 4369TIP3   OH213112   5.229   3.505   1.745 -0.0186 -0.0239  0.0570
 4369TIP3    H113113   5.239   3.501   1.840 -0.5340 -0.1180  0.1084
 4369TIP3    H213114   5.135   3.512   1.731 -0.0334 -1.2308 -0.4949
 4370TIP3   OH213115   2.192   2.635   1.852  0.8864 -0.6044  0.6422
 4370TIP3    H113116   2.218   2.724   1.875  2.2483 -0.1287 -2.2956
 4370TIP3    H213117   2.273   2.592   1.824  0.0579 -2.4011  0.8170
 4371TIP3   OH213118   2.660   0.839   3.012 -0.4346 -0.2854  0.1461
 4371TIP3    H113119   2.752   0.851   2.989 -1.1015  2.7477 -1.4633
 4371TIP3    H213120   2.661   0.818   3.105  1.8825 -1.1490 -0.0115
 4372TIP3   OH213121   5.145   5.586   5.058 -0.3901  0.0964 -0.3783
 4372TIP3    H113122   5.114   5.517   5.117  0.4063  0.2719  0.2439
 4372TIP3    H213123   5.220   5.624   5.102 -1.1916  1.8122 -0.4102
 4373TIP3   OH213124   5.679   4.595   4.572 -0.2520 -0.2949  0.4491
 4373TIP3    H113125   5.692   4.689   4.583 -0.8159 -0.1307 -0.2555
 4373TIP3    H213126   5.768   4.560   4.560 -0.1659  0.4139 -1.2338
 4374TIP3   OH213127   4.864   1.288   3.717 -0.0383  0.2718  0.2371
 4374TIP3    H113128   4.862   1.212   3.774 -1.6381  0.7771  0.8943
 4374TIP3    H213129   4.817   1.261   3.638  1.7662 -0.2737 -0.7040
 4375TIP3   OH213130   0.762   2.418   4.068 -0.5713  0.0630 -0.3063
 4375TIP3    H113131   0.796   2.366   4.141 -1.1283  0.1928  0.0468
 4375TIP3    H213132   0.709   2.485   4.110  1.2946  1.8531 -0.6360
 4376TIP3   OH213133   0.056   2.298   3.235  0.1765  0.2056  0.2880
 4376TIP3    H113134  -0.035   2.286   3.211  0.3484  1.4397 -1.1578
 4376TIP3    H213135   0.105   2.283   3.153  1.2474 -0.1040  0.9559
 4377TIP3   OH213136   3.493   3.311   2.457  0.1969 -0.4875 -0.3951
 4377TIP3    H113137   3.513   3.298   2.364 -1.3900  0.4816 -0.9247
 4377TIP3    H213138   3.465   3.225   2.487  0.9016 -0.8562 -0.7482
 4378TIP3   OH213139   6.274   0.996   2.856  0.3334  0.3547 -0.0202
 4378TIP3    H113140   6.338   0.981   2.926  0.8219 -0.8871 -0.7175
 4378TIP3    H213141   6.195   1.022   2.903  1.0351  0.8843  0.9187
 4379TIP3   OH213142   5.288   5.022   1.821  0.1490 -0.4425  0.0659
 4379TIP3    H113143   5.210   5.078   1.817  0.8300  0.5785  0.6612
 4379TIP3    H213144   5.343   5.053   1.749 -0.8161 -2.5351 -1.7237
 4380TIP3   OH213145   6.017   0.152   2.907  0.0432 -0.3568 -0.3175
 4380TIP3    H113146   5.982   0.063   2.901 -0.5028 -0.1318 -0.5508
 4380TIP3    H213147   5.964   0.194   2.975  0.7972 -0.4281  0.3328
 4381TIP3   OH213148   5.838   5.533   1.922 -0.1087  0.4697 -0.1975
 4381TIP3    H113149   5.791   5.528   2.005 -0.0564 -0.0318 -0.1984
 4381TIP3    H213150   5.819   5.621   1.889 -1.6295  0.0418 -0.5388
 4382TIP3   OH213151   3.539   2.013   0.325 -0.0871 -0.1020  0.0090
 4382TIP3    H113152   3.467   1.950   0.329  0.4138 -0.6281  1.3980
 4382TIP3    H213153   3.516   2.080   0.390  0.1678  0.2928 -0.3000
 4383TIP3   OH213154   2.273   2.407   1.356  0.5503 -0.6688  0.7188
 4383TIP3    H113155   2.287   2.442   1.268 -0.5185  1.2115  1.2532
 4383TIP3    H213156   2.185   2.371   1.354  0.7584 -1.1935  0.8532
 4384TIP3   OH213157   6.230   0.688   0.033  0.8375 -0.0990  0.3786
 4384TIP3    H113158   6.280   0.721  -0.042  1.0839 -1.2149  0.0349
 4384TIP3    H213159   6.295   0.641   0.085  0.0862 -2.0338 -0.3463
 4385TIP3   OH213160   2.886   1.968   4.146  0.0837 -0.1212  0.1192
 4385TIP3    H113161   2.977   1.989   4.126  0.3580 -2.1231 -1.0134
 4385TIP3    H213162   2.882   1.967   4.242  0.7006  2.0172  0.2147
 4386TIP3   OH213163   5.719   0.539   3.808  0.3956  0.3293 -0.0858
 4386TIP3    H113164   5.656   0.471   3.785 -0.5492  1.5234 -1.1365
 4386TIP3    H213165   5.785   0.534   3.739 -0.3920  1.3418 -0.9438
 4387TIP3   OH213166   1.397   3.879   0.612 -0.4792 -0.7106  0.3817
 4387TIP3    H113167   1.442   3.889   0.529  1.1367 -0.9363  1.1846
 4387TIP3    H213168   1.336   3.952   0.616  1.7400  1.2883  0.4027
 4388TIP3   OH213169   4.153   2.098   5.092  0.0052  0.1899 -0.2074
 4388TIP3    H113170   4.104   2.150   5.029 -0.1361  1.6671  1.0482
 4388TIP3    H213171   4.087   2.068   5.155  0.3631  0.1254  0.1443
 4389TIP3   OH213172   2.069   4.213   1.565  0.0257 -0.5430  0.5253
 4389TIP3    H113173   2.114   4.130   1.582  2.6931  0.8810  0.9739
 4389TIP3    H213174   1.979   4.198   1.594  0.4518 -3.1957  0.7448
 4390TIP3   OH213175   0.398  -0.011   2.983 -0.3681  0.1941  0.5877
 4390TIP3    H113176   0.335   0.061   2.990  0.3126  1.0884 -1.5248
 4390TIP3    H213177   0.420  -0.033   3.073 -1.3109  2.0177  1.3075
 4391TIP3   OH213178   1.323   4.115   4.568  0.1744  0.2986  0.2846
 4391TIP3    H113179   1.248   4.066   4.602  1.0882 -1.1583  0.3348
 4391TIP3    H213180   1.315   4.202   4.605 -0.2444 -0.5028  2.1820
 4392TIP3   OH213181   1.983   4.241   2.358  0.0609 -0.0943  0.3294
 4392TIP3    H113182   1.938   4.160   2.382 -1.1152  0.7334  1.0700
 4392TIP3    H213183   2.049   4.253   2.425 -1.1005  0.5625  1.4037
 4393TIP3   OH213184   1.812   3.367   2.378 -0.1881  0.1104 -0.2226
 4393TIP3    H113185   1.722   3.395   2.397  0.4090  1.4989  0.7665
 4393TIP3    H213186   1.864   3.446   2.391  1.2947 -0.9050  0.1818
 4394TIP3   OH213187   3.756   1.595   1.309 -0.3365  0.3538 -0.1215
 4394TIP3    H113188   3.740   1.689   1.304 -0.6545  0.4753  2.1407
 4394TIP3    H213189   3.833   1.580   1.254 -0.2310  1.9497 -0.4364
 4395TIP3   OH213190   1.549   4.090   1.285  0.1975  0.3932 -0.2498
 4395TIP3    H113191   1.521   4.168   1.238  1.4972  1.6414  0.9595
 4395TIP3    H213192   1.470   4.058   1.329 -0.1288  1.6951  0.1483
 4396TIP3   OH213193   3.919   1.332   0.616 -0.0159 -0.2126 -0.1181
 4396TIP3    H113194   3.874   1.250   0.593 -0.0032 -0.7063  1.4617
 4396TIP3    H213195   3.903   1.342   0.710  1.1405  0.8889 -0.0163
 4397TIP3   OH213196   3.364   3.436   1.875 -0.2308 -0.1470 -0.4106
 4397TIP3    H113197   3.381   3.523   1.840 -0.0812 -0.0254 -0.0352
 4397TIP3    H213198   3.372   3.378   1.799 -0.1290  0.1399 -0.6216
 4398TIP3   OH213199   3.032   1.953   0.339  0.1959  0.3589  0.1738
 4398TIP3    H113200   3.017   1.870   0.294 -0.1379 -0.3752  1.5812
 4398TIP3    H213201   3.051   2.015   0.269 -2.7613 -0.1324 -1.2600
 4399TIP3   OH213202   1.416   4.434   1.261 -0.3223  0.6168  0.3647
 4399TIP3    H113203   1.379   4.347   1.249  1.3373  0.1117 -1.6161
 4399TIP3    H213204   1.456   4.431   1.349 -0.9885 -0.3276  0.6438
 4400TIP3   OH213205   3.495   5.555   0.409 -0.1786  0.3599  0.1620
 4400TIP3    H113206   3.497   5.528   0.317 -0.6627 -0.5105  0.3989
 4400TIP3    H213207   3.558   5.627   0.414  0.3162  0.0022 -0.7191
 4401TIP3   OH213208   4.114   2.376   2.224 -0.3158  0.1981  0.2958
 4401TIP3    H113209   4.057   2.305   2.192  1.4896 -0.9764 -0.4517
 4401TIP3    H213210   4.108   2.371   2.319 -0.9659 -0.3106  0.2344
 4402TIP3   OH213211   3.601   1.771   2.813 -0.6981  0.2143 -0.0661
 4402TIP3    H113212   3.620   1.841   2.875  0.4847 -0.9560  0.9670
 4402TIP3    H213213   3.581   1.695   2.868  1.1694 -1.0735 -1.0671
 4403TIP3   OH213214   2.662   2.583   2.362 -0.2112 -0.2776 -0.1160
 4403TIP3    H113215   2.694   2.493   2.364  0.9559  0.1410  1.0037
 4403TIP3    H213216   2.626   2.598   2.449 -0.9363  0.1693 -0.4797
 4404TIP3   OH213217   5.051   1.713   2.024 -0.1097  0.0802  0.3702
 4404TIP3    H113218   5.078   1.675   2.108 -2.5480 -1.9644  0.3822
 4404TIP3    H213219   5.108   1.788   2.011  2.6997 -1.5793  2.1425
 4405TIP3   OH213220   4.748   5.373   3.065  0.1806 -0.3357  0.5444
 4405TIP3    H113221   4.718   5.393   2.976  0.6509 -0.6042  0.3258
 4405TIP3    H213222   4.677   5.405   3.121  0.1869  0.4689  0.1147
 4406TIP3   OH213223   5.493   5.124   0.733 -0.2169 -0.0138 -0.0695
 4406TIP3    H113224   5.431   5.127   0.806 -0.6032  0.8318 -0.4154
 4406TIP3    H213225   5.559   5.190   0.755  1.1027 -1.5386  0.7455
 4407TIP3   OH213226   5.263   5.407   0.914  0.0271  0.1884  0.1111
 4407TIP3    H113227   5.346   5.406   0.962  0.1642 -0.5440 -0.1145
 4407TIP3    H213228   5.277   5.468   0.843  0.1536  0.5529  0.4459
 4408TIP3   OH213229   1.987   4.799   0.638  0.0343 -0.1980 -0.6826
 4408TIP3    H113230   1.895   4.771   0.643  0.6735 -2.3789  0.0163
 4408TIP3    H213231   2.031   4.747   0.706  1.8456  0.5714 -1.2167
 4409TIP3   OH213232   4.450   3.499   1.930 -0.1506  0.0908 -0.0921
 4409TIP3    H113233   4.487   3.416   1.961 -0.5098 -0.6866 -1.6615
 4409TIP3    H213234   4.492   3.565   1.985  1.2233 -1.0136  0.2620
 4410TIP3   OH213235   1.656   2.124   2.994  0.4195  0.6052  0.0215
 4410TIP3    H113236   1.643   2.029   2.985  0.2208  0.6342 -0.0102
 4410TIP3    H213237   1.606   2.162   2.922  2.3687  0.6396 -1.3915
 4411TIP3   OH213238   2.115   0.716   2.066 -0.2544  0.0821 -0.3070
 4411TIP3    H113239   2.092   0.808   2.077 -0.2154  0.0009  0.5737
 4411TIP3    H213240   2.057   0.669   2.127  1.5016 -0.2071  1.2551
 4412TIP3   OH213241   4.991   3.156   3.929  0.1597  0.1161  0.2431
 4412TIP3    H113242   5.044   3.105   3.868 -2.1546 -0.7073 -1.1704
 4412TIP3    H213243   4.993   3.245   3.894 -0.8993 -0.2887 -0.9026
 4413TIP3   OH213244   5.832   3.341   0.399 -0.5936  0.7275 -0.1555
 4413TIP3    H113245   5.918   3.382   0.387 -1.0057  1.7906  0.3320
 4413TIP3    H213246   5.776   3.413   0.428 -1.6496  0.0450 -0.4683
 4414TIP3   OH213247   2.014   5.295   3.995  0.5829  0.2989  0.5987
 4414TIP3    H113248   2.026   5.223   4.056  0.3013  0.3320  0.6983
 4414TIP3    H213249   1.980   5.253   3.916  1.0512  0.2430  0.4263
 4415TIP3   OH213250   0.787   2.340   3.127 -0.5705 -0.2984  0.5640
 4415TIP3    H113251   0.825   2.374   3.209  0.3990 -1.6539  0.7224
 4415TIP3    H213252   0.764   2.249   3.148 -2.5181  0.0185 -0.0102
 4416TIP3   OH213253   3.542   3.458   4.074  0.1360  0.1442  0.0520
 4416TIP3    H113254   3.546   3.538   4.021  1.1358  0.1535  0.1186
 4416TIP3    H213255   3.481   3.401   4.026  0.3535  0.4836 -0.6485
 4417TIP3   OH213256   3.636   1.487   4.722  0.3729 -0.0386 -0.1304
 4417TIP3    H113257   3.579   1.452   4.791 -0.3872  0.0543 -0.7013
 4417TIP3    H213258   3.680   1.562   4.763  1.1987 -0.9822  0.7663
 4418TIP3   OH213259   1.174   1.065   3.758  0.2792  0.5056  0.2136
 4418TIP3    H113260   1.226   0.986   3.768 -0.5468  0.0944  1.4940
 4418TIP3    H213261   1.192   1.094   3.669  0.8151 -0.9549 -0.1832
 4419TIP3   OH213262   3.463   4.916   4.321  0.0258 -0.7944  0.1093
 4419TIP3    H113263   3.547   4.905   4.365  0.0559 -0.4396  0.1420
 4419TIP3    H213264   3.481   4.897   4.229  0.6818  1.5880 -0.3125
 4420TIP3   OH213265   1.121   3.743   2.584 -0.2723  0.0060 -0.2849
 4420TIP3    H113266   1.123   3.750   2.489 -1.1806  1.6271 -0.2235
 4420TIP3    H213267   1.089   3.655   2.601 -1.6826  0.2496 -1.5018
 4421TIP3   OH213268   0.670   5.141   2.867  0.3824 -0.0439  0.1265
 4421TIP3    H113269   0.737   5.089   2.823 -0.3450 -0.6427 -0.2843
 4421TIP3    H213270   0.720   5.203   2.920  1.2969  0.6996 -1.5156
 4422TIP3   OH213271   5.837   1.796   2.244  0.0155 -0.4180  0.6229
 4422TIP3    H113272   5.872   1.773   2.331 -0.4310  0.2340  0.9835
 4422TIP3    H213273   5.841   1.714   2.195  1.7254 -0.4484  0.7468
 4423TIP3   OH213274   0.240   1.579   3.741  0.1927 -0.3260 -0.1065
 4423TIP3    H113275   0.263   1.494   3.703 -1.1781 -0.3106 -1.0225
 4423TIP3    H213276   0.200   1.628   3.669  2.1936  1.6490  0.0192
 4424TIP3   OH213277   1.751   3.582   4.364 -0.5049 -0.2275 -0.3615
 4424TIP3    H113278   1.786   3.595   4.275 -0.5819  1.7049 -0.1555
 4424TIP3    H213279   1.763   3.489   4.381 -0.7374 -0.6974 -2.5000
 4425TIP3   OH213280   2.924   4.489   4.497  0.0700 -0.1181  0.0261
 4425TIP3    H113281   2.837   4.451   4.511 -0.0672  0.7592  2.0422
 4425TIP3    H213282   2.984   4.415   4.507 -0.2974 -0.2095  1.9388
 4426TIP3   OH213283   4.970   5.547   1.167 -0.3534 -0.1812  0.0722
 4426TIP3    H113284   5.039   5.506   1.220 -2.0571 -1.3820  1.4845
 4426TIP3    H213285   4.967   5.638   1.197  1.1678  0.1495 -0.6541
 4427TIP3   OH213286   4.647   4.008   0.901  0.1240 -0.2718 -0.4727
 4427TIP3    H113287   4.718   4.060   0.865  0.1338 -0.6359 -0.9812
 4427TIP3    H213288   4.570   4.034   0.850 -0.1907  0.3783  0.3040
 4428TIP3   OH213289   4.875   5.327   3.557 -0.0202 -0.9919  0.4829
 4428TIP3    H113290   4.857   5.368   3.472 -1.2425  1.0879  1.6662
 4428TIP3    H213291   4.971   5.316   3.558  0.4661  2.2021  0.1618
 4429TIP3   OH213292   2.352   1.545   4.677 -0.7944 -0.0369 -0.8237
 4429TIP3    H113293   2.428   1.544   4.735 -2.6559 -0.5884  1.8149
 4429TIP3    H213294   2.362   1.624   4.625  0.8020  0.7306  0.5507
 4430TIP3   OH213295   6.076   2.138   3.791 -0.6148  0.7498  0.4782
 4430TIP3    H113296   6.009   2.101   3.733  0.8085 -1.8532  0.3219
 4430TIP3    H213297   6.119   2.061   3.829  2.6773  2.2561  0.0988
 4431TIP3   OH213298   2.985   1.301   5.110  0.1246 -0.3952 -0.2941
 4431TIP3    H113299   2.970   1.392   5.136  0.0335  0.4563 -3.0548
 4431TIP3    H213300   2.902   1.257   5.131  0.0752  0.1761  0.8218
 4432TIP3   OH213301   5.413   2.438   1.262 -0.4517 -1.5025 -0.2590
 4432TIP3    H113302   5.340   2.381   1.242 -2.2868  0.3992  0.5716
 4432TIP3    H213303   5.373   2.524   1.277  1.9467 -0.3898  0.3265
 4433TIP3   OH213304   1.619   5.467   1.013 -0.0052  0.1784 -0.3350
 4433TIP3    H113305   1.671   5.507   0.944  0.0215  0.1179 -0.3498
 4433TIP3    H213306   1.648   5.376   1.016  0.1459  0.2328 -0.0995
 4434TIP3   OH213307   1.596   1.833   2.376  0.2626  0.1541  0.1242
 4434TIP3    H113308   1.524   1.815   2.315  0.9099 -1.4544 -0.2281
 4434TIP3    H213309   1.559   1.810   2.462 -0.5004  1.9865  0.3370
 4435TIP3   OH213310   0.029   1.222   3.244  0.3441 -0.3464  0.2038
 4435TIP3    H113311   0.077   1.275   3.308 -0.1009  0.5235 -0.1660
 4435TIP3    H213312  -0.045   1.277   3.217  2.0188  0.5306 -3.1732
 4436TIP3   OH213313   5.065   2.305   2.489 -0.0010  0.4735  0.1742
 4436TIP3    H113314   5.134   2.351   2.441  0.4483  0.3329  0.6726
 4436TIP3    H213315   4.997   2.371   2.502 -0.2027  0.4728 -0.7780
 4437TIP3   OH213316   2.339   2.986   1.553  0.0105  0.1548 -0.0675
 4437TIP3    H113317   2.387   3.049   1.608 -0.5186 -0.3671  1.0181
 4437TIP3    H213318   2.394   2.908   1.552 -0.8019 -0.4727  1.2429
 4438TIP3   OH213319   3.910   3.482   2.366 -0.7221 -0.0461 -0.0514
 4438TIP3    H113320   3.833   3.502   2.419 -0.8715  1.6985 -0.8589
 4438TIP3    H213321   3.933   3.565   2.325  0.7928 -0.8365 -0.8884
 4439TIP3   OH213322   1.995   4.650   3.725  0.4275 -0.8267  0.3916
 4439TIP3    H113323   2.016   4.572   3.777  1.2494 -0.1752  1.0566
 4439TIP3    H213324   1.918   4.688   3.768  1.0342 -0.3552  1.0784
 4440TIP3   OH213325   1.060   1.263   2.767  0.2463  0.0911  0.0456
 4440TIP3    H113326   1.087   1.283   2.857 -0.1361  1.1690 -0.0595
 4440TIP3    H213327   0.968   1.288   2.764  0.5180  1.0702 -0.9193
 4441TIP3   OH213328   6.102   1.041   5.029 -0.3126  0.1845 -0.5612
 4441TIP3    H113329   6.166   1.041   4.957 -1.2812  1.0519 -1.4570
 4441TIP3    H213330   6.101   1.132   5.059 -0.3875 -0.0420  0.1248
 4442TIP3   OH213331   5.618   4.844   0.337  0.5321  0.5044  0.0894
 4442TIP3    H113332   5.603   4.866   0.245 -3.7931 -0.3938  0.3757
 4442TIP3    H213333   5.634   4.929   0.379  2.0361  0.9802 -1.3462
 4443TIP3   OH213334   1.482   3.394   0.393 -0.6043 -0.1877  0.1586
 4443TIP3    H113335   1.472   3.426   0.304  0.7684 -1.3924 -0.4875
 4443TIP3    H213336   1.483   3.472   0.448  0.2411  0.6900 -1.0770
 4444TIP3   OH213337   1.494   0.830   1.551  0.1909 -0.2280 -0.5081
 4444TIP3    H113338   1.514   0.783   1.632  0.5544 -0.8659 -0.9645
 4444TIP3    H213339   1.529   0.918   1.566  0.0002 -0.2554  0.1349
 4445TIP3   OH213340   2.478   2.727   1.586  0.5317 -0.0176 -0.3671
 4445TIP3    H113341   2.551   2.726   1.648 -0.3246 -0.4959  0.6705
 4445TIP3    H213342   2.428   2.647   1.607 -0.2122  0.2311 -1.1373
 4446TIP3   OH213343   2.116   1.366   2.186 -0.1734 -0.6412 -0.1344
 4446TIP3    H113344   2.192   1.328   2.142  0.7923 -1.4736  2.1026
 4446TIP3    H213345   2.152   1.411   2.263 -1.9340 -1.2520  1.1170
 4447TIP3   OH213346   5.592   1.510   3.285 -0.5516 -0.2720 -0.3212
 4447TIP3    H113347   5.530   1.565   3.239 -1.2812 -1.3719 -0.6831
 4447TIP3    H213348   5.554   1.498   3.372  0.6177  1.4569  0.4752
 4448TIP3   OH213349   5.167   5.221   4.350 -0.1032 -0.0431 -0.0236
 4448TIP3    H113350   5.159   5.205   4.256 -0.6456  2.0684 -0.3681
 4448TIP3    H213351   5.079   5.243   4.379 -0.5306 -3.2890  1.5878
 4449TIP3   OH213352   3.612   4.727   0.812 -0.2349  0.9105  0.1841
 4449TIP3    H113353   3.657   4.678   0.881  1.0050  0.0505 -1.1749
 4449TIP3    H213354   3.643   4.817   0.822  0.4044  0.6728  0.3758
 4450TIP3   OH213355   5.130   1.034   0.092 -0.1640 -0.1631 -0.2092
 4450TIP3    H113356   5.140   0.940   0.106 -0.7213 -0.0034  1.4217
 4450TIP3    H213357   5.191   1.055   0.021  1.4230 -1.4012  0.7455
 4451TIP3   OH213358   4.844   0.496   2.716  0.1393  0.1301 -0.0172
 4451TIP3    H113359   4.934   0.522   2.696 -0.2180  2.1692  0.7043
 4451TIP3    H213360   4.791   0.537   2.647 -0.3605  0.2829  0.4491
 4452TIP3   OH213361   3.250   1.901   4.489  0.1608  0.7671  0.0202
 4452TIP3    H113362   3.277   1.823   4.538  1.2237 -0.2619 -2.0945
 4452TIP3    H213363   3.228   1.868   4.402  1.1319  2.8806 -1.1012
 4453TIP3   OH213364   5.126   1.480   4.958 -0.2002 -0.2265 -0.4244
 4453TIP3    H113365   5.093   1.523   4.879 -0.0955  1.3464  0.3394
 4453TIP3    H213366   5.050   1.438   4.996 -0.7710  1.0077 -0.1483
 4454TIP3   OH213367   1.827   1.905   4.822 -0.2653  0.6675  0.1248
 4454TIP3    H113368   1.850   1.822   4.864 -0.8209  1.0901  1.2937
 4454TIP3    H213369   1.867   1.972   4.877 -0.9963  1.2366 -0.0210
 4455TIP3   OH213370   4.067   3.253   2.292  0.3428 -0.0977 -0.0448
 4455TIP3    H113371   4.036   3.342   2.309 -0.7961  0.1261 -2.7294
 4455TIP3    H213372   3.988   3.206   2.264  1.1040 -1.7126  0.4085
 4456TIP3   OH213373   3.477   1.083   4.792  0.7809 -0.5037 -0.1448
 4456TIP3    H113374   3.473   1.115   4.882 -0.8993 -0.2154 -0.2726
 4456TIP3    H213375   3.395   1.115   4.753  1.8782  0.1535 -2.0372
 4457TIP3   OH213376   2.931   4.470   2.286 -0.1146  0.7293 -0.7240
 4457TIP3    H113377   2.965   4.510   2.366 -1.0699 -0.4380  0.3187
 4457TIP3    H213378   2.961   4.527   2.216 -0.0143  2.2942  0.5378
 4458TIP3   OH213379   2.191   1.573   4.361 -0.1773  0.2172 -0.0770
 4458TIP3    H113380   2.157   1.611   4.442 -1.5366  0.2377 -0.6230
 4458TIP3    H213381   2.156   1.483   4.361 -0.0837  0.1777 -0.5671
 4459TIP3   OH213382   6.231   0.929   0.175  0.0071 -0.5606  0.2428
 4459TIP3    H113383   6.195   0.856   0.124 -0.2765 -0.5307  0.4016
 4459TIP3    H213384   6.271   0.887   0.251 -2.9032 -0.3844  2.0255
 4460TIP3   OH213385   2.470   0.487   0.414 -0.2266 -0.4323  0.2970
 4460TIP3    H113386   2.438   0.405   0.376 -0.4801 -0.0208 -0.3958
 4460TIP3    H213387   2.415   0.500   0.492  0.3935 -1.3540  0.9036
 4461TIP3   OH213388   0.553   2.479   3.284  0.2198  0.4995  0.2910
 4461TIP3    H113389   0.629   2.454   3.230 -0.4322 -0.9041 -0.0009
 4461TIP3    H213390   0.480   2.481   3.222 -0.2742  0.3058  0.8675
 4462TIP3   OH213391   3.361   5.809   4.408  0.1998 -0.2382 -0.0802
 4462TIP3    H113392   3.287   5.752   4.386  0.8325 -1.2388  0.2981
 4462TIP3    H213393   3.427   5.750   4.443  0.9481  0.7235  0.1824
 4463TIP3   OH213394   3.972   2.011   4.640 -0.3049 -0.0363  0.0064
 4463TIP3    H113395   4.002   2.033   4.552 -1.6730 -1.1018 -0.7589
 4463TIP3    H213396   3.909   2.080   4.662 -0.9452 -0.4784 -0.4041
 4464TIP3   OH213397   4.710   1.027   4.953 -0.4644 -0.4710  0.0806
 4464TIP3    H113398   4.765   0.960   4.994 -0.2979 -1.3085 -1.4282
 4464TIP3    H213399   4.726   1.016   4.859 -0.8284  1.3592 -0.2314
 4465TIP3   OH213400   1.777   5.041   3.183 -0.0865  0.8643 -0.1470
 4465TIP3    H113401   1.702   5.041   3.244  0.4463 -0.1073  0.5379
 4465TIP3    H213402   1.744   5.084   3.105 -1.1858  1.0004  0.3677
 4466TIP3   OH213403   4.339   1.279   1.311  0.4901  0.3578 -0.3816
 4466TIP3    H113404   4.407   1.263   1.246  0.8349 -1.2689  0.3377
 4466TIP3    H213405   4.381   1.333   1.377  0.4191  1.1943 -0.9981
 4467TIP3   OH213406   5.388   2.920   0.429  0.0824  0.1875 -0.2130
 4467TIP3    H113407   5.433   3.005   0.426  0.8862 -0.2305 -0.0848
 4467TIP3    H213408   5.451   2.861   0.470  0.4937 -1.0675 -2.5184
 4468TIP3   OH213409   3.314   4.955   4.053  0.2325  0.3409  0.0405
 4468TIP3    H113410   3.304   4.862   4.034 -0.1473  0.2028  0.8681
 4468TIP3    H213411   3.409   4.970   4.048  0.3475 -0.2188  0.4345
 4469TIP3   OH213412   3.678   1.136   4.602 -0.4647  0.3989 -0.3255
 4469TIP3    H113413   3.632   1.090   4.672 -0.0152  0.1468 -0.1923
 4469TIP3    H213414   3.751   1.179   4.646 -0.4255  0.5920 -0.5759
 4470TIP3   OH213415   3.780   1.702   4.442  0.4852 -0.5082 -0.5229
 4470TIP3    H113416   3.779   1.609   4.464 -0.8636 -0.4407 -0.2362
 4470TIP3    H213417   3.688   1.726   4.433  0.8219  0.7529 -0.8132
 4471TIP3   OH213418   1.865   4.012   4.954  0.4035 -0.2476 -0.0586
 4471TIP3    H113419   1.824   3.931   4.924  1.3079 -0.9964  0.6802
 4471TIP3    H213420   1.797   4.057   5.004 -0.0348 -0.6500 -0.2867
 4472TIP3   OH213421   2.633   3.413   0.310 -0.4052  0.5552  0.0152
 4472TIP3    H113422   2.599   3.330   0.277 -0.9305  0.8149 -0.1037
 4472TIP3    H213423   2.706   3.434   0.251 -1.6365  1.2569 -1.3370
 4473TIP3   OH213424   3.958   2.974   1.030 -0.0052  0.3447  0.0116
 4473TIP3    H113425   4.010   3.002   1.105 -0.1566 -0.6684  0.5161
 4473TIP3    H213426   3.937   3.054   0.983  3.0164  0.7109 -0.8835
 4474TIP3   OH213427   4.790   1.287   1.559 -0.0516  0.1856 -0.3515
 4474TIP3    H113428   4.797   1.245   1.474  2.0039 -0.2292 -0.0179
 4474TIP3    H213429   4.858   1.246   1.613 -0.2171  1.5697  1.0018
 4475TIP3   OH213430   5.484   1.997   2.046  0.1646  0.7755  0.3024
 4475TIP3    H113431   5.555   1.971   1.987  0.3501 -0.6325  1.1059
 4475TIP3    H213432   5.495   2.092   2.055  1.1655  0.7691 -0.5809
 4476TIP3   OH213433   4.153   4.589   4.103 -0.2965 -0.1229  0.0844
 4476TIP3    H113434   4.143   4.606   4.196 -1.8331  0.0338 -0.0732
 4476TIP3    H213435   4.097   4.513   4.086 -0.2291 -0.0037 -0.7474
 4477TIP3   OH213436   2.328   5.119   1.688  0.4145  0.0434 -0.2663
 4477TIP3    H113437   2.318   5.027   1.661 -0.1216  0.0295 -0.0274
 4477TIP3    H213438   2.247   5.161   1.660  0.6607  0.4473 -0.3773
 4478TIP3   OH213439   5.114   4.599   0.306  0.1599 -0.7269  0.0098
 4478TIP3    H113440   5.118   4.683   0.259  0.8833 -0.2576  0.8729
 4478TIP3    H213441   5.029   4.563   0.282 -1.2411  1.3644  1.4190
 4479TIP3   OH213442   4.802   0.095   0.944 -0.4741 -0.2126  0.4424
 4479TIP3    H113443   4.765   0.058   0.864 -1.5014 -0.8631  1.2003
 4479TIP3    H213444   4.897   0.089   0.931 -0.6293 -0.8854 -0.4694
 4480TIP3   OH213445   4.945   1.312   2.662  0.1105 -0.2019 -0.3375
 4480TIP3    H113446   4.937   1.217   2.674  1.5870 -0.6767 -2.4047
 4480TIP3    H213447   4.884   1.332   2.591  0.2702  0.2751 -0.3387
 4481TIP3   OH213448   2.373   0.027   0.698 -0.0461 -0.0117 -0.2605
 4481TIP3    H113449   2.398   0.118   0.711  0.8340 -0.2627 -0.1148
 4481TIP3    H213450   2.294   0.031   0.644 -0.1371  0.8379 -0.0791
 4482TIP3   OH213451   4.517   1.337   4.346  0.8188  0.2000 -0.1164
 4482TIP3    H113452   4.516   1.332   4.442  0.3526  2.3866  0.0355
 4482TIP3    H213453   4.425   1.345   4.321  1.0466  1.6263 -0.5811
 4483TIP3   OH213454   3.174   1.109   4.692 -0.0219  0.5179 -0.3511
 4483TIP3    H113455   3.102   1.167   4.720 -0.6359 -0.4818  0.2206
 4483TIP3    H213456   3.130   1.027   4.670  0.9520 -0.0864 -0.0560
 4484TIP3   OH213457   5.623   1.055   4.345 -1.0038 -0.0990 -0.1273
 4484TIP3    H113458   5.642   0.986   4.408 -0.3951  0.7561  0.6500
 4484TIP3    H213459   5.658   1.135   4.385  0.0050  0.3672 -1.8534
 4485TIP3   OH213460   6.260   0.038   1.382 -0.0443 -0.1476 -0.1902
 4485TIP3    H113461   6.238  -0.040   1.331  0.4718 -0.3506 -0.1117
 4485TIP3    H213462   6.182   0.055   1.435 -0.3233 -0.3449 -0.5354
 4486TIP3   OH213463   3.274   5.710   0.409  0.0736  0.0271 -0.2068
 4486TIP3    H113464   3.261   5.724   0.316 -0.0949  1.4868  0.0143
 4486TIP3    H213465   3.352   5.656   0.415 -1.7214 -2.9416 -1.3050
 4487TIP3   OH213466   6.326   2.556   0.596  0.2260  0.3283  0.2133
 4487TIP3    H113467   6.307   2.626   0.534 -0.2821 -0.3266 -0.3980
 4487TIP3    H213468   6.363   2.600   0.672 -0.1557  1.2588 -0.1239
 4488TIP3   OH213469   1.511   5.017   0.757  0.3057  0.8657 -0.3181
 4488TIP3    H113470   1.513   5.023   0.661  2.3474 -0.3260 -0.4069
 4488TIP3    H213471   1.487   4.927   0.775 -0.1812  1.1163  0.3078
 4489TIP3   OH213472   2.859   5.533   1.821 -0.1442 -0.1022  0.3925
 4489TIP3    H113473   2.857   5.566   1.911 -2.6134  0.4214  0.2192
 4489TIP3    H213474   2.832   5.441   1.830 -0.1702 -0.1111  0.2130
 4490TIP3   OH213475   1.988   5.174   3.368 -0.3130  0.3803  0.2426
 4490TIP3    H113476   2.053   5.210   3.308  0.8067  0.6719  1.5906
 4490TIP3    H213477   1.941   5.109   3.316  1.9899 -0.8837 -0.3926
 4491TIP3   OH213478   1.251   0.895   0.730  0.0908  0.3786  0.4022
 4491TIP3    H113479   1.343   0.883   0.707 -0.3400  1.4308 -2.2174
 4491TIP3    H213480   1.220   0.807   0.750  1.1888 -0.3096 -0.7603
 4492TIP3   OH213481   3.410   4.611   1.690 -0.2631  0.1713 -0.6021
 4492TIP3    H113482   3.428   4.702   1.669 -0.7430 -0.2049 -2.9669
 4492TIP3    H213483   3.397   4.569   1.605 -1.0640 -1.8990  0.4639
 4493TIP3   OH213484   5.142   4.688   4.780  0.2104  0.4581  0.5260
 4493TIP3    H113485   5.096   4.721   4.703 -1.1303 -0.7712  0.7662
 4493TIP3    H213486   5.147   4.593   4.765  1.8094  0.4493  0.9821
 4494TIP3   OH213487   1.054   3.733   1.524  0.2088 -0.4722  0.0382
 4494TIP3    H113488   1.082   3.812   1.570  0.8675 -0.0098 -1.1023
 4494TIP3    H213489   1.032   3.671   1.593 -1.0146  0.9380  0.9641
 4495TIP3   OH213490   5.138   2.880   0.545 -0.1650  0.0891 -0.4795
 4495TIP3    H113491   5.101   2.940   0.480 -0.0414  0.5945 -0.0885
 4495TIP3    H213492   5.228   2.864   0.515 -0.5438 -0.8003 -1.1958
 4496TIP3   OH213493   5.490   4.409   1.428  0.6796  0.4968 -0.4024
 4496TIP3    H113494   5.521   4.393   1.339 -0.1557  0.3241 -0.6697
 4496TIP3    H213495   5.404   4.366   1.432  0.2093  1.4394  0.1301
 4497TIP3   OH213496   2.012   1.064   1.919  0.2561  0.0662 -0.2415
 4497TIP3    H113497   2.048   1.124   1.854 -1.1006  1.9989  0.6922
 4497TIP3    H213498   2.047   1.095   2.002  1.0606 -1.6772  0.1142
 4498TIP3   OH213499   0.982   3.812   3.320  0.2140  0.3150 -0.5374
 4498TIP3    H113500   0.991   3.739   3.259 -1.1477 -0.2452 -0.1021
 4498TIP3    H213501   0.914   3.867   3.281 -1.8763 -0.8815  1.1800
 4499TIP3   OH213502   2.160   1.965   2.127  0.1804 -0.4214  0.0347
 4499TIP3    H113503   2.116   2.016   2.059  1.2826  1.1786  0.4800
 4499TIP3    H213504   2.102   1.970   2.203  0.1705 -0.0267  0.0015
 4500TIP3   OH213505   1.356   3.576   1.118 -0.1134  0.1943 -0.3129
 4500TIP3    H113506   1.402   3.580   1.202  0.9674 -1.0718 -0.7954
 4500TIP3    H213507   1.417   3.616   1.056 -0.9754  1.2791 -0.4816
 4501TIP3   OH213508   3.764   0.087   1.983  0.0475  0.9193 -0.2675
 4501TIP3    H113509   3.857   0.065   1.984  0.1230  1.2170 -0.6854
 4501TIP3    H213510   3.720   0.005   1.959 -0.0326  0.0007  2.5358
 4502TIP3   OH213511   5.023   3.588   0.738 -0.3467  0.4604 -0.1177
 4502TIP3    H113512   4.994   3.642   0.812  0.1117  0.5160  0.0253
 4502TIP3    H213513   4.967   3.510   0.742 -0.2185  0.3914  0.3870
 4503TIP3   OH213514   3.577   1.301   0.135  0.1695 -0.1716  0.1238
 4503TIP3    H113515   3.510   1.368   0.122  0.3986 -0.0564 -0.5077
 4503TIP3    H213516   3.581   1.255   0.051 -0.6014 -1.5621  0.8093
 4504TIP3   OH213517   0.104   0.987   1.614 -0.2463  0.5702  0.3776
 4504TIP3    H113518   0.098   0.997   1.709 -0.5890  1.4603  0.2781
 4504TIP3    H213519   0.189   0.947   1.599 -0.2026  0.3881  1.0597
 4505TIP3   OH213520   5.133   1.731   5.146  0.5316  0.2295  0.7072
 4505TIP3    H113521   5.181   1.792   5.201  0.9712  0.0640  0.5193
 4505TIP3    H213522   5.041   1.755   5.156  0.5908  0.0759  1.6553
 4506TIP3   OH213523   2.688   0.180   4.569 -0.0537 -0.0188  0.3225
 4506TIP3    H113524   2.673   0.222   4.484  0.7636  0.3876  0.3716
 4506TIP3    H213525   2.762   0.227   4.607  0.5151 -1.1204  0.6427
 4507TIP3   OH213526   0.438   4.257   1.630 -0.2159  0.2624  0.3327
 4507TIP3    H113527   0.430   4.191   1.699  0.2133 -0.8428 -0.6426
 4507TIP3    H213528   0.528   4.247   1.597 -0.3311  0.9418 -0.2138
 4508TIP3   OH213529   5.356   4.422   3.504 -0.4111 -0.1037 -0.1131
 4508TIP3    H113530   5.350   4.376   3.421  1.0191 -1.6886  0.5899
 4508TIP3    H213531   5.274   4.471   3.511 -0.6554 -0.1074 -2.3158
 4509TIP3   OH213532   1.372   5.216   4.557 -0.2197 -0.3907  0.1427
 4509TIP3    H113533   1.458   5.175   4.550  0.9697  2.0656 -0.8518
 4509TIP3    H213534   1.381   5.282   4.625 -1.3460 -0.1606  0.0990
 4510TIP3   OH213535   2.804   0.852   3.775  0.2644  0.7124 -0.0909
 4510TIP3    H113536   2.812   0.933   3.825  0.4440  1.4448 -1.2655
 4510TIP3    H213537   2.853   0.787   3.825 -2.6080  0.4143  2.6673
 4511TIP3   OH213538   6.181   0.930   0.791  0.0440  0.6611  0.0834
 4511TIP3    H113539   6.097   0.885   0.777 -1.0342  1.8828  2.0928
 4511TIP3    H213540   6.222   0.882   0.863  1.1203  0.0454 -0.9194
 4512TIP3   OH213541   4.943   1.048   2.746 -0.0771 -0.4052 -0.7240
 4512TIP3    H113542   4.859   1.004   2.757 -0.2042 -0.5963 -2.2554
 4512TIP3    H213543   4.991   1.029   2.827 -0.9824 -1.4317 -0.4117
 4513TIP3   OH213544   1.108   1.634   4.969  0.1710  0.2330 -0.2863
 4513TIP3    H113545   1.134   1.724   4.949 -1.9108  0.8368 -0.4752
 4513TIP3    H213546   1.151   1.614   5.052 -0.6208  2.0073  0.5966
 4514TIP3   OH213547   0.378   2.868   0.646  0.4414 -0.2389  0.3953
 4514TIP3    H113548   0.395   2.776   0.663  2.0360 -0.2234 -0.9312
 4514TIP3    H213549   0.301   2.867   0.588 -0.2167 -0.6467  1.2458
 4515TIP3   OH213550   1.065   1.917   0.662 -0.1326  0.1050  0.3219
 4515TIP3    H113551   0.976   1.912   0.698 -0.0470 -0.9914  0.4314
 4515TIP3    H213552   1.122   1.908   0.738  0.0613 -0.4530  0.1116
 4516TIP3   OH213553   1.800   2.989   0.722  0.5739 -0.1775 -0.7726
 4516TIP3    H113554   1.814   2.905   0.765 -0.2912 -0.0835 -0.2888
 4516TIP3    H213555   1.819   3.054   0.790  0.5528  0.0055 -0.9402
 4517TIP3   OH213556   1.076   4.122   5.085  0.2497 -0.2765 -0.5266
 4517TIP3    H113557   1.124   4.199   5.116 -0.5938  0.3742 -0.7690
 4517TIP3    H213558   1.142   4.055   5.072  0.7182 -0.4667  2.2442
 4518TIP3   OH213559   4.264   3.228   1.765  0.6622  0.0791 -0.0934
 4518TIP3    H113560   4.351   3.190   1.773  0.3489 -1.4041 -2.5969
 4518TIP3    H213561   4.205   3.163   1.804  0.4656 -0.1341 -0.7383
 4519TIP3   OH213562   5.011   2.414   2.857  0.2779  0.1222 -0.1975
 4519TIP3    H113563   5.061   2.333   2.861  0.1991  0.1055  0.4407
 4519TIP3    H213564   4.990   2.424   2.764  0.6815 -0.3444 -0.3432
 4520TIP3   OH213565   4.637   3.279   1.928  0.7632 -0.0807  0.5746
 4520TIP3    H113566   4.723   3.258   1.892 -0.2108 -0.4194 -1.7207
 4520TIP3    H213567   4.589   3.196   1.927 -0.1750  0.4415  0.0146
 4521TIP3   OH213568   6.261   0.904   2.339  0.6031 -0.3780  0.2555
 4521TIP3    H113569   6.291   0.991   2.312 -0.4301 -0.2777 -0.6271
 4521TIP3    H213570   6.253   0.855   2.257  0.2063 -0.9954  0.6581
 4522TIP3   OH213571   5.675   2.691   1.482 -0.8334 -0.3542 -0.3851
 4522TIP3    H113572   5.656   2.600   1.505 -0.8111 -0.1454  0.5113
 4522TIP3    H213573   5.767   2.703   1.506 -0.6684 -0.2551 -1.0441
 4523TIP3   OH213574   0.897   1.371   3.947 -0.1628  0.0352 -0.1949
 4523TIP3    H113575   0.802   1.375   3.944 -0.1005  2.0595 -0.6074
 4523TIP3    H213576   0.925   1.460   3.968  1.6809 -0.0229 -2.0541
 4524TIP3   OH213577   4.087   4.490   3.162  0.4826 -0.4277 -0.2464
 4524TIP3    H113578   4.142   4.558   3.124 -0.1746 -0.0803 -0.6023
 4524TIP3    H213579   4.011   4.537   3.197  0.2990 -0.9155  0.0230
 4525TIP3   OH213580   4.741   2.609   1.269  0.3574  0.0003 -0.2413
 4525TIP3    H113581   4.676   2.548   1.234  1.7421 -1.8659  0.3070
 4525TIP3    H213582   4.760   2.668   1.195 -0.2519 -0.8818 -1.1273
 4526TIP3   OH213583   4.859   3.340   4.829 -0.3837  0.2108  0.2523
 4526TIP3    H113584   4.848   3.268   4.767 -1.6406  0.3746  0.2574
 4526TIP3    H213585   4.894   3.412   4.776  1.2837 -0.4845  0.3277
 4527TIP3   OH213586   4.033   1.961   1.252 -0.0599 -0.3285 -0.3184
 4527TIP3    H113587   4.076   1.914   1.323  0.0453  1.4094  0.8310
 4527TIP3    H213588   4.104   2.003   1.203 -0.2716  0.6395  0.1762
 4528TIP3   OH213589   4.579   4.476   1.726  0.4188 -0.3505  0.4674
 4528TIP3    H113590   4.509   4.419   1.694  1.0363 -1.0192  0.2999
 4528TIP3    H213591   4.589   4.452   1.818 -0.1470  0.3474  0.7261
 4529TIP3   OH213592   3.346   1.345   2.517 -0.5001  0.3018 -0.4043
 4529TIP3    H113593   3.333   1.439   2.509 -0.8293  0.0878 -3.5655
 4529TIP3    H213594   3.430   1.336   2.562 -1.0537  2.0226  1.0904
 4530TIP3   OH213595   3.893   2.312   5.137 -0.3296 -0.2571 -0.3831
 4530TIP3    H113596   3.920   2.370   5.208 -0.4410 -0.6661  0.0031
 4530TIP3    H213597   3.822   2.359   5.093 -0.4359 -0.1059 -0.0575
 4531TIP3   OH213598   4.258   2.058   2.119  0.2010 -0.0072 -0.3237
 4531TIP3    H113599   4.344   2.070   2.158  0.7947 -1.0914 -1.2350
 4531TIP3    H213600   4.254   1.965   2.096 -1.1297  0.0627 -0.4858
 4532TIP3   OH213601   6.045   0.448   4.438 -0.4555  0.2766  0.2131
 4532TIP3    H113602   6.121   0.465   4.381  0.4917 -0.7038  1.1323
 4532TIP3    H213603   6.081   0.451   4.526 -1.6522  0.4873  0.7067
 4533TIP3   OH213604   1.090   2.697   3.816 -0.1625  0.3110  0.6520
 4533TIP3    H113605   1.023   2.665   3.876 -2.3116 -0.0752 -1.7624
 4533TIP3    H213606   1.115   2.621   3.764  1.0589  0.7896  0.4813
 4534TIP3   OH213607   5.169   3.345   2.198 -0.1781 -0.1313  0.1909
 4534TIP3    H113608   5.088   3.377   2.157  0.5610 -2.3315 -3.4461
 4534TIP3    H213609   5.234   3.412   2.178 -0.2353 -0.3213 -0.6612
 4535TIP3   OH213610   3.629   1.966   0.636 -0.3780  0.0147 -0.0391
 4535TIP3    H113611   3.593   1.900   0.577  0.3531 -2.1401  1.7760
 4535TIP3    H213612   3.652   1.917   0.715  2.5342  2.0003  0.4866
 4536TIP3   OH213613   2.741   2.895   1.073 -0.1928 -0.1596  0.5679
 4536TIP3    H113614   2.833   2.893   1.047  0.0901 -0.3731  1.5309
 4536TIP3    H213615   2.692   2.870   0.994  0.6660 -1.4549  0.4260
 4537TIP3   OH213616   6.077   1.118   2.994 -0.2260 -0.1692 -0.2862
 4537TIP3    H113617   6.108   1.206   3.015  0.8166 -0.5390 -0.2297
 4537TIP3    H213618   5.994   1.132   2.948 -0.4329  0.8064  0.3563
 4538TIP3   OH213619   3.010   2.969   4.853  0.1934 -0.5916 -0.4913
 4538TIP3    H113620   2.973   2.913   4.921  0.7893 -1.0904 -0.5742
 4538TIP3    H213621   3.044   2.909   4.787 -0.4926 -0.1160 -1.3061
 4539TIP3   OH213622   5.957   4.094   3.970  0.0338 -0.2896  0.0202
 4539TIP3    H113623   5.902   4.170   3.988  0.9606  0.3071  0.3942
 4539TIP3    H213624   5.984   4.105   3.878  0.4549  0.0245  0.1801
 4540TIP3   OH213625   4.883   5.564   3.820  0.6419 -0.2455 -0.2249
 4540TIP3    H113626   4.933   5.483   3.819 -0.8850 -1.2717 -2.5378
 4540TIP3    H213627   4.793   5.537   3.838  0.1648  0.9789 -0.6414
 4541TIP3   OH213628   5.107   1.594   2.264  0.1825  0.0566 -0.3611
 4541TIP3    H113629   5.141   1.629   2.347  0.6600  0.8322 -0.8660
 4541TIP3    H213630   5.085   1.503   2.283  1.6357 -0.1884  0.2588
 4542TIP3   OH213631   5.038   2.558   4.413  0.2470  0.0407  0.7150
 4542TIP3    H113632   4.952   2.516   4.414  0.2765 -0.3057 -2.0314
 4542TIP3    H213633   5.049   2.594   4.501 -2.5898 -0.1076  1.2138
 4543TIP3   OH213634   0.192   2.386   0.905  0.1229 -0.1704  0.4746
 4543TIP3    H113635   0.203   2.301   0.948  0.3523 -2.5500 -3.7073
 4543TIP3    H213636   0.124   2.370   0.839  1.7431  2.1671 -1.9643
 4544TIP3   OH213637   0.134   5.321   5.116  0.3214  0.2772  0.3332
 4544TIP3    H113638   0.061   5.259   5.112  1.7791 -1.4404 -1.7208
 4544TIP3    H213639   0.096   5.401   5.154 -1.8636 -1.5042  2.1587
 4545TIP3   OH213640   5.553   1.649   0.578  0.1205 -0.0349  0.0497
 4545TIP3    H113641   5.616   1.680   0.643  0.5538 -0.6181 -0.0915
 4545TIP3    H213642   5.588   1.679   0.494  0.9687 -1.5676 -0.1711
 4546TIP3   OH213643   2.537   3.481   2.281 -0.2370 -0.0225 -0.3484
 4546TIP3    H113644   2.486   3.453   2.357 -3.1747  2.3771 -1.2706
 4546TIP3    H213645   2.527   3.410   2.218 -1.5730 -0.0777 -0.1030
 4547TIP3   OH213646   2.693   3.409   3.458  0.2357  0.6252  0.4482
 4547TIP3    H113647   2.754   3.482   3.466  0.1570  0.6037  1.3576
 4547TIP3    H213648   2.748   3.331   3.466  0.2324  0.5865  0.1271
 4548TIP3   OH213649   5.602   4.014   2.507 -0.4417  0.9541 -0.2332
 4548TIP3    H113650   5.590   3.982   2.417 -0.0802  0.1533 -0.0038
 4548TIP3    H213651   5.570   4.104   2.504  0.1675  1.1612 -1.3251
 4549TIP3   OH213652   4.213   2.328   3.364  0.3818 -0.8718  0.3677
 4549TIP3    H113653   4.168   2.412   3.358 -1.0527 -1.7229 -1.4771
 4549TIP3    H213654   4.271   2.338   3.440  0.7811  2.0107 -0.2125
 4550TIP3   OH213655   5.004   4.965   5.139  0.2424 -0.1742 -0.0727
 4550TIP3    H113656   5.094   4.936   5.123  0.5568  0.7699 -0.1033
 4550TIP3    H213657   4.960   4.958   5.055  0.9072  1.4103 -0.6000
 4551TIP3   OH213658   2.662   1.710   1.394 -0.6894 -0.0844  0.0994
 4551TIP3    H113659   2.627   1.647   1.457 -0.3571 -1.0965 -0.6966
 4551TIP3    H213660   2.615   1.791   1.412 -0.2117 -0.1803  2.0171
 4552TIP3   OH213661   1.489   1.213   3.131  0.0298 -0.3570  0.4704
 4552TIP3    H113662   1.486   1.179   3.220  3.1510 -0.3922  0.6609
 4552TIP3    H213663   1.495   1.308   3.142  1.0512 -0.3985  0.3536
 4553TIP3   OH213664   0.587   0.251   1.138 -0.1361  0.0768  0.1788
 4553TIP3    H113665   0.560   0.268   1.228 -2.0369  0.7412 -0.4662
 4553TIP3    H213666   0.540   0.171   1.114 -1.8069  1.3332 -1.0133
 4554TIP3   OH213667   4.792   5.262   0.530 -0.3775  0.1820  0.1112
 4554TIP3    H113668   4.733   5.264   0.454 -0.5755 -2.4638  0.0975
 4554TIP3    H213669   4.877   5.289   0.495 -0.8622  0.8557 -0.5961
 4555TIP3   OH213670   0.566   1.684   4.972 -0.2813 -0.5634  0.5156
 4555TIP3    H113671   0.644   1.654   5.019  1.0171  1.0853 -0.4859
 4555TIP3    H213672   0.530   1.753   5.027  0.7319  0.7531 -0.4163
 4556TIP3   OH213673   1.531   4.191   0.625  0.1749  0.3671 -0.3429
 4556TIP3    H113674   1.590   4.120   0.600 -0.6717 -0.1157 -0.9870
 4556TIP3    H213675   1.515   4.177   0.719  1.7246  0.9938  0.0573
 4557TIP3   OH213676   6.250   1.803   0.665  0.6227 -0.4065  0.3230
 4557TIP3    H113677   6.280   1.877   0.612  0.2845 -0.6972 -0.2759
 4557TIP3    H213678   6.265   1.726   0.611 -0.0820 -0.6718  0.4954
 4558TIP3   OH213679   0.884   5.884   2.141  0.1862  0.0428 -0.3217
 4558TIP3    H113680   0.962   5.828   2.147  0.8059  0.8726 -0.3826
 4558TIP3    H213681   0.836   5.851   2.065  0.3997 -0.5825 -0.1884
 4559TIP3   OH213682   1.472   4.401   0.254  0.2869  0.1963  0.1941
 4559TIP3    H113683   1.417   4.323   0.261  0.4544  0.0073 -0.5638
 4559TIP3    H213684   1.413   4.469   0.221  0.1990  0.3387  0.6306
 4560TIP3   OH213685   0.286   1.530   1.120  0.7663 -0.6529 -0.2823
 4560TIP3    H113686   0.214   1.471   1.141  1.7065 -1.7805 -0.1067
 4560TIP3    H213687   0.280   1.543   1.025 -0.8070  0.8508 -0.0345
 4561TIP3   OH213688   2.805   1.628   0.734  0.0289 -0.1498  0.1806
 4561TIP3    H113689   2.778   1.664   0.649 -1.2422  0.1219  0.6745
 4561TIP3    H213690   2.768   1.540   0.737 -0.1201 -0.0772  0.5461
 4562TIP3   OH213691   2.292   4.289   0.952 -0.1860 -0.2341  0.5251
 4562TIP3    H113692   2.257   4.241   1.027 -1.4453 -0.1514  0.0066
 4562TIP3    H213693   2.346   4.225   0.905  2.4969  0.2638  2.6363
 4563TIP3   OH213694   5.235   5.086   0.110  0.7166 -0.3729 -0.3544
 4563TIP3    H113695   5.163   5.105   0.170  0.0589 -1.3923 -0.7963
 4563TIP3    H213696   5.244   4.991   0.112  1.6921 -0.2998 -0.7237
 4564TIP3   OH213697   0.116   3.048   2.970  0.0507 -0.4102 -0.3232
 4564TIP3    H113698   0.054   2.976   2.957 -0.5687  0.3084 -1.5481
 4564TIP3    H213699   0.149   3.036   3.059 -1.3073 -1.2338  0.0901
 4565TIP3   OH213700   1.125   0.675   4.171 -0.6030 -0.2678  0.1458
 4565TIP3    H113701   1.118   0.653   4.263  0.5213  3.4076  1.2581
 4565TIP3    H213702   1.216   0.699   4.158 -0.4390 -1.7421 -2.2956
 4566TIP3   OH213703   1.530   2.516   1.626  0.6828  0.1005  0.2016
 4566TIP3    H113704   1.493   2.598   1.595 -0.0248  0.7864  2.6394
 4566TIP3    H213705   1.588   2.542   1.698  1.6531 -1.4315  0.0220
 4567TIP3   OH213706   3.305   4.576   4.998  0.8281 -0.0134  0.4296
 4567TIP3    H113707   3.245   4.606   5.067  1.5363  0.7137  0.7552
 4567TIP3    H213708   3.344   4.657   4.964  0.5101 -0.3609 -0.8247
 4568TIP3   OH213709   5.998   3.606   3.094  0.0252 -0.1751  0.5819
 4568TIP3    H113710   6.059   3.638   3.027  0.8848 -0.9052  1.0021
 4568TIP3    H213711   6.008   3.511   3.093 -0.6779 -0.2630  1.0725
 4569TIP3   OH213712   3.100   2.042   1.187 -0.1678  0.3936  0.0308
 4569TIP3    H113713   3.067   2.122   1.228 -1.0094 -0.0987  0.3305
 4569TIP3    H213714   3.023   2.001   1.148  0.1421 -0.5827  0.4095
 4570TIP3   OH213715   0.538   4.994   3.645 -0.7722  0.0626 -0.3023
 4570TIP3    H113716   0.604   4.937   3.684  0.4634  2.4821  1.4581
 4570TIP3    H213717   0.587   5.047   3.581 -1.7870 -0.4686 -1.5683
 4571TIP3   OH213718   2.305   4.886   4.718  0.3072 -0.5664 -0.0585
 4571TIP3    H113719   2.232   4.897   4.657  0.6089 -0.0007 -0.3259
 4571TIP3    H213720   2.374   4.942   4.683  0.4907 -0.2375  0.7927
 4572TIP3   OH213721   6.151   1.323   1.910 -0.0689  0.8282  1.1418
 4572TIP3    H113722   6.156   1.232   1.881 -2.9094  0.7163  0.6673
 4572TIP3    H213723   6.240   1.345   1.938  1.1021 -1.4698 -0.4991
 4573TIP3   OH213724   1.507   2.515   0.118 -0.2262  0.7356 -0.4753
 4573TIP3    H113725   1.544   2.440   0.072 -2.0788 -0.0797 -0.7173
 4573TIP3    H213726   1.558   2.521   0.199 -0.7769 -1.5492  0.1120
 4574TIP3   OH213727   0.836   2.430   1.814 -0.0056  0.0946  0.1739
 4574TIP3    H113728   0.929   2.410   1.826 -0.2593 -0.8134  0.7825
 4574TIP3    H213729   0.791   2.350   1.842 -0.9854  0.6800  0.3206
 4575TIP3   OH213730   2.566   0.313   2.497  0.3806 -0.1716  0.4314
 4575TIP3    H113731   2.657   0.328   2.473  0.0038 -0.3187 -1.2900
 4575TIP3    H213732   2.517   0.331   2.416 -1.1987  0.6424  1.4979
 4576TIP3   OH213733   1.606   2.875   1.453  0.1634 -0.0245  0.1176
 4576TIP3    H113734   1.636   2.855   1.364  0.9365  0.0116  0.3615
 4576TIP3    H213735   1.656   2.816   1.509  1.8079  1.8594  0.7690
 4577TIP3   OH213736   1.716   1.876   1.873  0.0116  0.3690 -0.7145
 4577TIP3    H113737   1.661   1.825   1.814  1.2284 -1.7104 -0.1236
 4577TIP3    H213738   1.758   1.812   1.929  1.1946  2.0765  0.4662
 4578TIP3   OH213739   5.251   5.079   4.827 -0.7259  0.1693 -0.1271
 4578TIP3    H113740   5.231   5.046   4.740 -1.2028  1.0222 -0.3565
 4578TIP3    H213741   5.280   5.170   4.813  1.7433 -0.4656  0.3587
 4579TIP3   OH213742   0.320   2.688   1.309  0.2002  0.0973  0.6514
 4579TIP3    H113743   0.279   2.603   1.292 -0.8987  0.6188  0.6105
 4579TIP3    H213744   0.403   2.685   1.262 -0.6241 -0.3038 -0.8266
 4580TIP3   OH213745   6.084   3.423   4.586  0.2762 -0.3369  0.8292
 4580TIP3    H113746   6.152   3.446   4.649  0.7824  1.4091 -0.2766
 4580TIP3    H213747   6.028   3.360   4.633  2.7345 -2.0301  1.6674
 4581TIP3   OH213748   0.821   2.522   0.449 -0.1312  0.4073  0.2397
 4581TIP3    H113749   0.811   2.427   0.436 -0.3813  0.1989  1.7981
 4581TIP3    H213750   0.735   2.558   0.429 -0.1800  0.2472  0.1595
 4582TIP3   OH213751   4.355   2.696   1.155 -0.5753  0.5175  0.0442
 4582TIP3    H113752   4.370   2.743   1.237  1.2190  1.0606 -0.5468
 4582TIP3    H213753   4.333   2.607   1.181  1.1247  0.3834  1.1262
 4583TIP3   OH213754   6.253   2.659   3.569  0.0602  0.0553 -0.0057
 4583TIP3    H113755   6.319   2.713   3.613  0.3258 -0.6269  0.4643
 4583TIP3    H213756   6.296   2.627   3.490  0.3672 -0.5076  0.3735
 4584TIP3   OH213757   4.509   5.923   2.504  0.0121  0.4879 -0.5210
 4584TIP3    H113758   4.591   5.896   2.463 -0.7695 -0.8486 -1.2856
 4584TIP3    H213759   4.531   5.936   2.596  1.1418  0.4382 -0.7708
 4585TIP3   OH213760   5.608   5.030   3.388 -0.3794  0.5218 -0.4873
 4585TIP3    H113761   5.523   4.987   3.396  0.4775 -1.1705  0.0906
 4585TIP3    H213762   5.625   5.031   3.293 -1.1401  1.0923 -0.6228
 4586TIP3   OH213763   2.020   0.156   0.828 -0.3481  0.1406 -0.2015
 4586TIP3    H113764   1.933   0.118   0.844 -0.1752  0.7573  2.6859
 4586TIP3    H213765   2.004   0.250   0.826  0.4299  0.4236  2.5823
 4587TIP3   OH213766   0.823   1.969   2.394 -0.4333 -0.2110  0.4588
 4587TIP3    H113767   0.815   1.998   2.485  0.0938 -0.4048  0.5697
 4587TIP3    H213768   0.734   1.945   2.369 -1.1500  2.6088 -0.0165
 4588TIP3   OH213769   2.012   5.786   3.134  0.7789 -0.0679 -0.4208
 4588TIP3    H113770   2.016   5.696   3.100 -0.8432 -0.6270  0.7497
 4588TIP3    H213771   2.011   5.841   3.056  0.1662 -1.1673 -1.2157
 4589TIP3   OH213772   5.537   2.692   0.113  0.0780 -0.3035  0.7265
 4589TIP3    H113773   5.578   2.657   0.035 -1.1687  0.5089 -0.3324
 4589TIP3    H213774   5.608   2.696   0.178  1.1245 -1.0020 -0.3324
 4590TIP3   OH213775   4.010   2.270   4.889  0.2957 -0.2240 -0.0948
 4590TIP3    H113776   3.945   2.288   4.957  0.2618  1.1750 -0.4581
 4590TIP3    H213777   3.959   2.245   4.812  0.2390 -0.1791 -0.0721
 4591TIP3   OH213778   4.222   2.832   3.473  0.1392  0.1892  0.3627
 4591TIP3    H113779   4.306   2.866   3.505  0.4511  1.4298 -1.6024
 4591TIP3    H213780   4.239   2.809   3.382 -1.2280 -1.2543  0.4321
 4592TIP3   OH213781   5.466   0.131   2.616  0.2848 -0.0172 -0.4239
 4592TIP3    H113782   5.529   0.191   2.656  0.7459 -0.6296 -0.2123
 4592TIP3    H213783   5.453   0.164   2.527 -0.2124  0.9550  0.0008
 4593TIP3   OH213784   2.280   1.253   5.153  0.3737  0.0081 -0.3298
 4593TIP3    H113785   2.319   1.332   5.117  0.9492  0.0298  0.3175
 4593TIP3    H213786   2.312   1.249   5.243  0.7783 -1.2314 -0.5056
 4594TIP3   OH213787   1.399   5.198   2.655 -0.1181 -0.3450  0.4499
 4594TIP3    H113788   1.444   5.260   2.598 -1.7454 -0.9203 -1.5874
 4594TIP3    H213789   1.419   5.112   2.618 -0.4254 -0.8247  1.3566
 4595TIP3   OH213790   5.312   3.832   4.135  0.3501 -0.2400 -0.5483
 4595TIP3    H113791   5.296   3.924   4.155  0.1615  0.2168 -2.5750
 4595TIP3    H213792   5.275   3.784   4.209 -1.1059  1.2455 -0.2641
 4596TIP3   OH213793   5.756   5.794   4.901  0.3619  0.4921 -0.0716
 4596TIP3    H113794   5.707   5.722   4.940  1.2611  0.2849  0.7089
 4596TIP3    H213795   5.710   5.813   4.819 -0.4212 -0.3522  0.1573
 4597TIP3   OH213796   0.544   2.453   3.784  0.1368 -0.1652 -0.2238
 4597TIP3    H113797   0.620   2.395   3.779  0.5328  0.3956 -1.0167
 4597TIP3    H213798   0.504   2.447   3.697 -0.9583 -0.7414  0.2984
 4598TIP3   OH213799   1.832   1.896   0.743 -0.1363  0.1073  0.0258
 4598TIP3    H113800   1.913   1.880   0.792  1.1328  1.4151 -1.5210
 4598TIP3    H213801   1.775   1.822   0.765  1.3306 -0.6524  1.4538
 4599TIP3   OH213802   0.122   4.123   1.239 -0.7397  0.7456 -0.6623
 4599TIP3    H113803   0.151   4.138   1.329 -0.2558  1.0862 -0.8740
 4599TIP3    H213804   0.030   4.096   1.248  0.0373 -1.9600  0.1298
 4600TIP3   OH213805   2.468   2.225   0.665  0.5193  0.0672 -0.3269
 4600TIP3    H113806   2.427   2.299   0.621 -0.9841 -1.6634 -2.0377
 4600TIP3    H213807   2.507   2.174   0.594  0.5198 -1.3537  0.6534
 4601TIP3   OH213808   1.127   2.346   1.233  0.9653  0.3737 -0.2457
 4601TIP3    H113809   1.170   2.397   1.164 -1.2958 -0.2250 -2.2051
 4601TIP3    H213810   1.038   2.381   1.237  0.9320  0.1419  2.1562
 4602TIP3   OH213811   0.092   2.147   1.597 -0.4276 -0.5880  0.3021
 4602TIP3    H113812   0.161   2.139   1.663 -0.2045  0.2662  0.1762
 4602TIP3    H213813   0.010   2.145   1.648 -0.2405  0.6722  0.6697
 4603TIP3   OH213814   2.000   1.831   4.259 -0.3974  0.1795 -0.5049
 4603TIP3    H113815   1.907   1.817   4.243 -0.0240 -0.7884 -2.1276
 4603TIP3    H213816   2.039   1.744   4.252  0.8227  0.7653 -1.4025
 4604TIP3   OH213817   0.431   1.682   3.433  0.1396 -0.1909 -0.0516
 4604TIP3    H113818   0.439   1.587   3.423  0.0075 -0.1702 -0.3626
 4604TIP3    H213819   0.459   1.718   3.348  1.5461  0.1142  0.5225
 4605TIP3   OH213820   0.203   1.234   0.015 -0.4485 -0.1641 -0.3531
 4605TIP3    H113821   0.218   1.210   0.106 -0.1628  0.1046 -0.3283
 4605TIP3    H213822   0.132   1.177  -0.014 -0.0386 -0.7686 -0.1791
 4606TIP3   OH213823   3.989   4.324   4.703  0.3367 -0.0529 -0.0404
 4606TIP3    H113824   3.938   4.405   4.704  0.8132  0.2757 -0.8861
 4606TIP3    H213825   3.949   4.269   4.770  0.2432  1.0240  0.8017
 4607TIP3   OH213826   3.238   5.589   4.738  0.0437 -0.2532 -0.0740
 4607TIP3    H113827   3.168   5.584   4.672 -2.1161  0.3732  2.0064
 4607TIP3    H213828   3.235   5.504   4.782  0.8507 -0.3469 -0.1938
 4608TIP3   OH213829   1.217   5.966   0.968 -0.3950  0.0063  0.4787
 4608TIP3    H113830   1.158   5.972   0.893  1.7274  1.4326 -1.1999
 4608TIP3    H213831   1.234   5.873   0.978 -0.4747 -0.1930 -1.0344
 4609TIP3   OH213832   1.679   5.442   4.626 -0.0346  0.0077 -0.3004
 4609TIP3    H113833   1.708   5.394   4.704 -0.9677 -0.3540 -0.1694
 4609TIP3    H213834   1.706   5.533   4.642  0.2888 -0.1678  0.1795
 4610TIP3   OH213835   0.980   0.074   5.041 -0.1689  0.0946 -0.3719
 4610TIP3    H113836   0.969   0.000   5.101  2.1057 -0.0735 -0.1101
 4610TIP3    H213837   0.893   0.085   5.002 -1.9896  0.6994  3.4010
 4611TIP3   OH213838   1.743   2.283   3.457 -0.4953 -0.2152  0.0679
 4611TIP3    H113839   1.683   2.273   3.383 -0.2300 -3.3507  0.1449
 4611TIP3    H213840   1.813   2.339   3.422 -1.1021 -0.4208 -1.5961
 4612TIP3   OH213841   2.162   2.825   5.178  0.2765  1.0041  0.3592
 4612TIP3    H113842   2.224   2.814   5.105  1.2220 -0.1553  1.3047
 4612TIP3    H213843   2.188   2.908   5.219  0.9785  0.7081  0.5238
 4613TIP3   OH213844   4.107   2.047   2.918  0.4371 -0.4125  0.3189
 4613TIP3    H113845   4.083   2.137   2.939  1.5464 -0.6339  2.9237
 4613TIP3    H213846   4.046   1.993   2.967  1.1372 -1.0278  0.5429
 4614TIP3   OH213847   0.420   2.849   0.179  0.1489 -0.1292 -0.0568
 4614TIP3    H113848   0.339   2.814   0.216  0.1039  0.8372  0.8122
 4614TIP3    H213849   0.478   2.861   0.254  0.6255  0.4141 -0.4991
 4615TIP3   OH213850   3.646   2.974   1.745  0.8383  0.4491  0.0607
 4615TIP3    H113851   3.551   2.972   1.751  0.8687 -0.0753  0.3575
 4615TIP3    H213852   3.664   3.039   1.677  0.3320  2.1901  1.5011
 4616TIP3   OH213853   0.997   2.771   3.495  0.0424 -0.1667 -0.0332
 4616TIP3    H113854   1.046   2.708   3.547  1.9114  0.6169 -0.7475
 4616TIP3    H213855   1.029   2.758   3.405 -0.4155  0.9570 -0.3797
 4617TIP3   OH213856   4.503   1.201   1.104 -0.7095  0.0730  0.0483
 4617TIP3    H113857   4.498   1.122   1.158 -0.9131  0.3450  0.4391
 4617TIP3    H213858   4.547   1.174   1.024 -1.9885 -0.7476 -0.3914
 4618TIP3   OH213859   2.017   4.734   5.209 -0.2221  0.2863  0.4565
 4618TIP3    H113860   2.046   4.662   5.154  0.9275 -0.2419  1.7103
 4618TIP3    H213861   1.979   4.797   5.148  0.4293 -0.5503 -0.8495
 4619TIP3   OH213862   3.797   2.506   4.458 -1.0010 -0.3916 -0.3842
 4619TIP3    H113863   3.731   2.550   4.405 -1.8253 -1.5247 -0.3470
 4619TIP3    H213864   3.794   2.415   4.429  1.3634 -0.2757 -1.1731
 4620TIP3   OH213865   5.016   3.858   1.725  0.1845 -0.3988  0.1919
 4620TIP3    H113866   5.000   3.829   1.815  1.7907 -2.2098 -0.0593
 4620TIP3    H213867   4.969   3.796   1.671 -0.2897  0.3412 -0.2614
 4621TIP3   OH213868   0.775   4.476   1.199  0.7990  0.2498 -0.1273
 4621TIP3    H113869   0.835   4.455   1.270  0.2440  0.4950  0.4220
 4621TIP3    H213870   0.747   4.566   1.216  0.5446  0.2599 -0.5715
 4622TIP3   OH213871   1.591   3.665   1.004  0.2598 -0.4356  0.0407
 4622TIP3    H113872   1.672   3.619   1.028  0.3577 -0.5894 -0.5567
 4622TIP3    H213873   1.620   3.733   0.943  0.2322  1.0223  1.5929
 4623TIP3   OH213874   3.578   5.045   0.670 -0.3409  0.2755 -0.0219
 4623TIP3    H113875   3.613   5.041   0.759 -1.8754  1.1283  0.6584
 4623TIP3    H213876   3.568   4.953   0.644  0.7402  0.0166  0.4132
 4624TIP3   OH213877   1.785   5.835   2.896  0.2594 -0.1566  0.1212
 4624TIP3    H113878   1.870   5.877   2.884  0.6274 -0.7354  0.6468
 4624TIP3    H213879   1.761   5.806   2.808 -0.2240  1.5328 -0.3431
 4625TIP3   OH213880   0.289   4.813   3.906  0.7450 -0.1576  0.6757
 4625TIP3    H113881   0.311   4.831   3.998 -0.3666 -1.5566  1.2462
 4625TIP3    H213882   0.210   4.759   3.910 -0.1602  0.9405 -1.1633
 4626TIP3   OH213883   0.986   1.897   4.933  0.2904 -0.5049 -0.5968
 4626TIP3    H113884   1.004   1.983   4.896 -2.8730  0.5787  0.1122
 4626TIP3    H213885   0.925   1.857   4.871 -1.5768 -0.4682  1.1405
 4627TIP3   OH213886   1.791   1.523   1.827  0.3607 -0.0455 -0.1821
 4627TIP3    H113887   1.810   1.456   1.893 -0.4210 -2.2321 -2.0540
 4627TIP3    H213888   1.779   1.603   1.878  1.5689 -1.2260  2.1570
 4628TIP3   OH213889   4.957   4.108   4.111  0.9346 -0.0533 -0.0354
 4628TIP3    H113890   4.954   4.133   4.019  0.6771 -0.3897 -0.1201
 4628TIP3    H213891   4.867   4.116   4.141  1.0320  0.1262  0.2052
 4629TIP3   OH213892   2.606   0.733   4.681 -0.3094  0.2867 -0.0431
 4629TIP3    H113893   2.634   0.684   4.758 -1.8422  1.1856  1.1566
 4629TIP3    H213894   2.648   0.689   4.607  1.1881 -0.6121  1.2951
 4630TIP3   OH213895   4.033   0.315   0.474 -0.0917 -0.2071 -0.6301
 4630TIP3    H113896   4.100   0.353   0.531 -2.0506  1.0568  0.9823
 4630TIP3    H213897   3.980   0.261   0.532  0.4497 -2.5438 -2.2021
 4631TIP3   OH213898   2.265   3.792   1.851  0.5775 -0.0966 -0.1062
 4631TIP3    H113899   2.180   3.836   1.845  0.9038  0.6275  0.4380
 4631TIP3    H213900   2.251   3.722   1.915  0.6366  0.6551  0.7562
 4632TIP3   OH213901   1.053   4.321   2.571  0.0648 -0.5006 -0.0360
 4632TIP3    H113902   1.111   4.393   2.546 -0.1820  0.1894  1.2999
 4632TIP3    H213903   1.045   4.268   2.492  4.2111 -1.8414  0.2426
 4633TIP3   OH213904   3.070   3.441   2.381 -0.1024  0.1137  0.3456
 4633TIP3    H113905   3.024   3.521   2.356  0.1749 -0.0454 -0.7336
 4633TIP3    H213906   3.151   3.444   2.329  1.1869  0.4523  2.2584
 4634TIP3   OH213907   1.398   0.501   3.087 -0.1687 -0.0727  0.5439
 4634TIP3    H113908   1.337   0.558   3.132  0.4836  0.2839  0.9989
 4634TIP3    H213909   1.406   0.538   2.999 -2.1953 -1.3280 -0.2492
 4635TIP3   OH213910   2.154   1.137   3.404 -0.1526 -0.3029  0.3502
 4635TIP3    H113911   2.181   1.191   3.479  0.1451 -0.6898  0.5265
 4635TIP3    H213912   2.227   1.143   3.343 -0.8842  0.9656 -0.4431
 4636TIP3   OH213913   4.754   2.185   5.125  0.2023 -0.4346 -0.5055
 4636TIP3    H113914   4.814   2.182   5.050  0.7672 -1.2859 -0.0431
 4636TIP3    H213915   4.747   2.278   5.146 -0.5191 -0.1095 -2.0319
 4637TIP3   OH213916   6.059   0.451   4.096  0.1589  0.0248 -0.4895
 4637TIP3    H113917   6.117   0.467   4.171  0.1480 -2.4874  0.1485
 4637TIP3    H213918   5.971   0.466   4.129  0.1431 -1.2457  0.0932
 4638TIP3   OH213919   5.079   3.600   3.829  0.0623  0.1525 -0.0816
 4638TIP3    H113920   5.070   3.511   3.794  0.1157  0.3251 -0.5399
 4638TIP3    H213921   5.008   3.649   3.788  1.2771  0.8237 -1.4461
 4639TIP3   OH213922   5.261   2.695   0.107 -0.1006  0.1763  0.5248
 4639TIP3    H113923   5.352   2.667   0.118 -0.1459  0.1341  0.8056
 4639TIP3    H213924   5.259   2.735   0.020 -0.2405 -1.5359 -0.3081
 4640TIP3   OH213925   3.625   0.687   0.943  0.1251 -0.1999 -0.2039
 4640TIP3    H113926   3.622   0.679   1.038  0.7996 -0.0565 -0.1685
 4640TIP3    H213927   3.647   0.600   0.912  1.0891  0.0255 -0.1626
 4641TIP3   OH213928   3.928   2.249   2.981  0.3178  0.2657  0.0747
 4641TIP3    H113929   3.884   2.257   3.066 -1.1507 -1.1320 -0.4992
 4641TIP3    H213930   3.941   2.340   2.953 -3.5478  0.9055 -0.2962
 4642TIP3   OH213931   2.575   2.205   4.846  0.2710  0.3610 -0.0110
 4642TIP3    H113932   2.597   2.295   4.870 -0.0042 -0.2944  3.1252
 4642TIP3    H213933   2.657   2.157   4.859  0.4031  0.0967 -1.6151
 4643TIP3   OH213934   4.443   2.541   0.484  0.4608  0.1867  0.3293
 4643TIP3    H113935   4.534   2.515   0.472  1.0079  0.5088  3.1023
 4643TIP3    H213936   4.448   2.622   0.535 -1.3838  0.5744 -0.0385
 4644TIP3   OH213937   4.165   4.151   0.205  0.2748 -0.0839 -0.0236
 4644TIP3    H113938   4.085   4.135   0.255 -1.0713 -1.6019 -2.4367
 4644TIP3    H213939   4.149   4.233   0.159  0.8067  0.4300  0.6796
 4645TIP3   OH213940   2.697   4.701   1.110 -0.9976 -0.1826 -0.3520
 4645TIP3    H113941   2.714   4.783   1.063 -0.8806  0.0425  0.0799
 4645TIP3    H213942   2.607   4.678   1.086 -2.5090  2.1395  2.5402
 4646TIP3   OH213943   0.491   1.087   0.813 -0.7160 -0.0558 -0.1300
 4646TIP3    H113944   0.428   1.021   0.782  1.2322 -1.7577 -0.6745
 4646TIP3    H213945   0.557   1.092   0.744 -0.2688  1.7700  0.3700
 4647TIP3   OH213946   4.859   4.546   0.263  0.4340 -0.0135  0.1923
 4647TIP3    H113947   4.843   4.485   0.190  0.1396 -0.2528  0.4546
 4647TIP3    H213948   4.772   4.576   0.289  0.6025  0.8673 -0.2187
 4648TIP3   OH213949   2.553   5.830   3.644  0.2277 -0.2034  0.7705
 4648TIP3    H113950   2.499   5.799   3.717 -0.0655 -0.4852  0.4381
 4648TIP3    H213951   2.642   5.803   3.667  0.3173  0.6737  1.5504
 4649TIP3   OH213952   0.376   5.898   0.297  0.1332 -0.7584 -0.0377
 4649TIP3    H113953   0.396   5.917   0.206  0.0967  1.6675  0.3913
 4649TIP3    H213954   0.289   5.935   0.311  0.1702 -1.0207  0.9836
 4650TIP3   OH213955   0.211   0.724   2.273  0.1020 -0.2807 -0.2412
 4650TIP3    H113956   0.276   0.763   2.215 -0.1952 -0.0035 -0.3934
 4650TIP3    H213957   0.133   0.714   2.218 -0.3187  0.3798  0.2139
 4651TIP3   OH213958   4.028   3.337   4.367  0.1139 -0.6546 -0.2677
 4651TIP3    H113959   4.080   3.264   4.401  1.1611  0.4775  0.6832
 4651TIP3    H213960   4.059   3.349   4.277  2.4389  0.7260  0.6227
 4652TIP3   OH213961   4.516   3.814   1.182  0.1205  0.2724 -0.2625
 4652TIP3    H113962   4.567   3.748   1.135  0.6686  0.2628  0.3380
 4652TIP3    H213963   4.443   3.835   1.123  0.7555  0.2025 -1.0865
 4653TIP3   OH213964   3.649   1.087   4.044  0.5854 -0.3743 -0.1904
 4653TIP3    H113965   3.560   1.051   4.045  0.8863 -1.2957  2.6292
 4653TIP3    H213966   3.657   1.133   4.127  2.7829 -0.3818 -0.3396
 4654TIP3   OH213967   6.166   2.251   2.212  0.3802 -0.1106 -0.2513
 4654TIP3    H113968   6.137   2.213   2.129 -0.6931 -0.2341  0.1684
 4654TIP3    H213969   6.259   2.270   2.198  0.7653 -2.0975 -0.7674
 4655TIP3   OH213970   0.675   3.905   2.578 -0.7091  0.2620 -0.3373
 4655TIP3    H113971   0.612   3.939   2.514  0.2625  1.4154 -0.7215
 4655TIP3    H213972   0.662   3.810   2.576 -0.8209  0.2802 -2.1502
 4656TIP3   OH213973   4.617   2.844   1.759  0.3307 -0.6148 -0.2590
 4656TIP3    H113974   4.692   2.903   1.754  1.4625 -1.7007  2.2709
 4656TIP3    H213975   4.613   2.804   1.671  1.9661  0.3261 -0.8130
 4657TIP3   OH213976   0.892   0.152   3.236 -0.0584  0.1297 -0.2085
 4657TIP3    H113977   0.868   0.230   3.286  0.2372 -0.3483  0.7070
 4657TIP3    H213978   0.812   0.128   3.189 -0.8860 -0.4029  1.3948
 4658TIP3   OH213979   2.048   3.174   3.487  0.3964  0.4868 -0.2690
 4658TIP3    H113980   2.044   3.264   3.519  2.6175  0.2482  0.8648
 4658TIP3    H213981   1.978   3.128   3.534 -0.2927  1.4431 -0.3345
 4659TIP3   OH213982   1.820   1.282   3.855  0.2784  0.0099  0.1257
 4659TIP3    H113983   1.827   1.205   3.911 -1.4329 -0.7301 -0.6208
 4659TIP3    H213984   1.791   1.248   3.771 -0.9115  1.5049 -0.1076
 4660TIP3   OH213985   1.400   0.762   4.134 -0.1059 -0.3070  0.1763
 4660TIP3    H113986   1.446   0.795   4.057 -1.4257 -0.0087 -0.5177
 4660TIP3    H213987   1.402   0.835   4.196 -2.4197  0.9569 -1.0950
 4661TIP3   OH213988   4.249   1.781   4.389  0.1611  0.1389  0.2953
 4661TIP3    H113989   4.176   1.735   4.346  1.0382 -0.9672 -0.0535
 4661TIP3    H213990   4.282   1.841   4.323  1.4240 -1.4663 -0.6150
 4662TIP3   OH213991   0.684   4.289   4.026  0.3737  0.3332 -0.4528
 4662TIP3    H113992   0.615   4.277   3.960 -0.5816 -0.8672  0.7212
 4662TIP3    H213993   0.684   4.383   4.043 -2.3095  0.1905  0.8450
 4663TIP3   OH213994   1.166   5.440   3.294 -0.7032 -0.5054  0.0144
 4663TIP3    H113995   1.212   5.484   3.222 -2.7927 -1.5785 -2.1091
 4663TIP3    H213996   1.227   5.373   3.324  1.4940  1.9917  1.5598
 4664TIP3   OH213997   1.246   3.703   3.183  0.1345  0.4326 -0.4075
 4664TIP3    H113998   1.186   3.692   3.109  0.4772  0.3737 -0.6785
 4664TIP3    H213999   1.329   3.668   3.152  0.9551  2.6339 -0.8682
 4665TIP3   OH214000   4.495   4.413   1.360 -0.3169 -0.4293  0.0785
 4665TIP3    H114001   4.570   4.382   1.309 -0.2130  1.4774 -1.0503
 4665TIP3    H214002   4.425   4.423   1.295 -0.3097  1.6552  0.3176
 4666TIP3   OH214003   1.859   2.893   2.927  0.3843  0.8078  0.3954
 4666TIP3    H114004   1.899   2.820   2.879  1.5523  0.4423  1.8298
 4666TIP3    H214005   1.768   2.895   2.898  0.4141 -1.0169  0.0767
 4667TIP3   OH214006   6.197   3.866   2.011 -0.6771 -0.0974  0.0993
 4667TIP3    H114007   6.207   3.777   1.978  0.8928  0.9199 -2.4514
 4667TIP3    H214008   6.287   3.900   2.014 -1.3478  1.7918 -0.1545
 4668TIP3   OH214009   1.516   1.072   0.682  0.2458  0.3918  0.7266
 4668TIP3    H114010   1.530   1.015   0.607 -1.1937 -0.2737  0.9331
 4668TIP3    H214011   1.519   1.161   0.647 -1.1136  0.0725 -0.2532
 4669TIP3   OH214012   1.961   5.061   0.492 -0.0300  0.1336 -0.4503
 4669TIP3    H114013   1.947   4.971   0.522  0.2738 -0.0444 -0.8464
 4669TIP3    H214014   1.881   5.082   0.443 -0.5170  0.4139  0.4360
 4670TIP3   OH214015   3.806   0.834   3.711  0.0488 -0.7943 -0.0802
 4670TIP3    H114016   3.736   0.896   3.689  0.8406 -0.0412 -0.5538
 4670TIP3    H214017   3.774   0.788   3.788 -0.4953  0.3185  0.3823
 4671TIP3   OH214018   1.654   1.530   2.273 -0.2587 -0.0268 -0.1303
 4671TIP3    H114019   1.569   1.487   2.283 -0.1711 -0.0383  0.5935
 4671TIP3    H214020   1.649   1.573   2.188 -1.4138  0.9342  0.4013
 4672TIP3   OH214021   3.182   2.213   2.251  0.1137 -0.4429 -0.4095
 4672TIP3    H114022   3.135   2.131   2.235  1.3460 -1.3472  0.3957
 4672TIP3    H214023   3.274   2.186   2.260  0.2320  0.5962  2.7150
 4673TIP3   OH214024   3.981   1.618   4.022 -0.1066  0.1226 -0.5118
 4673TIP3    H114025   3.943   1.678   3.958  1.1388 -0.5484 -1.9665
 4673TIP3    H214026   4.036   1.560   3.970  1.6684  0.0795  1.2649
 4674TIP3   OH214027   6.291   5.075   4.458  0.1034 -0.1875  0.0040
 4674TIP3    H114028   6.221   5.035   4.509 -0.8748  0.5677 -0.7179
 4674TIP3    H214029   6.304   5.161   4.497 -0.9031  0.5401 -1.2024
 4675TIP3   OH214030   5.134   2.715   2.799  0.0374 -0.6096  0.2324
 4675TIP3    H114031   5.083   2.638   2.825  0.7121 -0.3744  2.3965
 4675TIP3    H214032   5.086   2.750   2.724 -0.5110 -2.8758 -0.5633
 4676TIP3   OH214033   3.777   1.317   4.990 -0.3118 -0.0873  0.3225
 4676TIP3    H114034   3.694   1.357   4.964  1.5782  2.3783 -2.6060
 4676TIP3    H214035   3.799   1.259   4.916  0.3683 -1.1073  1.2929
 4677TIP3   OH214036   5.057   1.008   2.985 -0.0520 -0.3739 -0.2735
 4677TIP3    H114037   4.982   1.027   3.042 -0.2315 -2.2422  0.1752
 4677TIP3    H214038   5.124   0.974   3.044  0.0520 -1.5575 -1.0426
 4678TIP3   OH214039   6.064   3.588   3.374 -0.1441  0.4754  0.5784
 4678TIP3    H114040   6.019   3.603   3.291 -1.3926 -0.6590  1.0127
 4678TIP3    H214041   6.075   3.493   3.379  0.4771  0.5743  1.4374
 4679TIP3   OH214042   4.250   1.646   4.844  0.2863  0.2745  0.0658
 4679TIP3    H114043   4.230   1.692   4.762  1.3188 -0.3557 -0.5567
 4679TIP3    H214044   4.331   1.687   4.875 -1.4130  2.3417  2.2049
 4680TIP3   OH214045   3.844   1.120   3.844  0.4011 -0.0667  0.2415
 4680TIP3    H114046   3.781   1.097   3.776 -0.4095  3.7851 -0.5660
 4680TIP3    H214047   3.790   1.136   3.922  0.6222  0.9326  0.2032
 4681TIP3   OH214048   0.016   0.813   1.808  0.0516 -0.0894 -0.5401
 4681TIP3    H114049   0.083   0.747   1.828 -1.2351 -0.4133  4.0011
 4681TIP3    H214050  -0.043   0.770   1.746  1.0463 -1.9455 -0.2794
 4682TIP3   OH214051   3.175   5.342   4.180  0.4859  0.0340  0.4469
 4682TIP3    H114052   3.185   5.329   4.086  1.6778  1.9986  0.2401
 4682TIP3    H214053   3.092   5.388   4.190  0.4773  0.0408  0.3411
 4683TIP3   OH214054   5.404   2.620   5.123  0.0585 -0.1487  0.2907
 4683TIP3    H114055   5.461   2.594   5.195 -0.0741  1.0724  0.8484
 4683TIP3    H214056   5.315   2.610   5.158 -0.0270 -0.2549  0.0477
 4684TIP3   OH214057   0.763   5.675   1.616 -0.7085  0.0851  0.2366
 4684TIP3    H114058   0.787   5.599   1.563  1.5161  0.1719  1.0004
 4684TIP3    H214059   0.767   5.643   1.706 -0.8359  0.8271  0.5108
 4685TIP3   OH214060   3.118   3.192   0.126  0.2301 -0.2356  0.5106
 4685TIP3    H114061   3.097   3.155   0.041 -0.0256 -2.0517  1.3261
 4685TIP3    H214062   3.042   3.171   0.181 -0.9672  3.4230  0.5442
 4686TIP3   OH214063   2.731   4.180   3.478 -0.0239  0.4439 -0.7125
 4686TIP3    H114064   2.806   4.138   3.437  0.2951  0.3155 -0.0161
 4686TIP3    H214065   2.761   4.268   3.500 -0.1248  0.4486 -0.5875
 4687TIP3   OH214066   2.866   0.994   1.671  0.4895 -0.1070 -0.5815
 4687TIP3    H114067   2.887   0.906   1.640  1.7085 -0.3593  0.7871
 4687TIP3    H214068   2.911   1.052   1.610  1.4971 -0.5281 -0.2760
 4688TIP3   OH214069   2.826   0.188   2.190  0.3120  0.9560 -0.6803
 4688TIP3    H114070   2.873   0.111   2.157 -0.6681  0.1608 -0.3098
 4688TIP3    H214071   2.848   0.258   2.130  0.9271  0.2806 -1.2590
 4689TIP3   OH214072   1.607   3.805   2.362  0.1548 -0.2340 -0.0943
 4689TIP3    H114073   1.604   3.717   2.398 -1.6654 -0.1917 -0.0987
 4689TIP3    H214074   1.601   3.862   2.439 -0.0452 -0.1177 -0.1965
 4690TIP3   OH214075   0.064   5.846   4.262 -0.2112 -0.2049  0.2896
 4690TIP3    H114076   0.087   5.781   4.328  1.0091 -0.6962 -0.5737
 4690TIP3    H214077   0.147   5.866   4.218 -1.1019 -0.5283 -1.6506
 4691TIP3   OH214078   1.249   5.599   4.287 -0.4111  0.3405  0.1560
 4691TIP3    H114079   1.330   5.640   4.316  0.1121  0.4909 -1.4393
 4691TIP3    H214080   1.180   5.659   4.318  0.0833  0.3611  1.2587
 4692TIP3   OH214081   2.027   3.117   0.901 -0.5489 -0.0747 -0.0447
 4692TIP3    H114082   2.042   3.201   0.946 -1.6467  0.3219 -0.3840
 4692TIP3    H214083   1.991   3.060   0.969  1.2631 -0.6514  0.4714
 4693TIP3   OH214084   4.816   2.542   0.210 -0.7055 -0.8341 -0.3505
 4693TIP3    H114085   4.853   2.465   0.165  0.3148 -0.0148 -0.9567
 4693TIP3    H214086   4.763   2.505   0.281 -0.3904 -2.1025 -0.7462
 4694TIP3   OH214087   1.636   5.430   3.215  0.0922  0.7118 -0.3206
 4694TIP3    H114088   1.662   5.469   3.298  0.8684 -1.5746  0.6065
 4694TIP3    H214089   1.572   5.491   3.178  1.6421  3.0608  0.6821
 4695TIP3   OH214090   2.335   4.529   1.541  0.0266 -0.2341 -0.1228
 4695TIP3    H114091   2.425   4.502   1.523  0.3853  0.4958  0.5301
 4695TIP3    H214092   2.282   4.482   1.476  1.0118  0.3653 -1.4058
 4696TIP3   OH214093   3.534   3.939   3.951 -0.2884 -0.5833 -0.1029
 4696TIP3    H114094   3.623   3.948   3.919  0.1594 -0.8289  1.0342
 4696TIP3    H214095   3.513   3.847   3.938 -0.3126 -0.5658 -0.1905
 4697TIP3   OH214096   4.565   0.625   1.643 -0.3681 -0.4587 -0.5338
 4697TIP3    H114097   4.568   0.655   1.734 -1.3920 -1.7141 -0.0501
 4697TIP3    H214098   4.471   0.614   1.626 -0.2854  1.0385 -2.1991
 4698TIP3   OH214099   0.083   3.533   2.250  0.3416  0.2149  0.5743
 4698TIP3    H114100   0.082   3.625   2.278 -0.5069 -0.0224  1.3922
 4698TIP3    H214101  -0.004   3.518   2.214  1.1984  0.3246 -1.6992
 4699TIP3   OH214102   5.646   4.611   3.905  0.8421 -0.2739  0.0772
 4699TIP3    H114103   5.690   4.684   3.862  0.3540 -0.6093 -1.0390
 4699TIP3    H214104   5.604   4.649   3.982  2.5637  0.1648  0.8335
 4700TIP3   OH214105   1.490   3.392   4.109  0.4343  0.6506  0.1046
 4700TIP3    H114106   1.527   3.362   4.026 -2.0393 -3.4395  0.2054
 4700TIP3    H214107   1.537   3.343   4.176  0.0595  1.2785  0.8455
 4701TIP3   OH214108   6.197   1.726   0.324 -0.7299 -0.1872 -0.1832
 4701TIP3    H114109   6.218   1.730   0.231 -0.9731 -0.9599 -0.2770
 4701TIP3    H214110   6.188   1.632   0.343 -1.2199 -0.0097  0.4992
 4702TIP3   OH214111   4.280   4.511   0.386 -0.3258  0.1023 -0.2679
 4702TIP3    H114112   4.250   4.437   0.438 -0.0355 -0.1342 -0.4332
 4702TIP3    H214113   4.207   4.529   0.326 -0.5062  0.1323 -0.0415
 4703TIP3   OH214114   2.886   3.551   2.116  0.0927  0.1990  0.4541
 4703TIP3    H114115   2.819   3.510   2.063 -0.6055  0.1352  1.3674
 4703TIP3    H214116   2.966   3.501   2.097 -0.4736 -0.7856  0.6043
 4704TIP3   OH214117   3.885   3.767   3.607  0.5126  0.2158 -0.0751
 4704TIP3    H114118   3.954   3.815   3.562  2.5655  0.1659  2.7492
 4704TIP3    H214119   3.932   3.712   3.670 -1.9855 -2.2890 -0.2229
 4705TIP3   OH214120   2.238   1.466   0.697  0.2909 -0.2447  0.2190
 4705TIP3    H114121   2.179   1.451   0.623 -2.5745  0.1295  2.2608
 4705TIP3    H214122   2.275   1.380   0.716  0.7669 -0.4204 -1.3712
 4706TIP3   OH214123   4.514   3.332   0.576 -0.2649  0.8894  0.4777
 4706TIP3    H114124   4.505   3.384   0.656 -1.7907 -0.5382  1.3080
 4706TIP3    H214125   4.424   3.318   0.546 -0.2219 -3.1696  1.6646
 4707TIP3   OH214126   3.149   4.949   3.221 -0.6165 -0.4916 -0.4574
 4707TIP3    H114127   3.215   5.018   3.226 -2.1718  1.2951 -2.9353
 4707TIP3    H214128   3.147   4.913   3.310  1.9702  0.9539  0.3089
 4708TIP3   OH214129   2.843   4.653   0.561  0.5438 -0.0220 -0.1763
 4708TIP3    H114130   2.783   4.643   0.488 -1.3408  0.3159  1.2524
 4708TIP3    H214131   2.873   4.744   0.556 -0.5374  0.3639  0.1452
 4709TIP3   OH214132   3.969   5.181   4.040 -0.0324  0.3090  0.5092
 4709TIP3    H114133   3.917   5.218   4.111 -1.0549  1.6826 -0.8692
 4709TIP3    H214134   4.054   5.225   4.048  0.4239 -0.7374  1.7965
 4710TIP3   OH214135   2.629   2.893   3.130  0.0294 -0.2037  0.3590
 4710TIP3    H114136   2.613   2.938   3.213  0.2073  1.9095 -0.6775
 4710TIP3    H214137   2.722   2.909   3.112 -0.2754  0.4583 -0.8025
 4711TIP3   OH214138   1.794   5.748   3.787 -0.0200  0.0626 -0.0364
 4711TIP3    H114139   1.878   5.792   3.803  0.1090 -0.2001  0.0036
 4711TIP3    H214140   1.736   5.819   3.757 -0.0104  0.3979  0.7140
 4712TIP3   OH214141   0.404   2.716   4.253 -0.3124 -0.4799  0.4093
 4712TIP3    H114142   0.421   2.623   4.237  0.4547 -0.4498  0.9768
 4712TIP3    H214143   0.319   2.732   4.214 -0.3766 -1.3871  0.1557
 4713TIP3   OH214144   1.316   1.902   1.209  0.5387 -0.3193 -0.5286
 4713TIP3    H114145   1.388   1.874   1.266  1.3041  1.9140 -0.3128
 4713TIP3    H214146   1.288   1.986   1.246  0.5579  0.8396 -2.9762
 4714TIP3   OH214147   5.356   3.076   4.402 -0.1653 -0.9320 -0.3977
 4714TIP3    H114148   5.351   3.078   4.307 -0.0319 -0.6792 -0.4017
 4714TIP3    H214149   5.345   3.168   4.428 -0.0889 -0.9852 -0.1783
 4715TIP3   OH214150   3.627   2.254   0.052  0.0301  0.1847  0.1872
 4715TIP3    H114151   3.637   2.290  -0.036  1.6705  1.2577  0.7599
 4715TIP3    H214152   3.715   2.259   0.090 -0.4668 -1.0390  1.6057
 4716TIP3   OH214153   1.261   1.371   3.880 -0.1404  0.3020  0.0662
 4716TIP3    H114154   1.316   1.300   3.912 -2.2055 -1.1064  0.6627
 4716TIP3    H214155   1.171   1.343   3.898 -1.1179  2.2794 -1.2957
 4717TIP3   OH214156   5.044   0.474   2.214  0.6044 -0.2706 -0.0733
 4717TIP3    H114157   5.136   0.449   2.212  0.5851 -0.5999  1.3930
 4717TIP3    H214158   5.006   0.433   2.136  1.3101 -1.8896  0.3767
 4718TIP3   OH214159   3.229   5.960   4.200  0.1364  0.3436  0.0163
 4718TIP3    H114160   3.289   5.920   4.263 -0.6284 -0.2628  0.3697
 4718TIP3    H214161   3.172   6.016   4.254  1.0811  1.8177 -0.4460
 4719TIP3   OH214162   5.522   3.500   3.913 -0.0938 -0.0991  0.2137
 4719TIP3    H114163   5.582   3.532   3.981  0.0076  0.0787  0.0412
 4719TIP3    H214164   5.479   3.579   3.880 -0.8966 -0.2870  0.7822
 4720TIP3   OH214165   6.189   2.068   4.377 -0.4108  0.6560  0.1378
 4720TIP3    H114166   6.217   2.127   4.307  0.0216  1.1731  0.7351
 4720TIP3    H214167   6.165   1.987   4.332  0.5682  0.7289 -0.5425
 4721TIP3   OH214168   1.129   4.257   3.434 -0.4344 -0.2275  0.3749
 4721TIP3    H114169   1.067   4.245   3.361 -1.3046  0.0149  1.0486
 4721TIP3    H214170   1.215   4.258   3.392 -0.8668 -0.8040 -0.5678
 4722TIP3   OH214171   1.631   4.912   0.330  0.2167  0.3187  0.4676
 4722TIP3    H114172   1.544   4.910   0.370  0.3365  0.0839  0.7191
 4722TIP3    H214173   1.647   5.005   0.311 -1.0878  0.1360 -1.7908
 4723TIP3   OH214174   4.051   4.126   3.879 -0.7106  0.0933 -0.3273
 4723TIP3    H114175   4.110   4.134   3.953 -0.9853 -1.3092  0.0739
 4723TIP3    H214176   4.016   4.214   3.867 -1.1515  0.2357  1.6315
 4724TIP3   OH214177   4.558   0.735   2.667  0.8085 -0.0006  0.6068
 4724TIP3    H114178   4.478   0.690   2.696 -0.5615  1.8081 -0.1873
 4724TIP3    H214179   4.597   0.675   2.603 -1.9350  0.5572 -1.8160
 4725TIP3   OH214180   2.400   4.158   1.262  0.0814 -0.6107  0.3928
 4725TIP3    H114181   2.454   4.108   1.201  1.5196  1.3792 -0.0743
 4725TIP3    H214182   2.421   4.249   1.244 -1.4756  0.1611  2.0637
 4726TIP3   OH214183   2.297   4.959   3.110  0.1718 -0.0514  0.9838
 4726TIP3    H114184   2.293   4.954   3.206 -0.2597  1.0277  1.0365
 4726TIP3    H214185   2.258   5.044   3.089 -1.1458 -0.9237 -0.2551
 4727TIP3   OH214186   0.865   1.764   4.724  0.5219 -0.0536  0.0008
 4727TIP3    H114187   0.933   1.701   4.700  1.5621  1.3260 -0.7454
 4727TIP3    H214188   0.800   1.756   4.654  2.4043  2.2452 -2.1771
 4728TIP3   OH214189   0.870   2.345   1.274 -0.0132  0.3221  0.6575
 4728TIP3    H114190   0.798   2.408   1.266  0.8812  1.2634 -0.1413
 4728TIP3    H214191   0.862   2.311   1.364 -1.7870 -0.0290  0.4026
 4729TIP3   OH214192   3.910   5.265   0.355  0.6030 -0.0456 -0.1095
 4729TIP3    H114193   3.840   5.255   0.420  2.0029  0.5606  1.5867
 4729TIP3    H214194   3.886   5.344   0.307 -0.3376 -0.3597 -0.1794
 4730TIP3   OH214195   1.879   4.742   2.924 -0.3426  0.1033 -0.0339
 4730TIP3    H114196   1.897   4.747   3.018  0.3604  0.5922 -0.1806
 4730TIP3    H214197   1.918   4.822   2.889 -1.1589  0.2268 -0.6582
 4731TIP3   OH214198   5.151   3.663   2.898 -0.1578 -0.0839 -0.1003
 4731TIP3    H114199   5.221   3.695   2.955 -2.2439  1.0683  1.9617
 4731TIP3    H214200   5.169   3.706   2.813  1.7466 -0.0445  0.2733
 4732TIP3   OH214201   1.891   2.935   4.347 -0.0290  0.1582 -0.2688
 4732TIP3    H114202   1.932   2.998   4.407 -1.4488  0.7584  0.1178
 4732TIP3    H214203   1.800   2.928   4.379 -0.4081 -0.6285 -1.4767
 4733TIP3   OH214204   0.867   1.129   3.474 -0.7142 -0.3020 -0.2013
 4733TIP3    H114205   0.897   1.191   3.540 -3.6780  1.3098 -0.1876
 4733TIP3    H214206   0.947   1.089   3.440  1.0351  0.2719  2.8809
 4734TIP3   OH214207   0.318   3.989   1.079  0.0286 -0.1728  0.1765
 4734TIP3    H114208   0.402   3.990   1.124  0.5186  0.4542 -0.7074
 4734TIP3    H214209   0.258   4.031   1.140  0.5216  0.0475  0.5211
 4735TIP3   OH214210   5.751   1.404   3.863 -0.3521 -0.8442  0.0854
 4735TIP3    H114211   5.696   1.408   3.941  0.7107 -0.5231  0.8306
 4735TIP3    H214212   5.803   1.325   3.874  0.0732 -0.5950 -0.1126
 4736TIP3   OH214213   5.528   3.641   0.373 -0.6721 -0.1108  0.0768
 4736TIP3    H114214   5.519   3.706   0.443 -0.3115 -0.5100  0.4963
 4736TIP3    H214215   5.517   3.556   0.416  0.1546 -0.3919 -0.2389
 4737TIP3   OH214216   2.420   1.262   3.365 -0.4394 -0.7690  0.6878
 4737TIP3    H114217   2.428   1.336   3.305  0.0254 -0.6809  0.8541
 4737TIP3    H214218   2.505   1.257   3.409  0.5491 -3.0689 -1.2210
 4738TIP3   OH214219   2.177   0.009   1.177 -0.2926 -0.0077 -0.4695
 4738TIP3    H114220   2.220   0.058   1.107 -0.9157 -0.0253 -0.8726
 4738TIP3    H214221   2.245  -0.050   1.210  1.0321  2.2491  1.1791
 4739TIP3   OH214222   2.784   1.511   0.279 -0.0776  0.6866  0.2789
 4739TIP3    H114223   2.753   1.574   0.344  1.1100  0.1847  1.3653
 4739TIP3    H214224   2.810   1.435   0.329 -1.0124 -0.5275 -0.9788
 4740TIP3   OH214225   5.265   5.429   3.863  0.2682 -0.4424 -0.5727
 4740TIP3    H114226   5.267   5.471   3.777  1.8249 -0.3432 -0.5191
 4740TIP3    H214227   5.175   5.400   3.873  0.1336 -0.7802 -2.3915
 4741TIP3   OH214228   4.535   0.824   2.284 -0.2068  0.3621  0.7010
 4741TIP3    H114229   4.504   0.764   2.217  1.0321 -0.3743  0.7739
 4741TIP3    H214230   4.619   0.789   2.313  1.1878  2.7666 -0.1253
 4742TIP3   OH214231   4.910   0.693   3.645 -0.0150  0.2169  0.3453
 4742TIP3    H114232   4.940   0.654   3.562 -1.1469  0.7238 -0.3260
 4742TIP3    H214233   4.815   0.689   3.640 -0.1021 -0.0661  1.8057
 4743TIP3   OH214234   4.902   0.211   1.383  0.2206 -0.4688  0.4020
 4743TIP3    H114235   4.846   0.182   1.454 -0.8712 -2.0553 -1.0199
 4743TIP3    H214236   4.991   0.202   1.418 -0.3096 -0.3442  1.8452
 4744TIP3   OH214237   1.365   2.288   3.046 -0.3504 -0.4093 -0.4486
 4744TIP3    H114238   1.345   2.202   3.009 -1.1482 -0.5191  0.2010
 4744TIP3    H214239   1.324   2.349   2.985 -3.5776 -0.6478  1.2221
 4745TIP3   OH214240   1.660   0.319   2.236  0.5051  0.3525  0.2902
 4745TIP3    H114241   1.677   0.293   2.146  0.6426  1.9362 -0.1514
 4745TIP3    H214242   1.576   0.276   2.257 -0.0445  0.7779 -0.9305
 4746TIP3   OH214243   2.137   1.050   0.233  0.0958 -0.9043  0.1845
 4746TIP3    H114244   2.046   1.061   0.261 -0.6321 -1.9016 -1.6591
 4746TIP3    H214245   2.158   1.129   0.185 -0.3823 -1.3817 -0.8341
 4747TIP3   OH214246   1.678   0.667   0.091  0.4165  0.0861  0.3569
 4747TIP3    H114247   1.594   0.661   0.045  0.0057  1.1439  0.9470
 4747TIP3    H214248   1.744   0.661   0.022 -0.1293 -0.8346 -0.1017
 4748TIP3   OH214249   5.587   0.029   1.070 -0.4237 -0.6975  0.0713
 4748TIP3    H114250   5.649   0.050   1.140 -0.2923 -2.5868  0.5644
 4748TIP3    H214251   5.502   0.056   1.104 -0.0600  0.8088 -0.1313
 4749TIP3   OH214252   5.688   0.492   3.433  0.3272  0.1104 -0.2206
 4749TIP3    H114253   5.755   0.453   3.376 -0.1061  0.2356 -0.8259
 4749TIP3    H214254   5.738   0.538   3.501  0.8590  0.4891 -0.8589
 4750TIP3   OH214255   4.626   4.097   3.106  0.0019  0.7553  0.1219
 4750TIP3    H114256   4.671   4.053   3.034  0.9588  0.2312  1.0179
 4750TIP3    H214257   4.695   4.149   3.149 -0.3052  0.2442  1.2804
 4751TIP3   OH214258   3.661   5.583   2.782 -0.2863  0.7228  0.2354
 4751TIP3    H114259   3.748   5.567   2.745  0.0077  1.7005  0.4645
 4751TIP3    H214260   3.629   5.660   2.735 -1.3012  0.0049 -0.2807
 4752TIP3   OH214261   0.807   0.667   1.833 -0.2582  0.4309 -0.0375
 4752TIP3    H114262   0.808   0.692   1.925 -3.2571 -0.5388  0.3461
 4752TIP3    H214263   0.796   0.750   1.786  1.7169  0.9808  0.3721
 4753TIP3   OH214264   4.860   4.555   2.101  0.5379  0.3320 -0.1089
 4753TIP3    H114265   4.901   4.641   2.100  2.3923 -0.4986  0.1184
 4753TIP3    H214266   4.910   4.505   2.166  0.5387 -1.3653 -1.3300
 4754TIP3   OH214267   6.069   5.492   0.139 -0.0247  0.3036  0.6802
 4754TIP3    H114268   6.156   5.456   0.122  0.1337  0.8249  0.3741
 4754TIP3    H214269   6.081   5.548   0.215 -0.0829  0.4175  0.6051
 4755TIP3   OH214270   0.642   3.510   2.975  0.2093  0.0221  0.0422
 4755TIP3    H114271   0.704   3.552   3.035 -0.7915 -1.1266  1.9903
 4755TIP3    H214272   0.560   3.504   3.025 -0.7251 -0.8797 -1.5056
 4756TIP3   OH214273   4.089   1.932   0.793  0.3743  0.4426 -0.5284
 4756TIP3    H114274   4.060   1.975   0.873  0.0984  1.7328 -1.2889
 4756TIP3    H214275   4.161   1.876   0.820 -0.6295 -0.2314  0.8478
 4757TIP3   OH214276   1.556   5.094   3.596  0.0222  0.3710  0.0164
 4757TIP3    H114277   1.515   5.171   3.636 -0.1706  0.8824 -1.1308
 4757TIP3    H214278   1.625   5.129   3.540 -1.8136 -0.0111 -2.6818
 4758TIP3   OH214279   3.603   4.234   4.161  0.1740  0.1643 -0.0852
 4758TIP3    H114280   3.562   4.319   4.143  0.5542  0.0979 -1.3283
 4758TIP3    H214281   3.534   4.170   4.142 -0.7712  0.1951  2.7027
 4759TIP3   OH214282   0.673   0.436   4.196  0.6117 -0.4343  0.4104
 4759TIP3    H114283   0.664   0.516   4.143  0.9740  0.2511  1.3640
 4759TIP3    H214284   0.701   0.370   4.133 -0.9297 -0.1478 -0.6504
 4760TIP3   OH214285   2.588   5.485   1.436 -0.0909 -0.3242  0.2449
 4760TIP3    H114286   2.572   5.448   1.523  2.5152  0.3833  1.1080
 4760TIP3    H214287   2.532   5.563   1.432 -0.5200 -0.5738  1.1273
 4761TIP3   OH214288   3.139   4.602   2.084  0.7992 -0.5805  0.2064
 4761TIP3    H114289   3.065   4.663   2.075 -0.5798 -1.9212  1.8295
 4761TIP3    H214290   3.135   4.548   2.005  0.8920  0.1876 -0.3421
 4762TIP3   OH214291   0.334   5.023   1.081  0.2086 -0.7298 -0.2362
 4762TIP3    H114292   0.304   5.045   0.993  0.4647 -0.6892 -0.3148
 4762TIP3    H214293   0.348   4.928   1.079 -0.9420 -0.9239  0.1172
 4763TIP3   OH214294   6.237   1.806   3.061 -0.0496  0.9138  0.2818
 4763TIP3    H114295   6.170   1.870   3.086  0.4927  0.9787  1.6398
 4763TIP3    H214296   6.319   1.854   3.064  0.6544 -0.2078  3.3413
 4764TIP3   OH214297   2.325   3.737   3.512  0.3082 -0.0734 -0.0321
 4764TIP3    H114298   2.303   3.685   3.590  0.5227 -0.0091  0.0721
 4764TIP3    H214299   2.261   3.808   3.511  0.8902  0.4815  0.6295
 4765TIP3   OH214300   0.622   3.545   4.371 -0.4135 -0.2804 -0.1685
 4765TIP3    H114301   0.694   3.574   4.427  0.4136 -1.1287 -0.7325
 4765TIP3    H214302   0.638   3.589   4.287  0.0184 -1.1910 -0.5837
 4766TIP3   OH214303   0.121   3.912   4.259  0.4228 -0.3890  0.1073
 4766TIP3    H114304   0.216   3.917   4.245  0.1910  0.6300 -1.4445
 4766TIP3    H214305   0.098   3.999   4.292  0.1888 -1.0746  1.8144
 4767TIP3   OH214306   6.265   0.592   4.968 -0.0490 -0.7808  0.3249
 4767TIP3    H114307   6.354   0.564   4.989 -0.5342 -1.0904  2.2397
 4767TIP3    H214308   6.212   0.513   4.978 -0.8203 -0.1526  1.4388
 4768TIP3   OH214309   1.799   0.774   4.541 -0.4815 -0.0648  0.4380
 4768TIP3    H114310   1.821   0.681   4.544 -2.3704 -0.5361  1.6505
 4768TIP3    H214311   1.737   0.782   4.469 -0.1653  0.2973  0.2035
 4769TIP3   OH214312   3.224   4.243   0.288  0.2384 -0.4448 -0.0865
 4769TIP3    H114313   3.208   4.168   0.345  0.2965 -1.8255 -1.7995
 4769TIP3    H214314   3.307   4.222   0.244  0.1602  0.5302 -0.7250
 4770TIP3   OH214315   2.032   2.472   0.785  0.2504 -0.4945  0.5893
 4770TIP3    H114316   1.962   2.446   0.845 -0.1037 -0.9307 -0.0045
 4770TIP3    H214317   1.986   2.514   0.713  0.7053  0.3753  0.7998
 4771TIP3   OH214318   3.411   1.592   1.724  0.3675  0.3356 -0.1707
 4771TIP3    H114319   3.442   1.573   1.635  1.3278 -2.5413  0.6813
 4771TIP3    H214320   3.323   1.557   1.727  0.5029  0.0154  0.1346
 4772TIP3   OH214321   3.999   1.859   2.205 -0.8552 -0.0144  0.4044
 4772TIP3    H114322   3.911   1.896   2.194 -0.8183 -0.2325 -0.7691
 4772TIP3    H214323   4.031   1.897   2.287 -1.5120  1.1628  0.1439
 4773TIP3   OH214324   0.242   1.194   1.090 -0.1685 -0.0480 -0.5209
 4773TIP3    H114325   0.269   1.103   1.103 -0.6318 -0.0326  0.6761
 4773TIP3    H214326   0.281   1.242   1.163  0.6332  0.8496 -1.5155
 4774TIP3   OH214327   4.316   1.320   1.951 -0.7429  0.0277  0.2049
 4774TIP3    H114328   4.378   1.279   2.012 -0.9693 -0.0187  0.4040
 4774TIP3    H214329   4.318   1.264   1.874 -0.5719  0.0013  0.2266
 4775TIP3   OH214330   2.873   2.350   3.688  0.2798 -0.2475 -0.2854
 4775TIP3    H114331   2.842   2.260   3.684 -0.4118 -0.1074  1.1094
 4775TIP3    H214332   2.864   2.374   3.781  0.9921  1.0634 -0.5322
 4776TIP3   OH214333   5.298   4.399   4.531 -0.1050 -0.4468 -0.2150
 4776TIP3    H114334   5.291   4.414   4.625 -1.6261 -0.2328 -0.3373
 4776TIP3    H214335   5.209   4.411   4.498  0.2899 -1.1055 -1.6018
 4777TIP3   OH214336   2.866   2.307   0.801  0.7732 -0.1692  0.4304
 4777TIP3    H114337   2.950   2.261   0.808  0.2922 -0.9129  1.5922
 4777TIP3    H214338   2.839   2.319   0.892 -1.1427 -1.3307  0.0506
 4778TIP3   OH214339   1.691   4.600   4.118 -0.5073 -0.5052  0.2442
 4778TIP3    H114340   1.710   4.589   4.212 -2.2694  0.6842  0.7889
 4778TIP3    H214341   1.635   4.525   4.096  1.3151 -1.7612 -0.3494
 4779TIP3   OH214342   1.035   3.301   4.613 -0.7817  0.0963  0.5574
 4779TIP3    H114343   0.971   3.235   4.590  0.3382 -0.9045  0.2218
 4779TIP3    H214344   1.057   3.344   4.530  0.4883 -0.9710  0.3165
 4780TIP3   OH214345   4.800   0.033   2.910  0.1373  0.3540  0.1484
 4780TIP3    H114346   4.840   0.115   2.880  2.8674 -1.2986 -1.2193
 4780TIP3    H214347   4.713   0.032   2.870  0.5769  1.9711 -0.9242
 4781TIP3   OH214348   5.609   4.485   1.038  0.1220 -0.0178  0.1750
 4781TIP3    H114349   5.662   4.536   0.977  0.4750 -1.0691 -0.4200
 4781TIP3    H214350   5.625   4.525   1.123  2.6428 -0.8408  0.1765
 4782TIP3   OH214351   3.487   2.983   3.376 -0.7948  0.4504  0.2799
 4782TIP3    H114352   3.532   2.972   3.460  1.7713  0.7592 -0.9513
 4782TIP3    H214353   3.436   3.063   3.386 -1.3456 -0.0734  1.8512
 4783TIP3   OH214354   0.088   4.966   3.719 -0.5098 -0.4192  0.1762
 4783TIP3    H114355   0.094   4.994   3.811 -0.7244  1.9642 -0.4822
 4783TIP3    H214356   0.175   4.931   3.699  0.6244  2.0220  0.4298
 4784TIP3   OH214357   1.016   5.039   1.412 -0.3256 -0.8525  0.3644
 4784TIP3    H114358   0.932   5.080   1.433  0.4065  0.8227  0.1516
 4784TIP3    H214359   1.015   4.956   1.461 -0.8220  0.5254  2.8710
 4785TIP3   OH214360   1.464   2.140   5.092  0.4641 -0.1827  0.1923
 4785TIP3    H114361   1.490   2.172   5.178  0.9313  0.5217 -0.2005
 4785TIP3    H214362   1.504   2.053   5.085 -0.4492 -0.6919  1.0959
 4786TIP3   OH214363   4.252   4.103   3.355  0.0853 -0.2604  0.5418
 4786TIP3    H114364   4.269   4.191   3.388  0.6387 -0.5810  1.1199
 4786TIP3    H214365   4.257   4.112   3.260 -3.9925  1.2196  0.2640
 4787TIP3   OH214366   4.657   3.135   5.001  0.4314  0.1114  0.2338
 4787TIP3    H114367   4.722   3.136   5.070  0.1338  0.7790  0.5142
 4787TIP3    H214368   4.627   3.225   4.994 -0.8220 -0.2589  0.4625
 4788TIP3   OH214369   2.019   5.583   2.295 -0.4111  0.0428 -0.0576
 4788TIP3    H114370   1.968   5.663   2.283 -4.3376 -2.2284  0.0823
 4788TIP3    H214371   2.084   5.585   2.224  1.1856  4.2334  1.2056
 4789TIP3   OH214372   0.320   1.494   3.085 -0.1686 -0.0505  0.1494
 4789TIP3    H114373   0.290   1.454   3.004 -2.0556  0.4176  0.5570
 4789TIP3    H214374   0.393   1.550   3.059 -0.5170 -0.1799 -1.1671
 4790TIP3   OH214375   1.712   0.307   1.027 -0.1630 -0.0061 -0.0746
 4790TIP3    H114376   1.619   0.324   1.011  0.3463  2.8820 -0.6197
 4790TIP3    H214377   1.720   0.310   1.123 -0.3885  1.9174 -0.0627
 4791TIP3   OH214378   2.253   3.551   4.003  0.3338  0.9412  0.2843
 4791TIP3    H114379   2.320   3.529   3.938 -0.8421 -2.8038  0.1382
 4791TIP3    H214380   2.225   3.467   4.038 -2.5289  2.5367  2.1658
 4792TIP3   OH214381   4.201   2.489   4.943 -0.0536 -0.4260 -0.1839
 4792TIP3    H114382   4.207   2.478   5.038 -1.5218 -0.4049 -0.0601
 4792TIP3    H214383   4.146   2.416   4.914  0.2491 -0.3421 -1.0002
 4793TIP3   OH214384   6.007   3.537   3.674 -0.1535  0.1728  0.1380
 4793TIP3    H114385   6.061   3.599   3.724 -0.1087  2.6197 -2.6745
 4793TIP3    H214386   5.994   3.579   3.589 -0.7162 -3.4654 -1.7811
 4794TIP3   OH214387   6.137   3.325   3.457 -1.0157  0.5452 -0.0152
 4794TIP3    H114388   6.124   3.387   3.529  0.7461  1.7731 -0.6774
 4794TIP3    H214389   6.231   3.305   3.459 -0.9982  0.2690 -1.6920
 4795TIP3   OH214390   3.117   0.456   4.091  0.3817 -0.3137 -0.1812
 4795TIP3    H114391   3.079   0.380   4.047 -1.7598  1.6301 -1.9174
 4795TIP3    H214392   3.068   0.463   4.173  0.4683 -0.6808 -0.0962
 4796TIP3   OH214393   3.443   1.158   0.615 -0.6814 -0.1602 -0.4296
 4796TIP3    H114394   3.430   1.250   0.636 -0.7198 -0.7305  2.4560
 4796TIP3    H214395   3.513   1.158   0.550  1.0296  1.8224  1.2725
 4797TIP3   OH214396   4.056   2.416   1.773  0.1677  0.0322 -0.1482
 4797TIP3    H114397   4.028   2.325   1.774  0.6509 -0.1781 -2.2198
 4797TIP3    H214398   4.150   2.413   1.755  0.4164  0.9222  0.8717
 4798TIP3   OH214399   3.930   0.627   3.593  0.1193  0.0798 -0.1430
 4798TIP3    H114400   3.983   0.656   3.519  1.1365  1.6807  1.1567
 4798TIP3    H214401   3.867   0.697   3.606 -0.1953 -0.2954  0.3702
 4799TIP3   OH214402   3.416   3.428   1.351 -0.7720  0.4333 -0.0333
 4799TIP3    H114403   3.429   3.375   1.272 -1.6688 -0.1074  0.1741
 4799TIP3    H214404   3.337   3.478   1.334  0.5590  2.4613 -0.6119
 4800TIP3   OH214405  -0.016   4.917   4.973  0.1243 -0.4449 -0.3760
 4800TIP3    H114406   0.005   4.880   4.888 -0.1800  0.9612 -1.0839
 4800TIP3    H214407   0.067   4.919   5.020  0.8058  1.1481 -1.5907
 4801TIP3   OH214408   2.139   0.130   0.572  0.3267 -0.1676  0.4344
 4801TIP3    H114409   2.142   0.220   0.539  0.9622 -0.6260 -0.8199
 4801TIP3    H214410   2.069   0.131   0.638 -0.9553  0.8195 -0.8726
 4802TIP3   OH214411   3.589   0.090   4.145  0.0003  0.5213  0.5666
 4802TIP3    H114412   3.682   0.104   4.129 -0.5196  1.5349 -2.0954
 4802TIP3    H214413   3.568   0.011   4.095 -0.3895 -0.4900  2.2148
 4803TIP3   OH214414   2.979   4.904   1.032 -0.1491  0.4281 -0.6873
 4803TIP3    H114415   2.903   4.881   0.978 -0.4106 -2.1133  0.6127
 4803TIP3    H214416   3.049   4.846   1.001 -0.0342 -0.3671  0.9511
 4804TIP3   OH214417   0.254   4.677   5.148  0.2021  0.3733  0.0168
 4804TIP3    H114418   0.191   4.664   5.219 -0.5679 -0.9667 -0.8603
 4804TIP3    H214419   0.231   4.762   5.110 -1.6340 -0.4138 -0.7650
 4805TIP3   OH214420   0.588   3.286   4.506 -0.3305 -0.0704 -0.2815
 4805TIP3    H114421   0.563   3.254   4.419  0.0175  1.7669 -1.1002
 4805TIP3    H214422   0.583   3.381   4.499 -0.2891  0.1207  1.7285
 4806TIP3   OH214423   0.871   4.090   2.520 -0.7295  0.4962 -0.2421
 4806TIP3    H114424   0.801   4.027   2.536 -0.5338  0.1414 -0.7630
 4806TIP3    H214425   0.917   4.056   2.444 -1.0543  1.6406 -0.9698
 4807TIP3   OH214426   1.160   5.891   3.689 -0.0632  0.3239 -0.4249
 4807TIP3    H114427   1.149   5.979   3.653  1.0784  0.5818 -0.1611
 4807TIP3    H214428   1.095   5.838   3.642 -2.1006  1.6556  0.7589
 4808TIP3   OH214429   1.759   4.650   2.376  0.3928 -0.2668  0.3234
 4808TIP3    H114430   1.700   4.636   2.302 -2.9456  2.3017  2.2163
 4808TIP3    H214431   1.764   4.565   2.420 -1.1094 -0.8091 -0.4878
 4809TIP3   OH214432   0.565   2.223   4.369 -0.1953  0.4448  0.0103
 4809TIP3    H114433   0.651   2.261   4.386 -0.0466  0.9700 -1.6813
 4809TIP3    H214434   0.584   2.133   4.340 -0.2203  0.5137 -0.2230
 4810TIP3   OH214435   3.471   3.824   3.111 -0.2060 -0.1240  0.4713
 4810TIP3    H114436   3.416   3.747   3.095 -1.6330  1.0462 -0.4378
 4810TIP3    H214437   3.473   3.870   3.028 -2.2298  2.6002  1.7708
 4811TIP3   OH214438   2.041   4.981   1.471 -0.0450 -0.1278 -1.0487
 4811TIP3    H114439   2.087   5.065   1.464 -0.4031  0.1052 -0.6190
 4811TIP3    H214440   2.111   4.916   1.468  0.4129  0.2475  0.3078
 4812TIP3   OH214441   3.272   2.754   2.734  0.5572 -0.1659 -0.7465
 4812TIP3    H114442   3.249   2.846   2.728  0.5318 -0.1582 -0.5331
 4812TIP3    H214443   3.230   2.714   2.658 -1.5972 -0.4470  0.5271
 4813TIP3   OH214444   5.032   2.809   1.719  0.2155 -0.0030 -0.5669
 4813TIP3    H114445   4.996   2.721   1.728 -1.9253  0.9497  1.3369
 4813TIP3    H214446   5.101   2.813   1.785 -0.3294 -0.0000  0.0190
 4814TIP3   OH214447   4.248   2.352   0.473  0.0274  0.1965  0.3890
 4814TIP3    H114448   4.246   2.318   0.563  0.6103 -1.8415 -0.3040
 4814TIP3    H214449   4.328   2.404   0.469  0.0902  0.1640  0.9961
 4815TIP3   OH214450   5.555   5.116   2.416  0.2600 -0.3330 -0.0458
 4815TIP3    H114451   5.555   5.210   2.398  0.0996 -0.7345 -2.5017
 4815TIP3    H214452   5.646   5.096   2.437 -0.0660  0.6627  2.8209
 4816TIP3   OH214453   6.075   0.336   0.915  0.3186 -0.0434  0.2210
 4816TIP3    H114454   6.148   0.275   0.904  0.1049 -0.2804  0.1073
 4816TIP3    H214455   6.003   0.282   0.947 -0.4031 -0.2122 -1.5500
 4817TIP3   OH214456   3.414   1.702   3.246 -0.1599 -0.2934 -0.4022
 4817TIP3    H114457   3.447   1.784   3.282 -2.3052 -0.1545  1.4571
 4817TIP3    H214458   3.471   1.684   3.171  1.1971  2.1739 -0.0650
 4818TIP3   OH214459   2.145   2.788   3.918 -0.1373  1.0636  0.5360
 4818TIP3    H114460   2.149   2.702   3.961 -0.7792  0.7162 -0.0838
 4818TIP3    H214461   2.171   2.850   3.987 -2.3423  0.6553  1.8399
 4819TIP3   OH214462   2.136   2.973   3.042  0.6075 -0.0898 -0.5452
 4819TIP3    H114463   2.043   2.948   3.039  0.8714 -1.1426 -0.3949
 4819TIP3    H214464   2.136   3.059   3.083 -0.2394 -0.5158  0.4187
 4820TIP3   OH214465   0.153   1.062   3.573 -0.3239  0.1647  0.6063
 4820TIP3    H114466   0.121   1.142   3.531 -0.9581  0.3559  1.4200
 4820TIP3    H214467   0.214   1.093   3.640  0.4608 -0.1208  0.0367
 4821TIP3   OH214468   4.628   1.200   0.102  0.0198  0.6123  0.0571
 4821TIP3    H114469   4.607   1.125   0.045  1.0108  0.2483  0.1611
 4821TIP3    H214470   4.597   1.276   0.053 -0.8728  0.1515 -0.1141
 4822TIP3   OH214471   1.742   5.779   1.670  0.4351 -0.1903 -0.1168
 4822TIP3    H114472   1.797   5.712   1.630  0.6978  0.2015 -0.4175
 4822TIP3    H214473   1.714   5.834   1.597 -1.5289 -1.2019 -0.1836
 4823TIP3   OH214474   2.552   2.549   2.641  0.2887 -0.0989  0.1768
 4823TIP3    H114475   2.513   2.632   2.671  1.3067  0.7274 -0.6844
 4823TIP3    H214476   2.493   2.482   2.674 -1.0107  1.0176  0.2386
 4824TIP3   OH214477   1.875   1.668   5.169 -0.3621  0.1916  0.3868
 4824TIP3    H114478   1.782   1.648   5.180 -0.2425 -1.2654 -0.8933
 4824TIP3    H214479   1.888   1.670   5.074  1.2282 -1.3378  0.5155
 4825TIP3   OH214480   5.894   5.931   3.739 -0.3228 -0.3951 -0.2667
 4825TIP3    H114481   5.799   5.942   3.741 -0.1621  1.3449  0.5813
 4825TIP3    H214482   5.917   5.908   3.829  0.1416  0.2283 -0.2200
 4826TIP3   OH214483   2.103   4.042   0.293  0.0788  0.0890  0.2226
 4826TIP3    H114484   2.081   3.958   0.334  1.7945  0.9515  3.2233
 4826TIP3    H214485   2.030   4.060   0.234 -0.9059 -2.9114  0.3532
 4827TIP3   OH214486   1.687   2.681   0.960  0.5663  0.8102 -0.7846
 4827TIP3    H114487   1.608   2.714   0.918 -1.0084  2.3099  2.9239
 4827TIP3    H214488   1.680   2.586   0.955  0.5343  0.8691 -3.7039
 4828TIP3   OH214489   2.395   0.439   3.965  0.0061 -0.3360 -0.1081
 4828TIP3    H114490   2.455   0.370   3.993 -2.3761 -2.8441 -0.6892
 4828TIP3    H214491   2.388   0.429   3.870 -0.7996  0.3291 -0.1383
 4829TIP3   OH214492   4.876   1.061   3.177 -0.0507  0.0963  0.4993
 4829TIP3    H114493   4.901   1.046   3.268 -1.3218  0.4009  0.9230
 4829TIP3    H214494   4.823   1.141   3.180  2.4514  1.9502 -0.9642
 4830TIP3   OH214495   2.805   0.359   1.359 -0.7547  0.0082 -0.5536
 4830TIP3    H114496   2.870   0.426   1.339 -0.4355 -0.7514 -2.2028
 4830TIP3    H214497   2.777   0.379   1.448 -0.6845  2.3294 -0.9985
 4831TIP3   OH214498   3.731   0.953   1.456 -0.1221 -0.6671  0.5404
 4831TIP3    H114499   3.749   0.870   1.500 -1.4867 -1.5720 -0.5291
 4831TIP3    H214500   3.635   0.957   1.450 -0.0209 -0.1789 -1.5357
 4832TIP3   OH214501   1.001   2.551   4.353 -0.4471  0.1382 -0.1025
 4832TIP3    H114502   1.009   2.629   4.408 -1.0702 -0.4701  0.8814
 4832TIP3    H214503   0.921   2.509   4.383  0.6775 -1.7111  0.4740
 4833TIP3   OH214504   5.692   2.459   0.396  0.1784 -0.5173 -0.2768
 4833TIP3    H114505   5.738   2.376   0.408 -0.5827 -0.7943  0.9803
 4833TIP3    H214506   5.601   2.439   0.420  0.1272  0.8419  0.7831
 4834TIP3   OH214507   1.025   3.076   2.791 -1.1689 -0.1758 -0.0939
 4834TIP3    H114508   0.977   3.148   2.832 -1.4173 -0.1746 -0.3889
 4834TIP3    H214509   1.113   3.081   2.830 -0.4829  1.6728 -1.7061
 4835TIP3   OH214510   3.096   4.821   3.460  0.1532  0.0991 -0.0401
 4835TIP3    H114511   3.058   4.836   3.547 -0.0084 -0.2459 -0.0494
 4835TIP3    H214512   3.112   4.727   3.457  1.3139  0.2871  0.0836
 4836TIP3   OH214513   1.388   2.656   0.523 -0.3790 -0.5007  0.1230
 4836TIP3    H114514   1.346   2.625   0.604  1.6202 -3.8811  0.0708
 4836TIP3    H214515   1.337   2.616   0.453  0.2962 -0.9772 -0.1042
 4837TIP3   OH214516   2.181   3.323   2.683 -0.4956 -0.0051 -0.0384
 4837TIP3    H114517   2.195   3.307   2.776 -2.9817 -0.5184  0.3000
 4837TIP3    H214518   2.120   3.255   2.655 -1.1154  1.1512 -1.6486
 4838TIP3   OH214519   2.704   0.130   0.036  0.5446  0.8912  0.0653
 4838TIP3    H114520   2.701   0.034   0.046 -0.8256  1.0353  1.4115
 4838TIP3    H214521   2.709   0.163   0.125 -0.0143  2.0944 -0.3382
 4839TIP3   OH214522   1.844   0.880   2.560  0.1939  0.1716 -0.4391
 4839TIP3    H114523   1.908   0.951   2.567  0.2020  0.2627 -1.3364
 4839TIP3    H214524   1.828   0.854   2.650 -0.6368  2.0460  0.0057
 4840TIP3   OH214525   2.680   5.744   2.755  0.1989  0.4404 -0.0465
 4840TIP3    H114526   2.656   5.808   2.688 -2.7028 -1.5943 -1.1586
 4840TIP3    H214527   2.610   5.751   2.820  2.3172  1.5060  2.2415
 4841TIP3   OH214528   0.612   2.606   2.486 -0.2653 -0.2668  0.2830
 4841TIP3    H114529   0.609   2.557   2.405 -1.7599 -0.5419  0.4821
 4841TIP3    H214530   0.696   2.582   2.526 -0.1304 -1.1653 -0.5245
 4842TIP3   OH214531   0.195   2.843   3.522 -0.5719  0.0328  0.2822
 4842TIP3    H114532   0.249   2.764   3.523  0.9414  1.0078  1.7625
 4842TIP3    H214533   0.217   2.887   3.604 -1.6790  1.7818 -0.3172
 4843TIP3   OH214534   1.821   5.476   2.454 -0.5259  0.0313  0.3863
 4843TIP3    H114535   1.889   5.502   2.391  0.7622  0.1920  1.7823
 4843TIP3    H214536   1.861   5.405   2.504 -2.3649 -1.6635 -0.4284
 4844TIP3   OH214537   1.059   5.391   2.064  0.1910 -0.1680 -0.2921
 4844TIP3    H114538   1.017   5.471   2.032 -0.1117 -0.0632  0.3565
 4844TIP3    H214539   1.057   5.399   2.159  2.3531  0.1873 -0.2354
 4845TIP3   OH214540   4.458   5.087   3.571  0.0186 -0.3503  0.7053
 4845TIP3    H114541   4.467   5.011   3.514  0.1877  0.8476 -0.9260
 4845TIP3    H214542   4.365   5.111   3.565  0.5680  1.5260 -1.4858
 4846TIP3   OH214543   2.412   5.292   3.320 -0.5181 -0.0218 -0.0255
 4846TIP3    H114544   2.374   5.369   3.278 -1.4836  0.6406  1.9496
 4846TIP3    H214545   2.339   5.253   3.369  0.0232 -2.0497 -0.7293
 4847TIP3   OH214546   5.756   3.808   4.920 -0.0053 -0.2826 -0.2492
 4847TIP3    H114547   5.789   3.804   5.010  4.1030  0.4703 -1.4883
 4847TIP3    H214548   5.691   3.878   4.920 -0.2132 -0.4026  2.1077
 4848TIP3   OH214549   5.767   4.209   2.122  0.1929 -0.4186 -0.0889
 4848TIP3    H114550   5.834   4.167   2.068  0.6342  0.8635 -0.5648
 4848TIP3    H214551   5.804   4.294   2.146 -0.2319 -0.7191  1.7991
 4849TIP3   OH214552   0.012   0.355   4.172 -0.0445 -0.0504 -0.1140
 4849TIP3    H114553  -0.010   0.373   4.081 -1.4292 -0.8517  0.0396
 4849TIP3    H214554   0.086   0.295   4.168 -0.5951 -0.7035 -0.7383
 4850TIP3   OH214555   2.498   3.197   0.220  0.2028  0.3549  0.0296
 4850TIP3    H114556   2.447   3.170   0.296 -0.4330 -0.4759 -0.6762
 4850TIP3    H214557   2.448   3.269   0.182  0.2279  0.3929  0.0677
 4851TIP3   OH214558   5.974   1.887   3.400 -0.2575 -0.0243 -0.2943
 4851TIP3    H114559   6.067   1.875   3.417  0.1742 -1.7288 -3.2040
 4851TIP3    H214560   5.964   1.981   3.384  0.4524  0.5545  2.1815
 4852TIP3   OH214561   1.574   4.424   3.303 -0.2350 -0.4839 -0.0486
 4852TIP3    H114562   1.558   4.518   3.294 -0.3752 -0.5512 -0.5523
 4852TIP3    H214563   1.656   4.419   3.352 -0.4499 -0.1064  0.3600
 4853TIP3   OH214564   3.675   0.164   4.543  0.3060 -0.3358  0.2066
 4853TIP3    H114565   3.641   0.079   4.514 -0.8222  0.4830 -1.0172
 4853TIP3    H214566   3.600   0.223   4.533  1.5145  1.1256 -0.5518
 4854TIP3   OH214567   0.641   4.808   0.040  0.1987 -0.0725 -0.5262
 4854TIP3    H114568   0.592   4.765   0.109  0.9565  1.2473  0.9146
 4854TIP3    H214569   0.575   4.858  -0.009 -0.3329 -0.9445 -0.7144
 4855TIP3   OH214570   3.002   0.946   2.275  0.2242  0.6340  0.4740
 4855TIP3    H114571   2.918   0.943   2.229 -0.3626 -2.1870  1.4886
 4855TIP3    H214572   2.978   0.943   2.368  1.4499  1.5424  0.8427
 4856TIP3   OH214573   3.065   0.207   4.024 -0.1004 -0.2137 -0.3362
 4856TIP3    H114574   3.161   0.198   4.018  0.0042  0.4082  0.3404
 4856TIP3    H214575   3.036   0.122   4.058  0.2031 -0.4134 -0.5641
 4857TIP3   OH214576   4.038   2.711   1.130 -0.7249 -0.3323 -0.2368
 4857TIP3    H114577   4.126   2.748   1.124 -0.7729  0.8686  3.8881
 4857TIP3    H214578   3.990   2.752   1.058  0.7706  3.2655  0.6133
 4858TIP3   OH214579   0.042   1.299   0.522  0.6782 -0.8111  0.0570
 4858TIP3    H114580   0.010   1.327   0.436  2.5191 -3.3868 -1.6211
 4858TIP3    H214581  -0.009   1.221   0.543  1.1172 -0.9348  0.6973
 4859TIP3   OH214582   1.505   0.524   0.463  0.3699  0.0044  0.2879
 4859TIP3    H114583   1.575   0.553   0.521  1.5315 -0.9047 -0.6313
 4859TIP3    H214584   1.438   0.593   0.471  1.2829  0.8087  1.2995
 4860TIP3   OH214585   3.625   1.382   0.801 -0.0498 -0.1297  0.0764
 4860TIP3    H114586   3.700   1.337   0.840  1.1823  2.2200  0.6692
 4860TIP3    H214587   3.551   1.324   0.815  1.4181 -1.9658  0.6579
 4861TIP3   OH214588   1.551   5.058   4.954  0.3550  0.2724 -0.2564
 4861TIP3    H114589   1.568   5.149   4.932  1.5627  0.2785  0.6168
 4861TIP3    H214590   1.549   5.056   5.050 -1.1895 -0.3737 -0.2684
 4862TIP3   OH214591   2.773   0.670   3.484  0.2552 -0.4054 -0.4360
 4862TIP3    H114592   2.686   0.632   3.488  0.0891 -0.0266 -0.4157
 4862TIP3    H214593   2.826   0.616   3.543  0.0333 -0.6273 -0.4394
 4863TIP3   OH214594   0.121   3.640   4.653  0.9512  0.1110  0.6480
 4863TIP3    H114595   0.148   3.572   4.592  1.6313  0.5304  0.4654
 4863TIP3    H214596   0.049   3.601   4.703  1.9208 -1.0831  1.1773
 4864TIP3   OH214597   2.319   3.405   0.129  0.2260 -0.1183 -0.1753
 4864TIP3    H114598   2.271   3.481   0.164 -1.9282 -0.8204 -1.3837
 4864TIP3    H214599   2.330   3.425   0.036  0.7212 -0.7786 -0.2642
 4865TIP3   OH214600   5.923   3.233   5.065  0.2055  0.0738 -0.2053
 4865TIP3    H114601   5.841   3.213   5.021 -0.0286  2.6163 -1.1366
 4865TIP3    H214602   5.908   3.211   5.157 -0.6518 -1.7073 -0.7365
 4866TIP3   OH214603   1.925   1.671   1.037 -0.5814 -0.4001 -0.5440
 4866TIP3    H114604   1.841   1.707   1.066 -1.9409 -1.2898 -3.0162
 4866TIP3    H214605   1.915   1.577   1.047 -0.2094 -0.5649 -1.5916
 4867TIP3   OH214606   4.746   3.836   3.707  0.4981 -0.0758  0.0552
 4867TIP3    H114607   4.782   3.832   3.796  1.8737  1.8077 -0.3582
 4867TIP3    H214608   4.691   3.914   3.707 -1.1404 -1.1857 -0.2238
 4868TIP3   OH214609   1.772   2.125   4.202 -0.0974 -0.0566  0.1434
 4868TIP3    H114610   1.845   2.121   4.140  0.5510  0.3347  0.8585
 4868TIP3    H214611   1.814   2.119   4.288 -0.8080  1.0936  0.5932
 4869TIP3   OH214612   2.829   2.556   2.621  0.0318 -0.0004  0.1622
 4869TIP3    H114613   2.861   2.489   2.682  0.7522 -0.5132 -0.7647
 4869TIP3    H214614   2.734   2.547   2.625  0.1130 -2.3457 -1.2737
 4870TIP3   OH214615   0.730   2.951   4.399 -0.1870 -0.2420  0.6578
 4870TIP3    H114616   0.644   2.930   4.434  0.7967 -1.2096  2.6740
 4870TIP3    H214617   0.726   2.925   4.307 -1.2592 -2.7530  1.3263
 4871TIP3   OH214618   1.560   2.703   4.247  0.3607 -0.4550 -0.5435
 4871TIP3    H114619   1.592   2.613   4.240  2.8383  0.3375 -0.4499
 4871TIP3    H214620   1.538   2.715   4.339 -1.3007 -1.3203 -0.7911
 4872TIP3   OH214621   6.263   0.757   3.124  0.2109 -0.3470 -0.2628
 4872TIP3    H114622   6.276   0.844   3.162  0.7191 -0.8292  0.7092
 4872TIP3    H214623   6.194   0.769   3.059  0.1726  0.7501 -0.0363
 4873TIP3   OH214624   2.797   3.495   0.061 -0.0420 -0.1910  0.3908
 4873TIP3    H114625   2.797   3.407   0.024 -0.3495 -0.1208  0.2234
 4873TIP3    H214626   2.780   3.553  -0.013  2.3018  0.2067  0.0796
 4874TIP3   OH214627   0.414   4.060   1.842  0.2515 -0.4115 -0.4008
 4874TIP3    H114628   0.379   4.033   1.927 -1.1832 -0.2807 -0.9303
 4874TIP3    H214629   0.436   3.978   1.798  0.4534 -0.5010 -0.1386
 4875TIP3   OH214630   4.232   4.259   2.229  0.4718 -0.2672  0.2021
 4875TIP3    H114631   4.205   4.251   2.321  2.2123  0.6412  0.8351
 4875TIP3    H214632   4.158   4.303   2.187  0.0032  0.1206  1.3659
 4876TIP3   OH214633   2.213   0.126   2.162 -0.3395 -0.2135 -0.3515
 4876TIP3    H114634   2.203   0.077   2.080 -0.1593  0.1597 -0.5957
 4876TIP3    H214635   2.197   0.060   2.231  0.5740 -0.7813 -0.6604
 4877TIP3   OH214636   3.082   2.257   5.062  0.7378  0.2577 -0.0152
 4877TIP3    H114637   3.091   2.201   5.139 -0.3819  0.1846  0.0752
 4877TIP3    H214638   3.171   2.288   5.045  1.2445 -0.8758  0.4362
 4878TIP3   OH214639   5.995   2.314   4.492  0.4741  0.0927  0.0815
 4878TIP3    H114640   5.932   2.253   4.455  0.6383  0.3856 -0.7045
 4878TIP3    H214641   6.080   2.273   4.477  0.6135  0.6762 -0.7980
 4879TIP3   OH214642   2.190   4.415   1.738  0.0385  0.2465 -0.0190
 4879TIP3    H114643   2.116   4.366   1.703  0.0711  0.8459 -0.9533
 4879TIP3    H214644   2.234   4.452   1.661  2.6591 -1.9014  0.3045
 4880TIP3   OH214645   1.926   2.418   4.071 -0.2748  0.5381 -0.0984
 4880TIP3    H114646   1.985   2.344   4.061 -0.5169  0.1738  1.0212
 4880TIP3    H214647   1.899   2.440   3.981 -2.1157 -2.3003 -0.3793
 4881TIP3   OH214648   4.795   5.773   0.315 -0.2489  0.1891  0.5826
 4881TIP3    H114649   4.770   5.728   0.396  0.7734  0.6084  1.1503
 4881TIP3    H214650   4.712   5.797   0.274 -0.8263 -2.1180  0.2940
 4882TIP3   OH214651   2.955   0.080   0.970 -0.1837 -0.3448 -0.2029
 4882TIP3    H114652   2.958   0.036   1.055 -0.6245 -0.2554 -0.1396
 4882TIP3    H214653   3.041   0.063   0.931  0.9034  1.5407  1.2217
 4883TIP3   OH214654   3.484   3.389   0.368 -0.3139  0.0866 -0.4464
 4883TIP3    H114655   3.407   3.423   0.323 -0.2777 -0.8219 -1.2207
 4883TIP3    H214656   3.470   3.410   0.460 -0.8770  1.0536 -0.7515
 4884TIP3   OH214657   0.987   4.539   3.134 -0.0716  0.3725  0.3482
 4884TIP3    H114658   0.894   4.562   3.127 -0.1406 -0.0757 -0.2889
 4884TIP3    H214659   0.987   4.449   3.168  0.1169  0.1969 -0.1140
 4885TIP3   OH214660   0.765   2.360   0.128 -0.0332  0.1308 -0.6192
 4885TIP3    H114661   0.729   2.293   0.185 -0.5843  0.7671 -0.1974
 4885TIP3    H214662   0.728   2.442   0.161  0.0066  0.5617 -1.5940
 4886TIP3   OH214663   6.103   2.506   3.815 -0.0241  0.0109  0.4824
 4886TIP3    H114664   6.041   2.435   3.799 -1.0796  0.7663  1.0737
 4886TIP3    H214665   6.134   2.531   3.728 -0.5438 -0.3937  0.1778
 4887TIP3   OH214666   3.928   3.409   0.282 -0.2513  0.0593  0.1880
 4887TIP3    H114667   3.898   3.425   0.193  1.5654 -0.8108 -0.6293
 4887TIP3    H214668   4.023   3.406   0.276 -0.1068 -4.0642  1.3772
 4888TIP3   OH214669   5.035   4.462   0.533 -0.0211 -0.4104  0.3876
 4888TIP3    H114670   5.022   4.522   0.607  2.1321  1.1767 -0.4148
 4888TIP3    H214671   5.067   4.518   0.462  0.2450 -2.2497 -1.0290
 4889TIP3   OH214672   1.543   0.913   2.856  0.2660 -0.0026  0.2404
 4889TIP3    H114673   1.620   0.893   2.909  0.4193 -2.4277 -0.7415
 4889TIP3    H214674   1.573   0.977   2.793  0.9910  0.3732  0.9439
 4890TIP3   OH214675   4.730   4.740   3.528 -0.0754  0.3361  0.2514
 4890TIP3    H114676   4.715   4.706   3.616 -1.5918 -0.1159 -0.1553
 4890TIP3    H214677   4.645   4.774   3.500  0.5496  1.1333 -0.7701
 4891TIP3   OH214678   0.076   2.547   4.359 -1.1060  0.1505 -0.3718
 4891TIP3    H114679   0.031   2.472   4.397 -0.9348  0.0579 -0.3545
 4891TIP3    H214680   0.152   2.561   4.415  0.2283 -1.1759 -1.7606
 4892TIP3   OH214681   3.546   0.200   3.780  0.2403 -0.5552 -0.1732
 4892TIP3    H114682   3.493   0.152   3.844 -0.0564  0.2686  0.2227
 4892TIP3    H214683   3.483   0.229   3.714  0.5995 -1.7046 -1.0507
 4893TIP3   OH214684   2.972   2.296   1.217 -0.0069 -0.4727  0.0886
 4893TIP3    H114685   3.004   2.384   1.239  0.1923 -0.6761  0.6490
 4893TIP3    H214686   2.878   2.307   1.202  0.1799 -0.0030 -0.7845
 4894TIP3   OH214687   4.237   2.560   0.072  0.5346  0.4417 -0.3954
 4894TIP3    H114688   4.320   2.594   0.105  0.4813 -0.0775  0.3221
 4894TIP3    H214689   4.189   2.637   0.042  1.9831  0.5739 -2.5513
 4895TIP3   OH214690   1.767   4.921   2.473 -0.8581 -0.0282  0.3081
 4895TIP3    H114691   1.749   4.829   2.453  2.6461 -0.5850 -0.9752
 4895TIP3    H214692   1.829   4.949   2.406 -0.5412  2.8267  1.6217
 4896TIP3   OH214693   2.654   1.222   1.363 -0.7871  1.4990 -0.4015
 4896TIP3    H114694   2.641   1.260   1.276 -0.7272  0.9709 -0.6449
 4896TIP3    H214695   2.677   1.131   1.346 -0.4834  1.4677  0.1602
 4897TIP3   OH214696   2.363   4.089   4.220 -0.2463  0.3579 -0.1719
 4897TIP3    H114697   2.278   4.068   4.260  0.4500 -0.1791  1.1105
 4897TIP3    H214698   2.362   4.043   4.136 -0.0804 -2.2020  1.1295
 4898TIP3   OH214699   4.908   3.626   4.550  0.0692  0.3971 -0.5258
 4898TIP3    H114700   4.999   3.598   4.553 -0.2057 -0.4607  0.4417
 4898TIP3    H214701   4.862   3.554   4.506 -0.0466  1.1688 -1.7279
 4899TIP3   OH214702   0.141   0.859   4.277 -0.0659 -0.3351 -0.3218
 4899TIP3    H114703   0.198   0.832   4.350 -1.6011  0.1098  1.0877
 4899TIP3    H214704   0.056   0.877   4.318 -0.8558  0.3549 -2.1708
 4900TIP3   OH214705   5.846   0.477   2.710 -0.6515 -0.1759 -0.0912
 4900TIP3    H114706   5.836   0.416   2.637  0.4889  0.8675 -1.1783
 4900TIP3    H214707   5.902   0.547   2.675 -1.8847  1.4975  1.0881
 4901TIP3   OH214708   5.698   5.822   4.635  0.2676  0.2333 -0.6543
 4901TIP3    H114709   5.627   5.772   4.594 -0.0241 -0.7466  0.9703
 4901TIP3    H214710   5.778   5.776   4.609 -0.0463 -1.6956  1.5203
 4902TIP3   OH214711   4.514   1.823   3.655 -0.1628  0.2483  0.2629
 4902TIP3    H114712   4.508   1.816   3.559  1.4212 -0.2881  0.1738
 4902TIP3    H214713   4.586   1.764   3.679  0.1135  1.1165  1.6807
 4903TIP3   OH214714   4.127   5.931   2.053  0.0380 -0.0201  0.6316
 4903TIP3    H114715   4.210   5.955   2.094 -0.5304  2.2559  0.5364
 4903TIP3    H214716   4.060   5.976   2.105 -0.8021  1.9051 -1.9458
 4904TIP3   OH214717   2.832   2.228   0.427  0.2773  0.2576 -0.0877
 4904TIP3    H114718   2.776   2.286   0.479  1.4893  0.0406  1.5365
 4904TIP3    H214719   2.786   2.219   0.343 -0.4267  2.7759 -0.0510
 4905TIP3   OH214720   4.050   4.973   2.200  0.0756  0.3373  0.3734
 4905TIP3    H114721   3.970   4.974   2.253  0.1775 -0.7959  0.5680
 4905TIP3    H214722   4.119   4.948   2.261  0.2393 -0.7154 -0.2192
 4906TIP3   OH214723   6.164   2.249   4.153 -0.4788 -0.1648 -0.2042
 4906TIP3    H114724   6.145   2.342   4.167 -1.8773  0.1137 -3.1631
 4906TIP3    H214725   6.078   2.209   4.143  0.0781 -1.9697  1.5956
 4907TIP3   OH214726   5.300   4.614   4.005  0.1845 -0.4725 -0.2540
 4907TIP3    H114727   5.302   4.621   3.910  2.7404 -1.7905 -0.3818
 4907TIP3    H214728   5.390   4.596   4.030 -0.7821 -2.6738  2.1955
 4908TIP3   OH214729   3.285   4.407   0.860  0.4716 -0.1992  0.0909
 4908TIP3    H114730   3.201   4.418   0.816  0.0778  0.8299  1.0677
 4908TIP3    H214731   3.343   4.470   0.816  0.4405 -0.1277  0.1533
 4909TIP3   OH214732   3.507  -0.006   4.927 -0.0925 -0.0832  0.2322
 4909TIP3    H114733   3.471   0.082   4.926  0.3245  0.1405  1.8449
 4909TIP3    H214734   3.602   0.006   4.918  0.0728 -0.2645  1.5200
 4910TIP3   OH214735   5.533   2.247   4.385  0.1858 -0.0248 -0.2816
 4910TIP3    H114736   5.483   2.277   4.310 -1.2583 -0.2260  0.5417
 4910TIP3    H214737   5.474   2.184   4.428  1.0736 -0.1017  0.8617
 4911TIP3   OH214738   4.736   5.333   4.863 -0.1068 -0.8651  0.1987
 4911TIP3    H114739   4.713   5.255   4.813 -2.1271 -0.4276  0.3382
 4911TIP3    H214740   4.818   5.311   4.906 -0.6279 -2.9283  0.2484
 4912TIP3   OH214741   5.265   2.772   4.962  0.2858  0.2538 -0.2736
 4912TIP3    H114742   5.223   2.835   5.021 -0.6976  0.3462 -1.0362
 4912TIP3    H214743   5.317   2.715   5.019 -0.7033  0.2867  0.6810
 4913TIP3   OH214744   1.976   1.678   4.908 -0.7118 -0.0722 -0.5113
 4913TIP3    H114745   1.984   1.602   4.849  0.7883  0.2807 -0.8067
 4913TIP3    H214746   2.066   1.708   4.920 -0.8564 -0.6502  2.7020
 4914TIP3   OH214747   5.583   1.123   3.562 -0.1966 -0.2874 -0.0266
 4914TIP3    H114748   5.541   1.064   3.500  0.3443 -1.6602  0.8666
 4914TIP3    H214749   5.519   1.192   3.578  0.4775  1.4543 -3.8239
 4915TIP3   OH214750   4.512   0.633   0.067  0.5656  0.1290  0.0639
 4915TIP3    H114751   4.541   0.698   0.003 -0.9458 -0.2174 -1.0464
 4915TIP3    H214752   4.492   0.556   0.014  1.9842 -1.1571  1.3164
 4916TIP3   OH214753   3.062   4.521   1.798  0.3874  0.6295 -0.2978
 4916TIP3    H114754   3.116   4.445   1.775 -0.9022 -0.4269  0.0820
 4916TIP3    H214755   3.000   4.529   1.725  0.2148  1.0365 -0.1072
 4917TIP3   OH214756   2.762   5.491   4.742 -0.0175  0.1962 -0.2448
 4917TIP3    H114757   2.805   5.568   4.781  0.6992  0.6907 -1.9379
 4917TIP3    H214758   2.811   5.416   4.776  0.7641  0.6299 -0.4056
 4918TIP3   OH214759   4.463   4.052   1.509 -0.3740  0.0125 -0.3254
 4918TIP3    H114760   4.523   3.991   1.551 -0.5942 -0.7571 -1.0965
 4918TIP3    H214761   4.515   4.096   1.442  0.0080  1.3246  0.7730
 4919TIP3   OH214762   1.148   5.268   5.115  0.0182  0.1545 -0.8450
 4919TIP3    H114763   1.201   5.263   5.195 -0.5215 -2.2351 -0.5602
 4919TIP3    H214764   1.194   5.211   5.053  0.2615  1.7423 -2.1828
 4920TIP3   OH214765   5.083   3.178   0.068  0.2472  1.0654 -0.1508
 4920TIP3    H114766   5.048   3.097   0.030  0.5785  1.3694 -1.1334
 4920TIP3    H214767   5.172   3.156   0.096 -0.3368  0.5645  1.4322
 4921TIP3   OH214768   0.967   3.042   0.304  0.6070  0.0401 -0.2559
 4921TIP3    H114769   0.911   3.096   0.360 -0.4777  1.2115 -2.3648
 4921TIP3    H214770   1.054   3.048   0.344 -0.2519  0.1383  1.7299
 4922TIP3   OH214771   0.104   1.379   4.581  0.0233  0.7809  0.2928
 4922TIP3    H114772   0.171   1.426   4.631  0.9335 -0.8627  0.6978
 4922TIP3    H214773   0.130   1.287   4.586 -0.4603  0.4108 -2.2903
 4923TIP3   OH214774   3.252   0.069   2.067 -0.0482 -0.6643 -0.4368
 4923TIP3    H114775   3.222  -0.018   2.038  0.0003 -1.4642  1.7604
 4923TIP3    H214776   3.230   0.073   2.159  2.7590  0.3988  0.2954
 4924TIP3   OH214777   1.035   1.836   3.751 -0.8608  0.0111 -0.4347
 4924TIP3    H114778   0.952   1.832   3.703  0.1234  2.1418 -2.4778
 4924TIP3    H214779   1.037   1.924   3.788  0.1436 -0.3029  0.3032
 4925TIP3   OH214780   2.217   1.282   0.105  0.2471 -0.5007 -0.3502
 4925TIP3    H114781   2.202   1.300   0.012 -0.7207 -0.4132 -0.1917
 4925TIP3    H214782   2.312   1.284   0.116  0.3925 -1.0441 -1.4399
 4926TIP3   OH214783   2.552   4.391   2.482  0.1311 -0.1070  0.4538
 4926TIP3    H114784   2.589   4.462   2.535  1.3068 -1.7474  1.9268
 4926TIP3    H214785   2.530   4.433   2.399  1.1492  1.8867  1.1176
 4927TIP3   OH214786   1.180   2.253   2.537 -0.1269 -0.3904  0.1083
 4927TIP3    H114787   1.174   2.219   2.627 -0.5296 -0.3385  0.1039
 4927TIP3    H214788   1.246   2.198   2.495 -0.3306 -0.7671  0.2794
 4928TIP3   OH214789   2.584   3.046   1.751 -0.6189  0.1297  0.4071
 4928TIP3    H114790   2.554   3.122   1.700 -1.9690 -1.2030 -0.9031
 4928TIP3    H214791   2.647   3.003   1.693 -2.6024 -1.7267 -0.4931
 4929TIP3   OH214792   3.159   0.765   4.374 -0.8998  0.0012 -0.7072
 4929TIP3    H114793   3.114   0.795   4.295 -1.1317 -0.1702 -0.6408
 4929TIP3    H214794   3.190   0.845   4.415 -0.8641  0.0988 -0.9197
 4930TIP3   OH214795   2.156   4.898   2.283  0.1164  0.1244 -0.0208
 4930TIP3    H114796   2.144   4.940   2.368  0.4505 -1.2864  0.7539
 4930TIP3    H214797   2.097   4.945   2.224  2.0011  3.0928  0.2515
 4931TIP3   OH214798   0.061   1.445   4.252  0.3231  0.2724  0.0181
 4931TIP3    H114799   0.086   1.416   4.164 -0.9728  3.0644 -1.4244
 4931TIP3    H214800   0.024   1.367   4.293  0.3188 -0.9859 -2.1877
 4932TIP3   OH214801   3.073   1.020   1.232 -0.1172 -0.5534 -0.4227
 4932TIP3    H114802   3.023   0.994   1.308 -1.1697 -0.8586 -1.1951
 4932TIP3    H214803   3.160   1.041   1.266 -0.5803 -0.6347  0.8496
 4933TIP3   OH214804   3.290   2.133   1.784 -0.1445 -0.5277 -0.6145
 4933TIP3    H114805   3.307   2.039   1.790  2.3330 -0.2458 -1.8483
 4933TIP3    H214806   3.377   2.174   1.785 -0.9705  1.5676 -2.5906
 4934TIP3   OH214807   1.414   5.601   2.778  0.3489 -0.0972 -0.4227
 4934TIP3    H114808   1.440   5.693   2.775 -2.6032  0.8661  0.0386
 4934TIP3    H214809   1.360   5.589   2.700  0.4529 -1.3553 -0.3223
 4935TIP3   OH214810   0.749   4.749   2.494  0.0687  0.4138  0.6134
 4935TIP3    H114811   0.791   4.704   2.567  3.4164 -0.1274 -1.4126
 4935TIP3    H214812   0.739   4.681   2.427  0.8286  1.6475 -0.8265
 4936TIP3   OH214813   4.371   5.945   1.024 -0.1261 -0.0474  0.0646
 4936TIP3    H114814   4.343   5.943   0.932 -2.0599  0.8224  0.5815
 4936TIP3    H214815   4.346   5.859   1.058 -0.1571 -0.0698 -0.0133
 4937TIP3   OH214816   3.564   2.222   1.787 -0.4111  0.0872  0.0296
 4937TIP3    H114817   3.557   2.314   1.812 -0.0735 -0.3701  1.9152
 4937TIP3    H214818   3.656   2.209   1.767 -0.4971  0.1914 -0.4606
 4938TIP3   OH214819   2.135   2.566   2.395  0.2548  0.0006  0.0770
 4938TIP3    H114820   2.133   2.532   2.305 -1.1033  0.7937 -0.2278
 4938TIP3    H214821   2.109   2.491   2.449  0.2219 -0.2473 -0.2739
 4939TIP3   OH214822   1.133   0.329   2.291  0.8921  0.1231 -0.1815
 4939TIP3    H114823   1.223   0.362   2.294  0.3992  1.5815 -0.6235
 4939TIP3    H214824   1.105   0.345   2.201 -0.1937  0.8316  0.2638
 4940TIP3   OH214825   0.951   5.564   0.109 -0.0656 -0.0766 -0.4718
 4940TIP3    H114826   0.969   5.644   0.158  0.9971 -0.3984 -0.3020
 4940TIP3    H214827   0.973   5.493   0.171  0.7567 -0.4892 -1.2187
 4941TIP3   OH214828   2.538   3.023   3.370  0.6400 -0.4513  0.4373
 4941TIP3    H114829   2.600   3.059   3.433 -1.5829  2.9699  0.9473
 4941TIP3    H214830   2.454   3.022   3.417 -0.7184  0.3458 -1.8181
 4942TIP3   OH214831   4.244   5.697   3.364 -0.3272  0.2309  0.0043
 4942TIP3    H114832   4.273   5.755   3.294 -0.7743  2.0801  1.2687
 4942TIP3    H214833   4.281   5.735   3.444 -0.0944 -1.6286  0.8368
 4943TIP3   OH214834   2.685   1.014   3.547 -0.3144  0.8045  0.4627
 4943TIP3    H114835   2.761   0.982   3.498 -1.0847  2.0636 -1.6903
 4943TIP3    H214836   2.711   1.006   3.639  2.2434  0.7787 -0.1786
 4944TIP3   OH214837   0.426   5.574   1.884 -0.4135 -0.0202 -0.2277
 4944TIP3    H114838   0.363   5.555   1.954 -0.9497  2.1263 -0.0476
 4944TIP3    H214839   0.488   5.635   1.924  0.2005 -0.0077 -1.1817
 4945TIP3   OH214840   4.382   2.212   3.198  0.1444  0.4407  0.2362
 4945TIP3    H114841   4.465   2.230   3.244  0.6027  2.9234 -1.3441
 4945TIP3    H214842   4.318   2.268   3.243 -0.7716 -1.5271  1.4995
 4946TIP3   OH214843   3.066   0.548   2.170 -1.0089 -0.0458  0.2587
 4946TIP3    H114844   2.994   0.547   2.234 -0.7388  2.3247  0.6809
 4946TIP3    H214845   3.034   0.602   2.098 -0.7547 -1.5018 -1.0095
 4947TIP3   OH214846   0.257   2.662   4.984 -0.1766 -0.1566 -0.3682
 4947TIP3    H114847   0.337   2.689   5.029 -0.6807  0.6543  0.0638
 4947TIP3    H214848   0.202   2.626   5.053 -0.7100  0.5210 -0.4329
 4948TIP3   OH214849   4.705   4.920   4.221 -0.2501 -0.3942 -0.1389
 4948TIP3    H114850   4.649   4.997   4.233  1.1068  0.8487 -1.2949
 4948TIP3    H214851   4.673   4.880   4.140  0.7507  0.5678 -1.0399
 4949TIP3   OH214852   3.875   4.619   3.261 -0.4151  0.1355 -0.0035
 4949TIP3    H114853   3.875   4.709   3.295 -0.7508  1.0979 -2.3351
 4949TIP3    H214854   3.797   4.579   3.299 -2.1511  1.9388 -1.4304
 4950TIP3   OH214855   1.482   0.503   4.337 -0.0701  0.3164 -0.4044
 4950TIP3    H114856   1.427   0.437   4.378  0.9180  0.8927  1.9999
 4950TIP3    H214857   1.432   0.585   4.346 -0.8564  0.1479 -2.5115
 4951TIP3   OH214858   0.325   1.283   0.526  0.7188 -0.3328 -0.3055
 4951TIP3    H114859   0.239   1.318   0.550 -0.2462 -0.5362 -3.1293
 4951TIP3    H214860   0.386   1.352   0.549 -0.4058  0.5123  0.2341
 4952TIP3   OH214861   1.512   5.689   4.266  0.4613  0.0212  0.3498
 4952TIP3    H114862   1.570   5.676   4.191 -0.0482 -1.7575  0.2112
 4952TIP3    H214863   1.501   5.602   4.303 -2.9278  0.0288 -0.2568
 4953TIP3   OH214864   3.844   1.990   1.073  0.0841 -0.0863 -0.4871
 4953TIP3    H114865   3.891   1.993   1.156  0.5745 -2.3999 -0.6049
 4953TIP3    H214866   3.900   2.038   1.012  1.3648 -1.1212 -0.1751
 4954TIP3   OH214867   0.057   4.781   2.050  0.3160 -0.5403  0.2106
 4954TIP3    H114868  -0.016   4.723   2.073 -1.8887  1.0100 -2.2734
 4954TIP3    H214869   0.083   4.753   1.963  1.0726  0.4672  0.1044
 4955TIP3   OH214870   4.154   4.071   0.692 -0.1675  0.1287  0.6338
 4955TIP3    H114871   4.138   3.992   0.744 -1.2696 -0.6294 -0.7857
 4955TIP3    H214872   4.067   4.104   0.672  0.2634  0.8620 -0.0557
 4956TIP3   OH214873   2.668   1.781   3.742 -0.3006 -0.0421  1.0292
 4956TIP3    H114874   2.578   1.749   3.749 -0.2729 -0.6906 -0.9878
 4956TIP3    H214875   2.714   1.739   3.814 -1.4277 -0.3046  1.6260
 4957TIP3   OH214876   2.658   2.485   4.862  0.1921  0.1742 -1.0511
 4957TIP3    H114877   2.569   2.513   4.882  0.6206  0.9919 -0.2380
 4957TIP3    H214878   2.697   2.559   4.815  1.4276  1.1746  1.3809
 4958TIP3   OH214879   4.199   2.519   0.862 -0.2108 -0.2725  0.2664
 4958TIP3    H114880   4.224   2.492   0.950 -0.1608 -1.5831 -0.1236
 4958TIP3    H214881   4.260   2.473   0.804 -0.0352  0.8145 -0.4551
 4959TIP3   OH214882   2.088   5.813   1.668 -0.1064  0.4079 -0.3585
 4959TIP3    H114883   2.101   5.724   1.635  0.6518  0.0902  0.7582
 4959TIP3    H214884   2.118   5.810   1.759 -0.1543  1.7887 -0.2751
 4960TIP3   OH214885   1.625   0.410   2.653  0.3477  0.6751 -0.0833
 4960TIP3    H114886   1.557   0.344   2.664 -0.2612  1.0871 -1.2372
 4960TIP3    H214887   1.705   0.366   2.683 -0.2242 -0.1937  0.2300
 4961TIP3   OH214888   5.795   2.678   2.032  0.2225 -0.4502  0.6161
 4961TIP3    H114889   5.729   2.629   2.081 -0.2542 -1.5031 -1.0180
 4961TIP3    H214890   5.792   2.766   2.069 -2.2196 -0.4260  0.4770
 4962TIP3   OH214891   3.107   0.864   0.265  0.3770  0.4798  0.6618
 4962TIP3    H114892   3.019   0.837   0.239  1.1743 -1.4766 -0.1880
 4962TIP3    H214893   3.144   0.904   0.186  0.8584 -0.3231  0.4781
 4963TIP3   OH214894   0.652   5.565   4.326  0.0048  0.5529 -0.2481
 4963TIP3    H114895   0.729   5.530   4.371  0.0541  0.1488 -0.6357
 4963TIP3    H214896   0.682   5.647   4.287 -0.1586  1.1254  0.8178
 4964TIP3   OH214897   4.730   0.936   2.095  0.2116  0.0467  0.2792
 4964TIP3    H114898   4.806   0.952   2.150  0.7221 -0.5023 -0.2520
 4964TIP3    H214899   4.655   0.947   2.153  0.5732  2.5743  0.3711
 4965TIP3   OH214900   0.718   4.341   1.673 -0.0820  0.1888  0.1384
 4965TIP3    H114901   0.687   4.430   1.655 -0.2625  0.2244  0.6139
 4965TIP3    H214902   0.708   4.331   1.767 -1.5260 -0.8735 -0.0971
 4966TIP3   OH214903   0.520   1.745   0.475  0.1792 -0.8125 -0.3690
 4966TIP3    H114904   0.498   1.652   0.485 -0.1364 -0.7485 -0.4763
 4966TIP3    H214905   0.612   1.745   0.446  0.2528 -1.0835 -0.1413
 4967TIP3   OH214906   4.639   2.513   2.515 -0.4662  0.3061 -0.1646
 4967TIP3    H114907   4.706   2.547   2.456  2.0605 -2.1814  1.0633
 4967TIP3    H214908   4.631   2.580   2.583  0.6012  0.7351 -0.4435
 4968TIP3   OH214909   5.024   5.282   4.620 -0.4176  0.3041  0.1480
 4968TIP3    H114910   4.936   5.248   4.602  0.2532 -1.3561 -0.1262
 4968TIP3    H214911   5.036   5.352   4.556 -0.5446 -1.2396 -1.6387
 4969TIP3   OH214912   3.699   3.888   2.290 -0.3449  0.9752  0.3692
 4969TIP3    H114913   3.627   3.912   2.349 -0.7513  0.7061 -0.0066
 4969TIP3    H214914   3.655   3.854   2.212  0.2105 -0.5793  0.7138
 4970TIP3   OH214915   6.163   3.327   0.486 -0.0069 -0.1584 -0.0835
 4970TIP3    H114916   6.155   3.232   0.485 -0.0694 -0.1657  0.5791
 4970TIP3    H214917   6.191   3.350   0.398 -1.2377 -0.6830 -0.6342
 4971TIP3   OH214918   4.316   2.760   4.189  0.5469 -0.1743 -0.0653
 4971TIP3    H114919   4.241   2.711   4.222  0.6359  0.2208  0.7517
 4971TIP3    H214920   4.322   2.735   4.097 -0.2812 -0.5915 -0.0196
 4972TIP3   OH214921   1.422   4.806   4.864  0.4583  0.0677  0.4666
 4972TIP3    H114922   1.412   4.873   4.931 -0.6149  0.0023  0.3853
 4972TIP3    H214923   1.471   4.850   4.794 -0.2855  0.8022  0.3870
 4973TIP3   OH214924   3.275   1.519   1.294 -0.0280  0.0485 -0.1683
 4973TIP3    H114925   3.369   1.518   1.277  0.2758  0.3069  1.3650
 4973TIP3    H214926   3.253   1.612   1.300  0.1114 -0.0104  1.8512
 4974TIP3   OH214927   4.922   4.851   4.907 -0.1223 -0.5513  0.1069
 4974TIP3    H114928   4.973   4.822   4.831  0.2153 -0.6952  0.3831
 4974TIP3    H214929   4.901   4.771   4.953 -0.7597 -0.5060 -0.1002
 4975TIP3   OH214930   1.991   0.256   0.117 -0.4153 -0.2594 -0.0543
 4975TIP3    H114931   2.024   0.253   0.027 -1.1300 -0.5868 -0.3101
 4975TIP3    H214932   2.060   0.301   0.165  0.3870 -0.8617 -0.5892
 4976TIP3   OH214933   4.011   3.266   1.194  0.5433 -0.0527  0.2299
 4976TIP3    H114934   4.088   3.248   1.247 -0.3048 -1.6927  0.9993
 4976TIP3    H214935   3.937   3.257   1.255 -0.2759  1.2404 -0.5269
 4977TIP3   OH214936   6.155   0.064   0.976  0.2840 -0.1183  0.1265
 4977TIP3    H114937   6.177  -0.011   1.032 -0.7800 -0.1230  0.5564
 4977TIP3    H214938   6.111   0.025   0.901  1.0928 -0.0493 -0.3887
 4978TIP3   OH214939   3.514   2.597   0.654 -0.3775 -0.5922  0.1703
 4978TIP3    H114940   3.603   2.632   0.661 -0.6009  0.1610 -0.5423
 4978TIP3    H214941   3.478   2.641   0.577 -1.9321  0.3835  1.4079
 4979TIP3   OH214942   1.318   3.885   4.790 -0.5071  0.0582 -0.2537
 4979TIP3    H114943   1.358   3.865   4.706  2.1000  0.7321  0.7285
 4979TIP3    H214944   1.312   3.980   4.792 -1.0553  0.0192  0.1030
 4980TIP3   OH214945   1.197   0.643   3.193 -0.6919  0.3399  1.2224
 4980TIP3    H114946   1.185   0.703   3.266 -1.2899 -0.1520  1.5318
 4980TIP3    H214947   1.147   0.682   3.121 -1.0561  0.2281  1.4150
 4981TIP3   OH214948   2.525   3.844   1.735  0.2766 -0.0718 -0.4211
 4981TIP3    H114949   2.455   3.802   1.785  0.6744 -0.7639 -0.4411
 4981TIP3    H214950   2.487   3.928   1.707  0.0042  0.2766  0.9302
 4982TIP3   OH214951   5.225   1.256   4.781  0.1793 -0.0681  0.0105
 4982TIP3    H114952   5.164   1.281   4.711  0.1867  1.2147  0.4389
 4982TIP3    H214953   5.197   1.307   4.857  0.7645 -0.7167  0.6731
 4983TIP3   OH214954   2.968   5.187   3.222  0.2722 -0.2080 -0.1882
 4983TIP3    H114955   2.960   5.281   3.204 -2.8857 -0.3525 -0.0145
 4983TIP3    H214956   2.994   5.149   3.138  3.1072  0.8853  0.0862
 4984TIP3   OH214957   4.536   4.288   0.364 -0.3290  0.5808 -0.6636
 4984TIP3    H114958   4.521   4.367   0.313  0.5176  0.8839 -0.4631
 4984TIP3    H214959   4.624   4.299   0.400 -0.0562 -0.5996 -0.9211
 4985TIP3   OH214960   3.534   5.891   3.579  0.0667  0.1519 -0.2294
 4985TIP3    H114961   3.608   5.888   3.519 -1.5730 -2.4678 -2.3383
 4985TIP3    H214962   3.565   5.943   3.653  2.9326  1.7369 -2.3458
 4986TIP3   OH214963   3.096   1.485   2.262 -0.0619  0.5059  0.2644
 4986TIP3    H114964   3.115   1.431   2.185 -0.8579  0.1215  0.3289
 4986TIP3    H214965   3.012   1.453   2.294  0.8527 -0.2278  2.0783
 4987TIP3   OH214966   5.076   2.686   1.418 -0.8551  0.1972 -0.3319
 4987TIP3    H114967   5.027   2.767   1.406 -0.4968  0.5831  0.7300
 4987TIP3    H214968   5.153   2.712   1.469  0.1461 -0.5101 -1.4239
 4988TIP3   OH214969   0.885   1.083   1.953 -0.3454  0.1669  0.1486
 4988TIP3    H114970   0.862   1.162   2.003  1.0109  1.1512 -0.7075
 4988TIP3    H214971   0.967   1.053   1.993 -0.8095 -0.7721  0.4104
 4989TIP3   OH214972   6.251   0.779   1.002 -0.4079 -0.7024 -0.1446
 4989TIP3    H114973   6.236   0.694   1.043  0.1862 -0.2319  1.1181
 4989TIP3    H214974   6.346   0.788   1.000 -0.4166 -0.7859 -1.8449
 4990TIP3   OH214975   4.034   4.727   3.790 -0.0133  0.1154  0.4394
 4990TIP3    H114976   4.100   4.786   3.754 -0.9285  0.9883  0.1365
 4990TIP3    H214977   4.004   4.769   3.870 -0.9590  0.2711  0.0128
 4991TIP3   OH214978   4.454   4.619   3.542  0.1522 -0.4776  0.0653
 4991TIP3    H114979   4.392   4.575   3.600 -1.4971 -0.9909 -1.9716
 4991TIP3    H214980   4.511   4.549   3.509  1.2214 -0.1563  1.1603
 4992TIP3   OH214981   5.937   0.813   3.327 -0.4255  0.8367  0.1164
 4992TIP3    H114982   5.858   0.789   3.376 -0.1682 -1.9203 -0.6782
 4992TIP3    H214983   5.996   0.738   3.338  0.9528  1.6059 -1.6564
 4993TIP3   OH214984   3.098   3.409   2.026  0.1321 -0.0659 -0.0208
 4993TIP3    H114985   3.117   3.484   1.970 -1.9821 -0.3277 -1.1901
 4993TIP3    H214986   3.139   3.334   1.982  1.5899  0.2217  0.7564
 4994TIP3   OH214987   3.333   4.263   2.893 -0.0005 -0.6102 -0.6564
 4994TIP3    H114988   3.378   4.192   2.847  1.6354 -0.0823  0.0758
 4994TIP3    H214989   3.384   4.277   2.972 -0.8639  0.7326 -0.3082
 4995TIP3   OH214990   2.131   3.995   3.515 -0.2639 -0.2059  0.2641
 4995TIP3    H114991   2.143   4.077   3.564  1.7449 -1.1936  1.5538
 4995TIP3    H214992   2.044   3.964   3.542 -0.0156  0.2589  1.6957
 4996TIP3   OH214993   1.571   5.814   1.885 -0.0082 -0.5891 -0.0651
 4996TIP3    H114994   1.479   5.804   1.860 -0.5520  2.2316  0.4880
 4996TIP3    H214995   1.619   5.802   1.803 -1.0052 -0.4030 -0.6954
 4997TIP3   OH214996   5.577   1.523   4.498  0.4459 -0.2123  0.0288
 4997TIP3    H114997   5.483   1.544   4.496  0.3529 -0.5428  0.5395
 4997TIP3    H214998   5.612   1.582   4.565  0.3830 -0.9051  0.6827
 4998TIP3   OH214999   1.132   4.377   0.808  0.0678  0.0077  0.1545
 4998TIP3    H115000   1.142   4.391   0.713 -0.4774  0.1962  0.1222
 4998TIP3    H215001   1.141   4.465   0.846 -1.6949  0.2432  0.0972
 4999TIP3   OH215002   4.832   5.088   1.748  0.9891  0.1029 -0.3097
 4999TIP3    H115003   4.832   5.020   1.815  2.3950  0.4587  0.0829
 4999TIP3    H215004   4.741   5.116   1.742  0.7812 -0.2024  1.1792
 5000TIP3   OH215005   1.382   4.635   5.059  0.1514 -0.0011 -0.3204
 5000TIP3    H115006   1.467   4.655   5.099  0.3207 -1.4107  0.0916
 5000TIP3    H215007   1.384   4.678   4.974  0.8189  0.9336  0.1593
 5001TIP3   OH215008   4.188   5.454   3.725 -0.4614 -0.4141  0.3166
 5001TIP3    H115009   4.152   5.539   3.750 -1.7412 -0.4886 -1.1183
 5001TIP3    H215010   4.193   5.405   3.808 -2.1644  0.1748  0.8159
 5002TIP3   OH215011   0.716   3.296   2.789 -0.0585 -0.2402 -0.1593
 5002TIP3    H115012   0.637   3.290   2.843 -0.4320  0.5692 -0.5933
 5002TIP3    H215013   0.688   3.265   2.703  0.2479 -0.4817 -0.1719
 5003TIP3   OH215014   0.550   2.554   0.431 -0.1799  0.4599  0.3110
 5003TIP3    H115015   0.498   2.609   0.490 -2.3264 -0.9353 -0.1748
 5003TIP3    H215016   0.511   2.567   0.345 -0.4625 -1.4359  0.1096
 5004TIP3   OH215017   5.552   5.213   0.108 -0.5280 -0.9499 -0.2825
 5004TIP3    H115018   5.466   5.208   0.150  0.1695  0.6550  1.4544
 5004TIP3    H215019   5.548   5.293   0.055  0.3825  0.0780  1.1192
 5005TIP3   OH215020   0.821   5.362   3.212 -0.3696  1.0171  0.5420
 5005TIP3    H115021   0.876   5.413   3.272  1.1450 -0.5362  0.5588
 5005TIP3    H215022   0.882   5.300   3.171 -1.9690 -0.1785 -0.1270
 5006TIP3   OH215023   5.453   5.206   3.935 -0.3943  0.1878  0.3591
 5006TIP3    H115024   5.374   5.257   3.917 -0.8172 -0.1010  1.3073
 5006TIP3    H215025   5.439   5.170   4.023  1.2677  1.0021  1.0044
 5007TIP3   OH215026   3.545   5.835   0.888  0.3912  0.2095  0.2946
 5007TIP3    H115027   3.511   5.765   0.944 -0.7820  0.2872 -0.3144
 5007TIP3    H215028   3.536   5.914   0.941 -1.5655  0.4245 -0.3019
 5008TIP3   OH215029   3.665   2.156   1.431 -0.2200  0.3857 -0.4827
 5008TIP3    H115030   3.698   2.244   1.410 -2.7647  1.5528  0.0895
 5008TIP3    H215031   3.584   2.148   1.382 -0.2765 -1.5004 -0.1557
 5009TIP3   OH215032   0.490   4.524  -0.002  0.5099  0.1589 -0.8050
 5009TIP3    H115033   0.536   4.607   0.010 -0.8463  0.6794  1.3579
 5009TIP3    H215034   0.423   4.523   0.067 -1.8122 -1.1592 -2.8895
 5010TIP3   OH215035   4.838   5.711   2.147  0.4816  0.0568 -0.0233
 5010TIP3    H115036   4.921   5.691   2.189 -0.3403 -1.2560  1.0495
 5010TIP3    H215037   4.787   5.631   2.155 -0.6615  0.6288 -1.2347
 5011TIP3   OH215038   2.573   4.033   4.400  0.4388 -0.4998 -0.0045
 5011TIP3    H115039   2.574   3.939   4.383 -1.3232 -0.4377 -0.7083
 5011TIP3    H215040   2.516   4.069   4.332  1.5636  1.1697 -0.1085
 5012TIP3   OH215041   2.352   5.518   2.424 -0.3233 -0.1876  0.2002
 5012TIP3    H115042   2.429   5.506   2.479 -2.1957  0.6108  3.2948
 5012TIP3    H215043   2.350   5.612   2.406 -0.3109 -0.2747 -0.2424
 5013TIP3   OH215044   4.197   3.990   1.538 -0.1917 -0.8387  0.1182
 5013TIP3    H115045   4.121   4.045   1.559  0.0733  0.0973 -1.2198
 5013TIP3    H215046   4.269   4.052   1.528  0.1371 -1.4177 -1.3294
 5014TIP3   OH215047   4.504   2.058   3.789 -0.1042 -0.1284 -0.2893
 5014TIP3    H115048   4.501   1.986   3.726  0.4117  0.8863 -1.4908
 5014TIP3    H215049   4.420   2.103   3.778 -1.0030 -1.2563  1.3855
 5015TIP3   OH215050   3.442   2.633   3.619  0.2411  0.1583  0.2026
 5015TIP3    H115051   3.379   2.704   3.630  0.7643  0.9722 -1.8013
 5015TIP3    H215052   3.441   2.588   3.704 -2.7622  0.3258  0.3712
 5016TIP3   OH215053   1.767   1.111   0.955 -0.4712  0.3792  0.1272
 5016TIP3    H115054   1.700   1.173   0.984 -3.4268 -3.0480  1.3583
 5016TIP3    H215055   1.804   1.076   1.036  0.8456  0.1895 -0.5269
 5017TIP3   OH215056   6.085   0.878   4.706  0.2039 -0.6877  0.0608
 5017TIP3    H115057   6.075   0.823   4.784  1.6834 -0.3943  0.4769
 5017TIP3    H215058   6.147   0.945   4.732 -0.0914  0.0434 -1.0622
 5018TIP3   OH215059   4.724   4.400   2.942  0.1765  0.4436  0.1580
 5018TIP3    H115060   4.812   4.365   2.955 -0.0521  0.4870  2.0658
 5018TIP3    H215061   4.691   4.355   2.864  1.4847 -0.3689  0.0545
 5019TIP3   OH215062   5.406   1.856   0.716 -0.1799  0.1918 -0.4636
 5019TIP3    H115063   5.351   1.785   0.748  0.9957 -0.4153  0.2442
 5019TIP3    H215064   5.451   1.819   0.640 -0.8664  0.7582 -1.1769
 5020TIP3   OH215065   1.883   0.211   2.452 -0.1870 -0.5534  0.8823
 5020TIP3    H115066   1.817   0.201   2.521 -0.5114  0.4944  0.7403
 5020TIP3    H215067   1.833   0.234   2.374  0.2213 -1.2512  0.4046
 5021TIP3   OH215068   3.342   1.107   1.205  0.0955 -0.7125 -0.2782
 5021TIP3    H115069   3.424   1.098   1.158  0.9338  0.7275  0.8166
 5021TIP3    H215070   3.304   1.189   1.172  0.7981  0.4336  1.5912
 5022TIP3   OH215071   1.027   3.475   1.105 -0.4407  0.1821  0.4005
 5022TIP3    H115072   1.020   3.391   1.150 -0.9429  0.4412  0.8278
 5022TIP3    H215073   0.948   3.523   1.131 -0.6311  0.4332 -0.5690
 5023TIP3   OH215074   2.187   1.219   1.421  0.7951 -0.2255 -0.1299
 5023TIP3    H115075   2.167   1.134   1.382  1.8044 -1.1647  1.3093
 5023TIP3    H215076   2.231   1.198   1.503  0.8715  1.6986  0.3663
 5024TIP3   OH215077   1.687   4.804   1.722  0.4078  0.6843 -0.9673
 5024TIP3    H115078   1.702   4.746   1.647  1.0202  1.1038 -1.1766
 5024TIP3    H215079   1.596   4.788   1.747  0.8155 -1.0185 -0.4575
 5025TIP3   OH215080   6.139   3.170   0.788 -0.8209 -0.5926  0.5928
 5025TIP3    H115081   6.213   3.113   0.770 -0.1114 -0.1042  1.8475
 5025TIP3    H215082   6.062   3.114   0.775 -0.2986 -0.9404 -1.3290
 5026TIP3   OH215083   0.183   4.159   1.509  0.2814 -0.1512  0.2378
 5026TIP3    H115084   0.266   4.202   1.531  0.3510 -0.1659  0.0120
 5026TIP3    H215085   0.174   4.091   1.576  0.4564 -0.1539  0.2616
 5027TIP3   OH215086   4.793   1.977   1.537  0.3229 -0.3519 -0.8878
 5027TIP3    H115087   4.698   1.964   1.531 -0.0853  1.6671  0.2605
 5027TIP3    H215088   4.826   1.894   1.570 -1.5211 -0.1086  2.0198
 5028TIP3   OH215089   5.192   0.817   3.893  0.4538  0.1602  0.5451
 5028TIP3    H115090   5.221   0.775   3.812  0.1445 -0.6707  0.8506
 5028TIP3    H215091   5.098   0.830   3.882  1.0455  4.6611 -1.2566
 5029TIP3   OH215092   2.366   4.787   0.305  0.3185  0.1494  0.0039
 5029TIP3    H115093   2.300   4.816   0.243  0.0534  0.2966  0.3494
 5029TIP3    H215094   2.321   4.786   0.390  1.3121  2.3793  0.6301
 5030TIP3   OH215095   0.445   5.397   4.220 -0.5343 -0.4023 -0.4554
 5030TIP3    H115096   0.451   5.397   4.124 -0.6584  0.9553 -0.4895
 5030TIP3    H215097   0.518   5.453   4.248 -1.3114  0.3380  0.1532
 5031TIP3   OH215098   1.266   1.350   1.985  0.1413  0.6320 -0.0632
 5031TIP3    H115099   1.303   1.261   1.983 -0.8903  0.1784  0.3900
 5031TIP3    H215100   1.193   1.347   1.924 -1.0690  0.6174  1.3369
 5032TIP3   OH215101   2.044   1.540   0.278 -0.2615  0.0325  0.1828
 5032TIP3    H115102   1.977   1.571   0.339 -0.9200 -2.0018  0.5518
 5032TIP3    H215103   2.086   1.467   0.322  0.5776 -0.2477 -1.0217
 5033TIP3   OH215104   1.995   4.380   0.166 -0.5347  0.1599 -0.1342
 5033TIP3    H115105   1.990   4.415   0.255 -0.8727 -2.1325  0.8188
 5033TIP3    H215106   2.086   4.393   0.140 -0.9599  2.9804 -0.4400
 5034TIP3   OH215107   3.098   4.979   4.539  0.1310  0.2819 -0.1842
 5034TIP3    H115108   3.102   4.943   4.451  1.7748  0.7864 -0.3490
 5034TIP3    H215109   3.024   4.934   4.580  0.8673 -1.8059 -1.0031
 5035TIP3   OH215110   5.831   2.394   2.675 -0.0773 -0.3395 -0.4054
 5035TIP3    H115111   5.834   2.392   2.580 -1.6495 -0.1960 -0.4889
 5035TIP3    H215112   5.744   2.362   2.697  0.1415 -0.0593  0.9750
 5036TIP3   OH215113   0.420   4.435   1.330  0.5879 -0.3504 -0.6206
 5036TIP3    H115114   0.325   4.437   1.318  0.1289  2.4078  2.2704
 5036TIP3    H215115   0.437   4.499   1.399  4.5479 -1.0422 -0.7331
 5037TIP3   OH215116   0.273   2.077   4.024 -0.3868  0.4758  0.7928
 5037TIP3    H115117   0.183   2.045   4.032 -0.5229  0.7765  0.4922
 5037TIP3    H215118   0.265   2.161   3.978  0.3004 -0.7947 -1.7973
 5038TIP3   OH215119   4.588   2.209   2.554  0.7636 -0.0172  0.0703
 5038TIP3    H115120   4.613   2.301   2.558  0.0291  0.1480  1.5668
 5038TIP3    H215121   4.664   2.165   2.516  1.6858  1.0089  0.6722
 5039TIP3   OH215122   3.756   5.846   2.960 -0.5708 -0.3742 -0.1815
 5039TIP3    H115123   3.733   5.767   3.009  0.9118  0.2575  1.6724
 5039TIP3    H215124   3.790   5.814   2.877 -1.4935 -1.5847 -0.1126
 5040TIP3   OH215125   0.746   1.879   3.696 -1.2566 -0.0593  0.4467
 5040TIP3    H115126   0.677   1.813   3.706 -0.9610 -0.6775 -1.1697
 5040TIP3    H215127   0.708   1.943   3.635 -0.0197 -1.0647 -1.4822
 5041TIP3   OH215128   4.417   5.460   3.022  0.4890  0.4797  0.0958
 5041TIP3    H115129   4.403   5.545   2.980  1.9297  1.8149  2.1276
 5041TIP3    H215130   4.450   5.481   3.109 -1.0539 -2.1567  1.4485
 5042TIP3   OH215131   0.415   3.637   1.941 -0.0686  0.0236  0.7994
 5042TIP3    H115132   0.377   3.592   1.865 -0.7802  1.9360 -0.0420
 5042TIP3    H215133   0.348   3.631   2.009 -0.7929  1.0412  0.2034
 5043TIP3   OH215134   1.613   3.449   1.886  0.3403 -0.2999 -0.5443
 5043TIP3    H115135   1.674   3.506   1.839  0.8075 -1.0826 -0.9020
 5043TIP3    H215136   1.658   3.427   1.967  0.5919 -0.9657 -0.8567
 5044TIP3   OH215137   6.251   1.985   1.270 -0.1538 -0.1604 -0.5443
 5044TIP3    H115138   6.242   1.915   1.206 -0.9378 -0.6225  0.0576
 5044TIP3    H215139   6.338   1.972   1.308  0.2237 -0.0220 -1.3325
 5045TIP3   OH215140   2.658   5.396   4.220 -0.2019  0.0094  0.5858
 5045TIP3    H115141   2.613   5.367   4.141 -0.1525 -3.4576  1.6459
 5045TIP3    H215142   2.590   5.442   4.270 -1.1799 -0.7260 -0.0117
 5046TIP3   OH215143   5.938   3.521   4.230  0.0130 -0.0445  0.4999
 5046TIP3    H115144   6.015   3.515   4.173  0.4539  1.2889  0.9024
 5046TIP3    H215145   5.900   3.434   4.228  0.8046 -0.4015 -0.7367
 5047TIP3   OH215146   4.136   4.603   0.671  0.7454 -0.5739  0.3964
 5047TIP3    H115147   4.115   4.641   0.586 -0.0009 -1.8995 -0.0471
 5047TIP3    H215148   4.053   4.604   0.720  1.4353  1.3463  1.6220
 5048TIP3   OH215149   0.382   5.545   1.074 -0.0730 -0.2466 -0.3136
 5048TIP3    H115150   0.385   5.493   1.154 -0.4307 -1.3436 -0.9938
 5048TIP3    H215151   0.473   5.559   1.050  0.0491  0.5416  0.5581
 5049TIP3   OH215152   2.028   5.628   5.114 -0.4328  0.3666  0.0635
 5049TIP3    H115153   2.096   5.691   5.138 -1.5321  1.6198  0.0174
 5049TIP3    H215154   2.044   5.552   5.171  2.8385 -0.7192 -1.9992
 5050TIP3   OH215155   0.071   3.320   1.283 -0.0337  0.1939  0.5321
 5050TIP3    H115156   0.019   3.257   1.332 -2.9044  1.5776 -0.5081
 5050TIP3    H215157   0.044   3.406   1.318  1.1954  1.0043 -0.4179
 5051TIP3   OH215158   2.160   1.115   0.674 -0.2591  0.6594 -0.9346
 5051TIP3    H115159   2.069   1.134   0.699 -0.2130  0.9480 -0.9792
 5051TIP3    H215160   2.157   1.027   0.637 -0.0422 -0.5330  1.6910
 5052TIP3   OH215161   2.841   2.629   3.763  0.1471  0.8432  0.1842
 5052TIP3    H115162   2.883   2.568   3.704 -1.9183 -1.0409  0.5181
 5052TIP3    H215163   2.788   2.685   3.706 -1.4512 -0.6480  0.1374
 5053TIP3   OH215164   4.733   3.451   0.416 -0.4739 -0.0429 -0.0976
 5053TIP3    H115165   4.758   3.426   0.327  0.9349 -0.5043  0.4047
 5053TIP3    H215166   4.672   3.382   0.444 -0.0048 -0.5337 -0.2819
 5054TIP3   OH215167   1.247   1.664   2.551  0.7873  0.4339 -0.4323
 5054TIP3    H115168   1.260   1.569   2.555  0.7926  0.2841 -2.7295
 5054TIP3    H215169   1.153   1.676   2.558  0.9021  0.4585  1.8242
 5055TIP3   OH215170   4.648   5.580   4.906 -0.0431  0.1422 -0.2346
 5055TIP3    H115171   4.672   5.488   4.916 -0.4445  0.1599  1.0807
 5055TIP3    H215172   4.725   5.621   4.867  1.4455 -0.1578  2.1592
 5056TIP3   OH215173   4.080   2.506   4.559 -0.3744  0.2113 -0.1705
 5056TIP3    H115174   4.134   2.436   4.523  1.2413  0.8845  0.8321
 5056TIP3    H215175   4.001   2.506   4.506  1.3235  0.3130 -2.8615
 5057TIP3   OH215176   4.643   3.650   2.793  0.3267  0.3350  0.5880
 5057TIP3    H115177   4.690   3.585   2.845  0.4480 -0.0767 -0.0261
 5057TIP3    H215178   4.713   3.704   2.754  0.2527  0.3281  0.4470
 5058TIP3   OH215179   5.791   4.119   5.032 -0.4043 -0.0189  0.0763
 5058TIP3    H115180   5.752   4.205   5.015 -2.1109 -0.8181 -0.2010
 5058TIP3    H215181   5.885   4.135   5.028 -0.6332  2.0732  1.2021
 5059TIP3   OH215182   2.473   5.959   2.121  0.1195 -0.3326 -0.3405
 5059TIP3    H115183   2.508   5.954   2.209 -0.0610  0.8867 -0.1849
 5059TIP3    H215184   2.379   5.974   2.133 -0.0367 -0.9318 -0.7464
 5060TIP3   OH215185   4.087   4.467   4.921  0.0031 -0.1333  0.4213
 5060TIP3    H115186   4.145   4.427   4.985  0.1350 -0.6222  0.0040
 5060TIP3    H215187   4.084   4.404   4.848  0.1704  0.5806 -0.2179
 5061TIP3   OH215188   1.639   3.878   0.829 -0.3914 -0.0262  1.3515
 5061TIP3    H115189   1.572   3.946   0.839 -0.4382 -0.0101  0.9488
 5061TIP3    H215190   1.714   3.911   0.878  0.4307  1.4589 -0.7554
 5062TIP3   OH215191   1.949   0.182   1.701 -0.2629  0.3645  0.4186
 5062TIP3    H115192   1.980   0.241   1.770  1.1353  0.3363 -0.1486
 5062TIP3    H215193   2.022   0.122   1.687 -0.7487  0.0174 -0.7017
 5063TIP3   OH215194   5.755   0.808   2.608  1.0209 -0.3821  0.0949
 5063TIP3    H115195   5.806   0.815   2.528  3.3740 -1.7402  1.3554
 5063TIP3    H215196   5.707   0.725   2.599 -0.5844  0.5909 -0.8211
 5064TIP3   OH215197   0.298   0.353   3.822 -0.2263 -0.2105 -0.7053
 5064TIP3    H115198   0.273   0.416   3.754 -1.6626 -0.9443 -0.8791
 5064TIP3    H215199   0.307   0.406   3.902  1.3375  0.6349 -1.3881
 5065TIP3   OH215200   4.917   2.180   4.564 -0.3256 -0.2378  0.4927
 5065TIP3    H115201   4.837   2.157   4.611 -1.0365 -0.2998 -0.7104
 5065TIP3    H215202   4.969   2.231   4.628 -0.8547 -1.0607  1.6096
 5066TIP3   OH215203   4.974   2.005   3.852 -0.5094  0.5702  0.0660
 5066TIP3    H115204   4.935   1.918   3.853 -0.9376  0.6517 -2.4508
 5066TIP3    H215205   4.943   2.047   3.932 -3.1246 -0.4416 -0.3434
 5067TIP3   OH215206   5.900   0.834   5.050  0.5782 -0.7105  0.2869
 5067TIP3    H115207   5.963   0.899   5.018  0.7186 -1.1910 -0.4314
 5067TIP3    H215208   5.952   0.773   5.102  0.6462 -0.9121 -0.0180
 5068TIP3   OH215209   2.298   5.872   1.892 -0.2543 -0.1246  0.0752
 5068TIP3    H115210   2.349   5.863   1.973 -2.0489  0.1503  1.2868
 5068TIP3    H215211   2.320   5.794   1.841 -2.0142 -2.4403  2.5638
 5069TIP3   OH215212   5.713   3.255   2.950  0.1160  0.1897 -0.0980
 5069TIP3    H115213   5.661   3.240   2.871 -1.5496  3.0223  0.3308
 5069TIP3    H215214   5.788   3.305   2.920  0.8460 -0.9380 -0.2095
 5070TIP3   OH215215   1.732   0.470   2.930 -0.0410  0.6488  0.4926
 5070TIP3    H115216   1.706   0.431   3.014  1.7201  3.2911  2.4269
 5070TIP3    H215217   1.649   0.485   2.884 -0.9058 -3.5537  0.2993
 5071TIP3   OH215218   3.666   1.428   3.775  0.0593 -0.3550  0.5530
 5071TIP3    H115219   3.728   1.396   3.710 -0.4341 -0.4482  0.1309
 5071TIP3    H215220   3.716   1.493   3.825  0.0631  0.7173 -0.7720
 5072TIP3   OH215221   3.042   3.024   1.315 -0.1202 -0.3187  0.0577
 5072TIP3    H115222   3.092   2.943   1.302  0.1244 -0.6347  2.5115
 5072TIP3    H215223   2.977   3.001   1.381 -1.1931  1.0500 -0.5018
 5073TIP3   OH215224   0.831   5.898   3.388 -0.8311 -0.0312  0.2622
 5073TIP3    H115225   0.782   5.843   3.327 -1.4973 -0.0911  0.8264
 5073TIP3    H215226   0.855   5.975   3.338 -0.1100 -0.7170 -0.4682
 5074TIP3   OH215227   0.116   5.955   0.354  0.2805 -0.2559  0.2689
 5074TIP3    H115228   0.098   6.034   0.406  1.3655  0.3267 -0.1982
 5074TIP3    H215229   0.041   5.899   0.369 -0.3754  0.7433  0.8633
 5075TIP3   OH215230   5.204   0.280   0.061  0.3250 -0.1308  0.0929
 5075TIP3    H115231   5.299   0.272   0.063  0.1797 -2.4527  0.5602
 5075TIP3    H215232   5.183   0.288  -0.032  0.7796 -4.9628 -0.6677
 5076TIP3   OH215233   4.220   5.171   1.061 -0.0227 -0.0392 -0.0542
 5076TIP3    H115234   4.144   5.227   1.076  0.5710  0.6529  0.5035
 5076TIP3    H215235   4.239   5.181   0.968  1.0122  1.9861  0.3173
 5077TIP3   OH215236   2.966   4.188   0.683  0.5358 -0.1677 -0.2436
 5077TIP3    H115237   2.878   4.157   0.662  0.2784 -2.1086  3.0025
 5077TIP3    H215238   3.010   4.112   0.720  2.6736  1.4273  0.7269
 5078TIP3   OH215239   1.954   2.636   3.583 -0.3529  0.5738  0.2387
 5078TIP3    H115240   1.916   2.600   3.663  0.3144 -0.3521  0.1552
 5078TIP3    H215241   1.957   2.730   3.598  0.4306  0.3459  1.5942
 5079TIP3   OH215242   5.703   5.437   1.468  0.5904 -0.2615  0.1799
 5079TIP3    H115243   5.678   5.465   1.556  0.2012  0.9829 -0.2957
 5079TIP3    H215244   5.680   5.344   1.464 -1.2936  0.1395  0.7353
 5080TIP3   OH215245   2.770   5.888   4.640 -0.0493 -0.3626 -0.2342
 5080TIP3    H115246   2.679   5.876   4.616  0.1775 -0.0553 -1.3169
 5080TIP3    H215247   2.780   5.983   4.648  0.4591 -0.3041 -1.3734
 5081TIP3   OH215248   0.488   5.479   3.240  0.1482 -0.4168  0.1264
 5081TIP3    H115249   0.394   5.463   3.234  0.3040 -1.9036  1.2140
 5081TIP3    H215250   0.518   5.485   3.149 -1.0285  0.4495 -0.2310
 5082TIP3   OH215251   0.953   5.071   1.819  0.5813  0.3687 -0.2882
 5082TIP3    H115252   1.030   5.126   1.807  0.6774  0.2957 -0.0003
 5082TIP3    H215253   0.927   5.085   1.910  0.3809  0.2288 -0.3234
 5083TIP3   OH215254   3.124   0.878   0.791  0.2984 -0.3893  0.1092
 5083TIP3    H115255   3.153   0.884   0.882 -0.7170 -0.0229  0.4271
 5083TIP3    H215256   3.052   0.814   0.794  1.5522 -1.9161 -0.7858
 5084TIP3   OH215257   0.510   0.975   4.202 -0.8341  0.8402  0.2351
 5084TIP3    H115258   0.467   0.987   4.117 -1.6405  0.3802  0.5623
 5084TIP3    H215259   0.491   0.884   4.225 -2.0729  1.4044  1.6714
 5085TIP3   OH215260   5.432   4.183   2.878 -0.1708  0.1139 -0.8718
 5085TIP3    H115261   5.463   4.114   2.936  1.1088  0.2787 -1.3332
 5085TIP3    H215262   5.454   4.153   2.790  1.7549  1.6869 -1.0141
 5086TIP3   OH215263   3.131   4.179   2.187  0.7637  0.4969  0.3702
 5086TIP3    H115264   3.113   4.132   2.268  1.8327 -0.2888  0.1711
 5086TIP3    H215265   3.125   4.272   2.211 -1.0727  0.2885  0.8381
 5087TIP3   OH215266   1.757   4.511   1.684 -0.4601 -0.0152  0.5150
 5087TIP3    H115267   1.747   4.513   1.779 -2.1837  1.2505  0.3691
 5087TIP3    H215268   1.826   4.574   1.665 -1.5051  1.2603  0.8347
 5088TIP3   OH215269   4.532   4.615   4.436 -0.3170  0.2145 -0.1500
 5088TIP3    H115270   4.550   4.542   4.496  0.8679  0.3548 -0.2938
 5088TIP3    H215271   4.531   4.574   4.350 -0.7335  0.2024 -0.1372
 5089TIP3   OH215272   0.998   4.687   1.259 -0.5958 -0.4790  0.5537
 5089TIP3    H115273   0.935   4.758   1.248  0.4332  0.6371  1.5311
 5089TIP3    H215274   1.069   4.726   1.311  1.5341 -1.2903 -1.5810
 5090TIP3   OH215275   4.589   0.604   3.201 -0.4383 -0.1184  0.2381
 5090TIP3    H115276   4.612   0.554   3.123  0.6280  0.5413  0.1113
 5090TIP3    H215277   4.655   0.580   3.266  0.0067  0.9872  0.2214
 5091TIP3   OH215278   2.482   0.055   1.683 -0.4535 -0.2792 -0.0908
 5091TIP3    H115279   2.488   0.139   1.638  0.4658 -0.5674 -0.5217
 5091TIP3    H215280   2.499  -0.010   1.615  1.0723 -0.7202  0.6682
 5092TIP3   OH215281   4.809   4.846   0.959 -0.6545 -0.2127  0.4731
 5092TIP3    H115282   4.831   4.753   0.965 -2.2947 -0.7301 -0.9219
 5092TIP3    H215283   4.716   4.847   0.938 -0.4492  1.7243 -0.5048
 5093TIP3   OH215284   2.939   2.905   3.173  0.2964  0.1181  0.3054
 5093TIP3    H115285   2.999   2.868   3.108  1.5594 -0.0627  1.4993
 5093TIP3    H215286   2.940   2.999   3.157 -0.0391 -0.0005 -0.4327
 5094TIP3   OH215287   3.758   4.986   2.098 -0.3212  0.7169 -0.1059
 5094TIP3    H115288   3.673   5.031   2.098  0.3920  2.1710  1.7085
 5094TIP3    H215289   3.786   4.986   2.189  0.3782 -2.3040 -0.2059
 5095TIP3   OH215290   3.423   1.858   0.891 -0.3677  0.3211 -0.0240
 5095TIP3    H115291   3.463   1.777   0.922 -3.2469 -1.4011 -0.4346
 5095TIP3    H215292   3.393   1.902   0.971 -0.0339  0.3066  0.1121
 5096TIP3   OH215293   1.767   5.158   0.330 -0.3279 -0.1723 -0.2111
 5096TIP3    H115294   1.721   5.241   0.347 -2.0608 -0.7381 -1.7311
 5096TIP3    H215295   1.816   5.174   0.250  0.9188 -0.0565  0.5540
 5097TIP3   OH215296   0.094   0.582   1.384 -0.4401 -0.1942 -0.0251
 5097TIP3    H115297   0.150   0.526   1.331 -1.2054 -1.1619  0.1505
 5097TIP3    H215298   0.012   0.532   1.393 -0.3240 -0.1108  2.0996
 5098TIP3   OH215299   4.652   0.773   3.972 -0.5728 -0.3608 -0.2880
 5098TIP3    H115300   4.748   0.769   3.966 -0.6166  0.2706 -1.6244
 5098TIP3    H215301   4.632   0.866   3.967 -1.2645 -0.4747  0.2086
 5099TIP3   OH215302   1.579   3.535   3.763 -0.1731 -0.0798  0.3838
 5099TIP3    H115303   1.487   3.537   3.792 -1.2597 -0.4651 -2.6945
 5099TIP3    H215304   1.614   3.455   3.803 -1.6407 -0.7601  0.4000
 5100TIP3   OH215305   3.901   5.594   5.061  0.0810 -0.5175 -0.2020
 5100TIP3    H115306   3.855   5.531   5.006  1.0471 -1.6351  0.2339
 5100TIP3    H215307   3.892   5.560   5.150  0.2465  0.1962  0.0955
 5101TIP3   OH215308   5.697   3.986   0.721  0.6564 -0.0575  0.1842
 5101TIP3    H115309   5.723   4.072   0.689  0.4806  0.0945  0.4391
 5101TIP3    H215310   5.647   4.004   0.801  1.3111 -0.4306  0.6998
 5102TIP3   OH215311   3.150   1.584   3.007 -0.9556  0.4129 -0.3232
 5102TIP3    H115312   3.156   1.593   2.912 -1.9744  0.2007 -0.4100
 5102TIP3    H215313   3.131   1.672   3.038 -0.7124  0.4645 -0.3128
 5103TIP3   OH215314   1.131   5.755   2.102 -0.3272 -0.1112  0.0604
 5103TIP3    H115315   1.093   5.696   2.036  0.6666 -1.6432  0.7876
 5103TIP3    H215316   1.199   5.702   2.144  0.0305  1.3072  1.3397
 5104TIP3   OH215317   6.177   4.161   4.143 -0.0882  0.1506 -0.1210
 5104TIP3    H115318   6.243   4.144   4.075 -0.2228 -1.2658  0.0531
 5104TIP3    H215319   6.094   4.134   4.103 -0.5401  1.6751 -0.2461
 5105TIP3   OH215320   3.961   2.731   2.583 -0.1530 -0.3422  0.0011
 5105TIP3    H115321   3.927   2.818   2.605 -0.2105 -0.2385 -0.4723
 5105TIP3    H215322   3.909   2.671   2.636  2.4064  0.0871  3.2787
 5106TIP3   OH215323   2.829   5.690   4.415 -0.1950 -0.0570 -0.2431
 5106TIP3    H115324   2.817   5.756   4.483  1.8394  0.2865 -0.1782
 5106TIP3    H215325   2.877   5.619   4.457  0.7740  0.0057 -1.2179
 5107TIP3   OH215326   3.799   1.726   4.749 -0.3022 -0.7023 -0.5137
 5107TIP3    H115327   3.866   1.671   4.790  0.0067  0.6644  0.9045
 5107TIP3    H215328   3.839   1.753   4.666  0.7445 -0.2949  0.0908
 5108TIP3   OH215329   2.529   3.686   1.221 -0.2255 -0.6927 -0.0518
 5108TIP3    H115330   2.494   3.679   1.133 -0.3482 -0.1445 -0.0475
 5108TIP3    H215331   2.492   3.611   1.268 -1.1214 -0.3071 -0.1383
 5109TIP3   OH215332   4.737   3.241   2.401  0.2324 -0.3670  0.0492
 5109TIP3    H115333   4.693   3.320   2.433 -0.7627  0.6296 -3.3042
 5109TIP3    H215334   4.675   3.170   2.418  0.0673 -0.0201  0.9225
 5110TIP3   OH215335   0.685   0.969   0.353 -0.5629 -0.7942  0.4220
 5110TIP3    H115336   0.614   0.925   0.400 -1.1117 -1.1685 -0.7304
 5110TIP3    H215337   0.707   0.910   0.281  0.6933 -0.5176  0.5614
 5111TIP3   OH215338   2.889   1.781   4.426 -0.0683 -0.5288 -0.1930
 5111TIP3    H115339   2.916   1.755   4.514 -0.4474 -2.6214 -0.6489
 5111TIP3    H215340   2.795   1.766   4.425 -0.3778  1.1719 -0.4472
 5112TIP3   OH215341   1.850   5.163   3.813  0.5708 -0.0118  0.3010
 5112TIP3    H115342   1.795   5.102   3.862  0.1030 -0.0281 -0.2390
 5112TIP3    H215343   1.837   5.139   3.721  1.8514 -0.3168  0.1940
 5113TIP3   OH215344   3.092   2.497   1.367 -0.8202 -0.2563 -0.5854
 5113TIP3    H115345   3.142   2.516   1.447 -0.3418  0.2031 -0.9858
 5113TIP3    H215346   3.085   2.582   1.323 -0.7628 -0.5749 -1.2135
 5114TIP3   OH215347   1.816   5.905   0.971  0.5853 -0.2140  0.2769
 5114TIP3    H115348   1.840   5.824   1.015  0.4460 -0.8925 -0.8540
 5114TIP3    H215349   1.888   5.921   0.909 -0.0748 -0.2517 -0.5085
 5115TIP3   OH215350   5.214   0.740   3.499  0.6970  0.1193 -0.2479
 5115TIP3    H115351   5.171   0.815   3.540  1.1727  0.4261 -0.2990
 5115TIP3    H215352   5.280   0.713   3.563  0.2693 -0.5110 -0.0577
 5116TIP3   OH215353   5.818   4.034   3.133 -0.0849  0.6234  0.3902
 5116TIP3    H115354   5.812   3.949   3.177 -0.7138  0.7255  0.5110
 5116TIP3    H215355   5.789   4.097   3.199 -1.6760  0.7159 -0.3509
 5117TIP3   OH215356   0.453   2.069   0.464 -0.0206  0.4545 -0.1846
 5117TIP3    H115357   0.492   1.984   0.446 -0.5418  0.0138  0.7312
 5117TIP3    H215358   0.417   2.061   0.552 -0.2792  1.5478 -0.1800
 5118TIP3   OH215359   5.811   3.377   1.893  0.0703 -0.6838 -0.4642
 5118TIP3    H115360   5.902   3.368   1.864  0.1997 -0.5642 -0.0976
 5118TIP3    H215361   5.815   3.368   1.988 -0.2146  0.0218 -0.3824
 5119TIP3   OH215362   0.645   0.256   4.596 -0.0268  0.4019 -0.5430
 5119TIP3    H115363   0.637   0.167   4.632  1.6711  0.6261  0.4792
 5119TIP3    H215364   0.556   0.279   4.570 -1.3089 -0.0616  2.8675
 5120TIP3   OH215365   1.557   4.288   2.218  0.1747  0.2929  0.4230
 5120TIP3    H115366   1.499   4.212   2.212 -1.1552  1.2224  0.9999
 5120TIP3    H215367   1.544   4.321   2.307  1.1508  0.8728  0.3610
 5121TIP3   OH215368   3.442   0.213   2.376  0.2188 -0.2735 -0.4779
 5121TIP3    H115369   3.393   0.130   2.371 -0.5803  0.0511  1.1526
 5121TIP3    H215370   3.395   0.272   2.317 -0.0288 -0.6099 -0.6225
 5122TIP3   OH215371   5.987   0.226   1.846  0.2159 -0.2027  0.3130
 5122TIP3    H115372   6.082   0.237   1.845  0.3894 -1.4659 -0.4833
 5122TIP3    H215373   5.974   0.133   1.828 -1.1934  0.1661 -0.7917
 5123TIP3   OH215374   4.241   0.843   4.097  0.0941  0.9920  0.4451
 5123TIP3    H115375   4.251   0.929   4.138 -1.0085  1.2741  0.1728
 5123TIP3    H215376   4.250   0.781   4.170  2.3932  1.2067  0.4186
 5124TIP3   OH215377   4.717   2.664   3.089  0.2569  0.2728  0.6802
 5124TIP3    H115378   4.768   2.597   3.134  0.6180  0.3499  0.3918
 5124TIP3    H215379   4.779   2.704   3.028 -0.6067 -0.8860 -1.0266
 5125TIP3   OH215380   4.091   0.594   4.725  0.0970  0.0184 -0.3893
 5125TIP3    H115381   3.996   0.604   4.729  0.1745  0.3206  2.4403
 5125TIP3    H215382   4.123   0.679   4.696 -0.4454  0.3442 -0.0439
 5126TIP3   OH215383   3.456   2.530   0.197 -0.1285 -0.3340 -0.0793
 5126TIP3    H115384   3.481   2.461   0.258 -0.1866  0.3278  0.7211
 5126TIP3    H215385   3.505   2.511   0.117  1.5593 -0.1092  0.8427
 5127TIP3   OH215386   3.922   0.299   3.518 -0.0260 -0.1418 -0.5203
 5127TIP3    H115387   3.977   0.221   3.520  0.8268  0.4399 -0.9262
 5127TIP3    H215388   3.969   0.361   3.462  0.2633  1.3789  1.2956
 5128TIP3   OH215389   4.107   5.341  -0.014  0.0841  0.6611  0.1640
 5128TIP3    H115390   4.032   5.292   0.021 -0.3058  0.5630 -0.7874
 5128TIP3    H215391   4.134   5.397   0.059 -0.5899  0.3265  0.6915
 5129TIP3   OH215392   2.379   0.444   4.936  0.1782 -0.3668 -0.7374
 5129TIP3    H115393   2.334   0.403   4.862  0.3927 -2.3442  0.1856
 5129TIP3    H215394   2.325   0.422   5.012  0.6338  0.5858 -0.1227
 5130TIP3   OH215395   3.540   4.689   2.273  0.6950  0.3540 -0.3873
 5130TIP3    H115396   3.461   4.718   2.227  1.1287 -0.1538 -1.4984
 5130TIP3    H215397   3.541   4.741   2.353 -1.3408 -0.4165  0.1985
 5131TIP3   OH215398   3.214   3.215   1.574 -0.0362 -0.1038  0.2761
 5131TIP3    H115399   3.256   3.141   1.530  1.3567  0.4899  0.5671
 5131TIP3    H215400   3.150   3.247   1.510  0.6712 -0.3898 -0.5934
 5132TIP3   OH215401   1.749   1.028   5.070  0.3672  0.0232 -0.3360
 5132TIP3    H115402   1.823   0.995   5.018  0.6350 -0.1972  0.1820
 5132TIP3    H215403   1.784   1.102   5.118 -0.0636  0.6562 -0.9848
 5133TIP3   OH215404   2.478   2.408   4.202 -0.3884 -0.2815  0.4851
 5133TIP3    H115405   2.520   2.421   4.116 -0.9842  0.9023  0.3579
 5133TIP3    H215406   2.404   2.350   4.184  0.4170 -1.3327  0.4881
 5134TIP3   OH215407   4.360   3.868   0.462 -0.2804  0.7005 -0.1511
 5134TIP3    H115408   4.269   3.845   0.482  0.4963 -1.4767  1.2677
 5134TIP3    H215409   4.401   3.784   0.442  1.7594  1.4303  0.7800
 5135TIP3   OH215410   5.443   5.710   4.850 -0.3063  0.4714  0.0821
 5135TIP3    H115411   5.409   5.712   4.760 -0.7867 -1.4174  0.1842
 5135TIP3    H215412   5.456   5.802   4.872  0.3285  0.9734 -2.1011
 5136TIP3   OH215413   2.140   2.586   4.104  0.3245  0.0189 -0.6886
 5136TIP3    H115414   2.167   2.584   4.196 -1.2763  1.0138 -0.1537
 5136TIP3    H215415   2.052   2.549   4.104  0.6679 -0.8462 -1.9798
 5137TIP3   OH215416   0.802   0.498   3.840 -0.2629 -0.0292 -0.4943
 5137TIP3    H115417   0.760   0.456   3.914  0.0843 -0.5063 -0.5604
 5137TIP3    H215418   0.732   0.510   3.776 -0.7447  1.1369  0.2153
 5138TIP3   OH215419   0.101   1.834   1.671  0.3501  0.5179  0.1437
 5138TIP3    H115420   0.051   1.916   1.680  0.8590  0.8236  0.2020
 5138TIP3    H215421   0.096   1.814   1.577 -2.5809 -1.1809  0.5347
 5139TIP3   OH215422   4.382   0.472   2.657 -0.2820 -0.3770 -0.5596
 5139TIP3    H115423   4.451   0.409   2.675 -0.9490 -1.0682 -0.3987
 5139TIP3    H215424   4.323   0.466   2.733 -0.9086 -0.3337 -1.0354
 5140TIP3   OH215425   3.422   3.811   0.714 -0.7692 -0.1515 -0.5538
 5140TIP3    H115426   3.486   3.875   0.747 -0.3313 -0.7912 -0.1307
 5140TIP3    H215427   3.470   3.764   0.646 -0.3397 -1.4742  0.6089
 5141TIP3   OH215428   0.908   5.845   2.762 -0.3003  0.6062 -0.1793
 5141TIP3    H115429   0.865   5.849   2.676 -1.1498  0.0074  0.2062
 5141TIP3    H215430   0.843   5.806   2.820  0.9244 -0.7626  0.3379
 5142TIP3   OH215431   5.545   0.400   0.590 -0.0024 -0.5835  0.3761
 5142TIP3    H115432   5.491   0.321   0.576 -2.8270  0.6103  3.2845
 5142TIP3    H215433   5.587   0.385   0.675 -0.1744  0.7913  0.7240
 5143TIP3   OH215434   1.246   0.388   4.482  0.0378  0.5084  0.6045
 5143TIP3    H115435   1.271   0.408   4.572 -0.9320  0.7725  0.8192
 5143TIP3    H215436   1.185   0.457   4.458  0.6285  0.6959 -0.4215
 5144TIP3   OH215437   4.450   0.374   2.223  0.2076 -0.1606  0.2883
 5144TIP3    H115438   4.455   0.463   2.190  2.8380  0.1410  1.2735
 5144TIP3    H215439   4.527   0.330   2.186 -0.2290 -1.5816  0.9895
 5145TIP3   OH215440   1.252   3.338   3.577 -0.0793 -0.6393  0.1565
 5145TIP3    H115441   1.199   3.399   3.525 -1.7161 -1.7877  0.3770
 5145TIP3    H215442   1.299   3.394   3.639  0.7984  0.6251 -1.5771
 5146TIP3   OH215443   2.371   0.009   3.893 -0.2679  0.2452 -0.1722
 5146TIP3    H115444   2.421   0.087   3.870  0.8377 -0.2509  0.4857
 5146TIP3    H215445   2.280   0.038   3.892  0.0341  1.2190 -1.1601
 5147TIP3   OH215446   0.797   2.143   1.804  0.5276 -0.5344  0.1873
 5147TIP3    H115447   0.859   2.072   1.813  0.3642 -0.8698 -1.0950
 5147TIP3    H215448   0.735   2.131   1.876  2.3818  0.3101  2.0131
 5148TIP3   OH215449   5.996   3.659   2.005 -0.5804  0.0632 -0.2289
 5148TIP3    H115450   5.929   3.642   2.072 -0.8910 -1.6258 -0.9378
 5148TIP3    H215451   5.996   3.581   1.950 -0.6058  1.5433 -2.4673
 5149TIP3   OH215452   5.450   1.628   3.528  0.3153  0.6112  0.0181
 5149TIP3    H115453   5.392   1.653   3.456 -0.5506  1.6427  1.0329
 5149TIP3    H215454   5.407   1.663   3.607  1.3101 -0.3482  1.0240
 5150TIP3   OH215455   2.390   2.543   4.921 -0.5695  0.2649  0.5020
 5150TIP3    H115456   2.363   2.632   4.942 -2.0930  0.0261 -0.3399
 5150TIP3    H215457   2.322   2.487   4.958 -0.3520 -0.4613 -0.1592
 5151TIP3   OH215458   4.016   5.790   1.838  0.3119  0.3661 -0.5491
 5151TIP3    H115459   4.039   5.841   1.761  0.4711  0.0229 -0.7319
 5151TIP3    H215460   4.055   5.838   1.911  1.3166 -0.0122 -0.8201
 5152TIP3   OH215461   4.662   2.191   1.888  0.1921  0.3941 -0.2604
 5152TIP3    H115462   4.633   2.167   1.800  0.6693  0.9976 -0.5906
 5152TIP3    H215463   4.757   2.181   1.886  0.1334 -0.4942  0.4781
 5153TIP3   OH215464   5.066   5.111   4.119  0.2057 -0.2265  0.4908
 5153TIP3    H115465   4.990   5.151   4.077  0.4605 -0.5345 -0.2873
 5153TIP3    H215466   5.041   5.019   4.131 -0.8545  0.3429  3.3953
 5154TIP3   OH215467   3.932   1.326   1.167  0.0052 -0.2194  0.2447
 5154TIP3    H115468   3.986   1.380   1.225  1.4287 -0.9534 -0.3420
 5154TIP3    H215469   3.867   1.287   1.225  0.3197  0.3988  1.0465
 5155TIP3   OH215470   4.176   4.284   1.321  0.0104  0.1628 -0.3084
 5155TIP3    H115471   4.111   4.268   1.253  0.2267  1.5217 -0.8701
 5155TIP3    H215472   4.128   4.330   1.390  0.4255  1.5037 -0.8866
 5156TIP3   OH215473   1.305   0.475   4.728 -0.4410  0.0012 -0.3107
 5156TIP3    H115474   1.280   0.542   4.792 -1.4298 -2.7125  2.3783
 5156TIP3    H215475   1.399   0.462   4.743 -0.3349  0.4494 -0.5531
 5157TIP3   OH215476   5.411   3.305   1.299  0.0952  0.7264  0.0454
 5157TIP3    H115477   5.392   3.316   1.206  1.2004 -0.8135 -0.3855
 5157TIP3    H215478   5.417   3.395   1.332  2.2203  1.4036 -1.9135
 5158TIP3   OH215479   3.422   4.458   4.646 -0.9547 -0.1823  0.2161
 5158TIP3    H115480   3.409   4.550   4.622  1.2974  0.6791  1.9224
 5158TIP3    H215481   3.341   4.434   4.692 -1.4990  1.0053 -0.0701
 5159TIP3   OH215482   0.310   0.205   1.510  0.1358 -0.2055  0.1495
 5159TIP3    H115483   0.218   0.204   1.536  0.2609 -0.2715  0.6119
 5159TIP3    H215484   0.351   0.267   1.571 -0.1166  2.1367 -1.9200
 5160TIP3   OH215485   2.415   4.979   2.043  0.5304 -0.2141 -0.0762
 5160TIP3    H115486   2.426   4.921   1.968 -1.9747 -2.0643  0.8464
 5160TIP3    H215487   2.341   5.035   2.019  0.9095  0.4602  0.3040
 5161TIP3   OH215488   4.854   0.586   4.963 -0.3719 -0.3888 -0.2273
 5161TIP3    H115489   4.912   0.574   4.888  0.3310  0.8271  0.1047
 5161TIP3    H215490   4.796   0.657   4.937 -0.0622  0.1056  0.4091
 5162TIP3   OH215491   4.876   2.299   1.195  0.5005  0.3497  0.7803
 5162TIP3    H115492   4.813   2.252   1.249 -0.5759  2.6289  1.6486
 5162TIP3    H215493   4.911   2.368   1.252 -1.2633  3.3813 -1.4952
 5163TIP3   OH215494   4.317   0.746   3.849  0.8077 -0.0812 -0.3036
 5163TIP3    H115495   4.298   0.781   3.936  0.9895 -0.9171  0.0818
 5163TIP3    H215496   4.232   0.741   3.805  0.2998 -2.2675  0.8277
 5164TIP3   OH215497   1.210   3.547   4.909 -0.1214 -0.4243  0.0004
 5164TIP3    H115498   1.140   3.588   4.959 -0.3094  1.5006 -1.6737
 5164TIP3    H215499   1.182   3.456   4.897 -1.9624  0.1005  0.0126
 5165TIP3   OH215500   3.813   3.613   4.338  0.6478 -0.1878 -0.0183
 5165TIP3    H115501   3.882   3.674   4.315  0.1619  0.4159  0.1118
 5165TIP3    H215502   3.732   3.657   4.313  0.3254 -1.0209 -0.4677
 5166TIP3   OH215503   6.179   4.129   1.276  0.0641 -0.4068 -0.1654
 5166TIP3    H115504   6.198   4.177   1.356 -1.1577  0.5765 -0.4379
 5166TIP3    H215505   6.087   4.104   1.283  0.0317 -0.6085 -1.1072
 5167TIP3   OH215506   4.847   0.607   1.639  0.4660  0.0107 -0.1603
 5167TIP3    H115507   4.752   0.595   1.635  0.5469 -0.4641 -0.9628
 5167TIP3    H215508   4.880   0.560   1.562  1.4002 -0.3484  0.4402
 5168TIP3   OH215509   0.861   0.787   3.539  0.1984  0.0024  0.2575
 5168TIP3    H115510   0.843   0.810   3.631  0.9015 -2.3305  1.0625
 5168TIP3    H215511   0.781   0.813   3.492  0.2472  2.2258  1.2998
 5169TIP3   OH215512   1.776   1.043   4.263 -0.4001  0.2441  0.0575
 5169TIP3    H115513   1.793   1.137   4.268  2.3715 -0.1197 -0.7745
 5169TIP3    H215514   1.834   1.005   4.329 -0.8707 -0.9473 -0.1951
 5170TIP3   OH215515   1.432   1.760   4.926  0.1105  0.1152 -0.1939
 5170TIP3    H115516   1.499   1.785   4.989  0.4131 -1.1035 -0.0084
 5170TIP3    H215517   1.481   1.730   4.849 -0.1980 -1.2238  0.1181
 5171TIP3   OH215518   6.270   0.688   2.150  0.0821 -0.2394  0.1082
 5171TIP3    H115519   6.191   0.675   2.098  0.2670 -1.1263  0.0310
 5171TIP3    H215520   6.248   0.651   2.236 -0.1982  1.1480  0.6570
 5172TIP3   OH215521   5.109   5.887   0.095  0.3776 -0.1383  0.0913
 5172TIP3    H115522   5.192   5.929   0.074 -0.4162  2.0440  0.9143
 5172TIP3    H215523   5.128   5.830   0.169  1.1766  0.2267  0.1721
 5173TIP3   OH215524   5.176   5.760   1.169 -0.4031  0.1909  0.4852
 5173TIP3    H115525   5.180   5.680   1.222 -0.9305  0.8100  1.4747
 5173TIP3    H215526   5.155   5.729   1.081 -2.2152 -0.6402  1.1742
 5174TIP3   OH215527   1.193   4.869   2.694  0.6789 -0.2336 -0.5549
 5174TIP3    H115528   1.167   4.908   2.778  1.0740  0.1101 -0.5871
 5174TIP3    H215529   1.276   4.913   2.672  0.8903 -0.7629 -0.8249
 5175TIP3   OH215530   0.093   3.397   1.867 -0.2931  0.0748  0.2102
 5175TIP3    H115531   0.137   3.370   1.948  0.6196 -0.0220 -0.3015
 5175TIP3    H215532   0.016   3.340   1.861  0.0736 -0.4710  0.5966
 5176TIP3   OH215533   0.661   1.419   4.561  0.3046 -0.1682 -0.9875
 5176TIP3    H115534   0.633   1.509   4.577 -1.1042 -0.1905 -2.9029
 5176TIP3    H215535   0.756   1.423   4.560  0.4077  0.5901  2.4177
 5177TIP3   OH215536   4.204   5.324   4.908  0.6189  0.1807 -0.7938
 5177TIP3    H115537   4.211   5.296   4.999  0.4885 -0.2816 -0.9217
 5177TIP3    H215538   4.256   5.260   4.859 -0.9859 -0.8189 -1.2720
 5178TIP3   OH215539   1.554   4.867   2.208  0.3725  0.7182 -0.6468
 5178TIP3    H115540   1.575   4.774   2.204  1.0110  0.7776  0.6594
 5178TIP3    H215541   1.638   4.909   2.225 -0.1232  1.3947  0.1692
 5179TIP3   OH215542   1.111   5.210   2.607 -0.2493  0.3365 -0.9067
 5179TIP3    H115543   1.204   5.229   2.613 -0.1598 -0.4267  0.3416
 5179TIP3    H215544   1.071   5.262   2.677 -0.6274 -0.1233 -0.7723
 5180TIP3   OH215545   0.110   3.404   2.779  0.1457 -0.3888  0.3978
 5180TIP3    H115546   0.154   3.366   2.702 -0.5362 -0.0340 -0.1798
 5180TIP3    H215547   0.142   3.494   2.782  0.1910 -0.4099  0.5530
 5181TIP3   OH215548   4.708   1.139   2.348  0.4496  0.6190 -0.4334
 5181TIP3    H115549   4.779   1.075   2.340  1.1807  0.9534  2.3398
 5181TIP3    H215550   4.642   1.095   2.401 -0.1814  1.3114 -0.6313
 5182TIP3   OH215551   2.787   4.253   2.214  0.6633  0.2588 -0.4641
 5182TIP3    H115552   2.829   4.328   2.254  1.0962 -0.5922  0.7174
 5182TIP3    H215553   2.701   4.285   2.187  0.1274  0.7555  1.6518
 5183TIP3   OH215554   5.785   3.109   0.249  0.6519  0.1234  0.2538
 5183TIP3    H115555   5.788   3.181   0.311  2.0198  0.5173 -0.2499
 5183TIP3    H215556   5.747   3.036   0.298  0.6543  0.7556  1.2058
 5184TIP3   OH215557   2.324   2.885   3.692 -0.1909 -0.5313  0.8555
 5184TIP3    H115558   2.382   2.943   3.742  0.5003 -1.0569  0.6693
 5184TIP3    H215559   2.244   2.881   3.745 -0.3656  0.7968  0.7398
 5185TIP3   OH215560   2.152   0.202   2.908 -0.2419  0.0912  0.0594
 5185TIP3    H115561   2.224   0.265   2.910  0.7510 -1.0105  1.4221
 5185TIP3    H215562   2.085   0.239   2.966  1.1165 -0.8673  2.4275
 5186TIP3   OH215563   0.733   2.189   0.982 -0.6963  0.2733  0.4176
 5186TIP3    H115564   0.685   2.269   1.004 -1.8258  0.0442 -1.0982
 5186TIP3    H215565   0.666   2.126   0.957 -0.0361 -1.8738  3.4328
 5187TIP3   OH215566   5.151   4.815   0.114  0.0182  0.1340  0.4888
 5187TIP3    H115567   5.084   4.838   0.050  0.7675  0.6818 -0.1125
 5187TIP3    H215568   5.220   4.772   0.063 -0.7464 -2.3667  1.3892
 5188TIP3   OH215569   4.389   4.946   2.834 -0.0430 -0.2669  0.8790
 5188TIP3    H115570   4.301   4.984   2.831  0.2154  0.2842 -0.8438
 5188TIP3    H215571   4.444   5.014   2.874 -0.3165 -0.4840  1.6482
 5189TIP3   OH215572   0.083   1.975   3.211 -0.0939  0.3816  0.0710
 5189TIP3    H115573   0.178   1.981   3.201 -0.0127 -0.0595  0.5109
 5189TIP3    H215574   0.048   2.047   3.158  0.4406 -0.0216 -0.8648
 5190TIP3   OH215575   2.635  -0.023   3.005  0.3676  0.2088  0.0675
 5190TIP3    H115576   2.558   0.023   2.972  0.4636  0.3187 -0.0044
 5190TIP3    H215577   2.704   0.043   3.003  0.6930 -0.1385 -0.7613
 5191TIP3   OH215578   2.936   2.811   2.703 -0.6780  0.7791  0.4121
 5191TIP3    H115579   2.853   2.847   2.736 -1.2505  0.6678 -0.8510
 5191TIP3    H215580   2.910   2.733   2.654  0.1119  1.0496 -0.4638
 5192TIP3   OH215581   0.373   3.971   4.252  0.0377  0.4724  0.4008
 5192TIP3    H115582   0.351   4.061   4.272 -0.6946  0.4725 -0.3717
 5192TIP3    H215583   0.451   3.977   4.197 -0.3709  0.6761 -0.1688
 5193TIP3   OH215584   1.857   3.810   3.474 -0.5348  0.3964  0.3780
 5193TIP3    H115585   1.813   3.828   3.392 -1.3431 -1.3872  0.3905
 5193TIP3    H215586   1.822   3.875   3.535  0.4554  2.0674 -0.7605
 5194TIP3   OH215587   0.755   0.393   4.805 -0.1236 -0.1713 -0.0538
 5194TIP3    H115588   0.848   0.383   4.787 -0.2123 -0.6707 -0.2373
 5194TIP3    H215589   0.712   0.335   4.742 -0.5504 -0.0950  0.1649
 5195TIP3   OH215590   3.370   1.569   0.390  0.0008  0.3432 -0.2417
 5195TIP3    H115591   3.425   1.648   0.383 -0.0198  0.5347  1.4438
 5195TIP3    H215592   3.285   1.601   0.418 -0.0062 -0.2753  0.4664
 5196TIP3   OH215593   0.915   2.481   0.793  0.6870 -0.2187 -0.0238
 5196TIP3    H115594   0.890   2.537   0.866  1.9552  2.1736 -1.2873
 5196TIP3    H215595   0.834   2.469   0.743 -0.0538 -1.3886  1.3865
 5197TIP3   OH215596   5.307   1.125   3.266  0.2573 -0.0691 -0.0730
 5197TIP3    H115597   5.264   1.170   3.338  1.4810 -1.1181  1.3798
 5197TIP3    H215598   5.253   1.047   3.250  0.0039  0.1464 -0.2757
 5198TIP3   OH215599   5.970   3.074   1.100 -0.4238 -0.1199 -0.0875
 5198TIP3    H115600   5.882   3.038   1.086 -0.0407 -0.5883 -1.3899
 5198TIP3    H215601   6.024   3.035   1.032  0.6049  0.8951  0.1031
 5199TIP3   OH215602   4.701   2.887   0.410 -0.7651 -0.0529 -0.5891
 5199TIP3    H115603   4.709   2.860   0.318 -1.9124  1.9421 -1.3329
 5199TIP3    H215604   4.790   2.882   0.444  0.0659  1.1653 -2.4376
 5200TIP3   OH215605   3.331   4.480   0.072  0.5972 -0.0505  0.6747
 5200TIP3    H115606   3.245   4.520   0.090  0.8484  1.0350 -0.4086
 5200TIP3    H215607   3.324   4.392   0.108 -0.3359  0.6159  2.2536
 5201TIP3   OH215608   4.289   5.278   2.867 -0.2186 -0.2440  0.0790
 5201TIP3    H115609   4.356   5.329   2.914  0.2972 -2.0344  1.3920
 5201TIP3    H215610   4.227   5.252   2.935 -1.4555  0.1146 -0.8778
 5202TIP3   OH215611   6.201   5.918   2.193  0.2871  0.2070 -1.1000
 5202TIP3    H115612   6.229   5.920   2.284  0.5147  1.8671 -1.1878
 5202TIP3    H215613   6.276   5.882   2.145  0.5678  0.3655 -0.7805
 5203TIP3   OH215614   1.555   2.367   0.696 -0.3025 -0.2360 -0.5295
 5203TIP3    H115615   1.478   2.339   0.746 -0.3040 -0.2403 -0.5343
 5203TIP3    H215616   1.520   2.385   0.608  0.2985 -3.8752 -1.6594
 5204TIP3   OH215617   5.932   5.619   0.879  0.2039 -0.1778  0.0301
 5204TIP3    H115618   5.902   5.643   0.791 -2.3650 -0.8598  0.6369
 5204TIP3    H215619   5.991   5.545   0.865 -0.2266 -0.3259 -1.1345
 5205TIP3   OH215620   4.200   1.147   2.575 -0.1950  0.0562  0.1513
 5205TIP3    H115621   4.230   1.105   2.655  1.7967 -2.0539 -1.5934
 5205TIP3    H215622   4.235   1.236   2.580 -0.0109 -0.0773  1.5424
 5206TIP3   OH215623   1.405   2.082   0.954  0.1469  0.2045  0.0778
 5206TIP3    H115624   1.447   2.017   0.897  1.6177 -0.8942  2.2785
 5206TIP3    H215625   1.328   2.036   0.989 -0.7973  0.9026 -1.0225
 5207TIP3   OH215626   0.469   2.931   2.988  0.2173 -0.5632 -0.0404
 5207TIP3    H115627   0.544   2.888   3.029 -0.4420 -0.6536  1.1220
 5207TIP3    H215628   0.401   2.864   2.984 -1.1040  0.4869  2.5635
 5208TIP3   OH215629   0.038   4.958   4.213 -0.3414 -0.2359  0.3817
 5208TIP3    H115630  -0.011   4.992   4.289 -1.1017  0.7649 -0.5286
 5208TIP3    H215631   0.129   4.975   4.234 -0.5709  0.3997  0.9095
 5209TIP3   OH215632   2.025   1.891   0.404 -0.4997 -0.4286 -0.7794
 5209TIP3    H115633   2.028   1.976   0.448 -0.8887 -0.0119 -1.5530
 5209TIP3    H215634   1.980   1.907   0.322  1.0518 -0.9920 -1.8009
 5210TIP3   OH215635   0.035   5.118   3.124 -0.0641 -0.1144  0.4486
 5210TIP3    H115636   0.056   5.083   3.038 -0.8549  1.0029 -0.2250
 5210TIP3    H215637   0.079   5.060   3.186  0.5401 -0.9053 -0.7100
 5211TIP3   OH215638   2.431   1.270   2.312 -0.9617  0.4560  0.3893
 5211TIP3    H115639   2.398   1.357   2.333 -0.9007  0.0369  2.4305
 5211TIP3    H215640   2.521   1.270   2.346 -0.6265 -0.1060 -0.4565
 5212TIP3   OH215641   5.898   5.069   1.224 -0.4615 -0.0170 -0.2759
 5212TIP3    H115642   5.850   5.022   1.155 -1.1167 -0.5975  0.5506
 5212TIP3    H215643   5.933   4.999   1.279  0.8567  0.4177 -0.5270
 5213TIP3   OH215644   6.112   2.837   4.699  0.0510  0.1836 -0.7202
 5213TIP3    H115645   6.175   2.795   4.641 -0.6891 -0.7606 -0.8736
 5213TIP3    H215646   6.123   2.793   4.783 -0.4415 -0.0302 -0.7646
 5214TIP3   OH215647   0.029   1.727   2.665 -0.2740 -0.0158  0.4596
 5214TIP3    H115648  -0.064   1.711   2.683 -0.1178 -0.5902  0.7724
 5214TIP3    H215649   0.071   1.642   2.677  0.4074  0.3925  1.0681
 5215TIP3   OH215650   1.522   4.316   4.669 -0.0612  0.2956  0.2351
 5215TIP3    H115651   1.437   4.306   4.712 -0.1189  0.8188  0.2508
 5215TIP3    H215652   1.542   4.409   4.678  0.9479  0.0146  1.0336
 5216TIP3   OH215653   1.378   4.250   3.294  0.7084  0.0032  0.0910
 5216TIP3    H115654   1.332   4.315   3.240 -0.9102 -0.1557  1.1842
 5216TIP3    H215655   1.462   4.292   3.315  1.0792  0.3570 -1.8844
 5217TIP3   OH215656   1.906   4.459   3.180  0.0964  0.6302 -0.2174
 5217TIP3    H115657   1.946   4.536   3.222 -0.8777  0.7903  0.4473
 5217TIP3    H215658   1.854   4.418   3.249 -0.8374  0.3953 -1.0391
 5218TIP3   OH215659   2.680   5.319   0.576 -0.0081  0.0579  0.4016
 5218TIP3    H115660   2.621   5.393   0.584 -0.2383  0.2689 -2.4189
 5218TIP3    H215661   2.666   5.268   0.656 -0.0916  2.8025  2.2526
 5219TIP3   OH215662   4.307   3.604   3.926 -0.0662  0.0463 -0.3745
 5219TIP3    H115663   4.301   3.558   3.843 -0.4360  0.6651 -0.6995
 5219TIP3    H215664   4.316   3.697   3.901  1.6529  0.0920  0.2262
 5220TIP3   OH215665   2.148   1.305   4.289 -0.4045  0.1118 -0.0799
 5220TIP3    H115666   2.145   1.218   4.329 -0.9916 -0.1995 -0.7872
 5220TIP3    H215667   2.073   1.307   4.230  1.1187  0.1000 -2.1125
 5221TIP3   OH215668   4.807   4.762   2.696  0.3689 -0.0008 -0.6162
 5221TIP3    H115669   4.750   4.774   2.772 -0.0896 -0.1020 -0.9448
 5221TIP3    H215670   4.894   4.750   2.734  0.0211 -0.8513 -0.0688
 5222TIP3   OH215671   3.298   1.509   3.374 -0.1832 -0.0097  0.6174
 5222TIP3    H115672   3.339   1.523   3.460 -1.7829  0.5466  1.3167
 5222TIP3    H215673   3.323   1.585   3.323  0.7762 -0.3405  0.5653
 5223TIP3   OH215674   5.691   0.814   3.475 -0.1782 -0.1899 -0.1797
 5223TIP3    H115675   5.622   0.881   3.478  2.6146  3.1014 -1.3418
 5223TIP3    H215676   5.676   0.769   3.392  0.3736  2.2892 -1.7613
 5224TIP3   OH215677   2.890   3.589   3.529 -0.0443 -0.0207  0.2592
 5224TIP3    H115678   2.955   3.659   3.525  0.4523 -0.5048 -0.2372
 5224TIP3    H215679   2.937   3.514   3.564 -0.5443 -0.1498  0.6668
 5225TIP3   OH215680   3.397   1.243   3.249  0.6698  0.1152  0.7908
 5225TIP3    H115681   3.367   1.156   3.275 -0.2980  0.0456 -0.4571
 5225TIP3    H215682   3.403   1.292   3.331 -0.7506 -0.5370  1.3186
 5226TIP3   OH215683   3.659   4.931   0.252  0.2741  0.3061 -0.1713
 5226TIP3    H115684   3.753   4.935   0.270 -0.1160  1.8244  1.9423
 5226TIP3    H215685   3.622   4.891   0.331 -0.8977  0.0748 -0.8182
 5227TIP3   OH215686   5.201   2.215   1.470 -0.5857 -0.1251 -0.5702
 5227TIP3    H115687   5.186   2.139   1.414 -0.5262 -0.3079 -0.3396
 5227TIP3    H215688   5.291   2.203   1.502 -1.0065 -0.6130  0.4668
 5228TIP3   OH215689   1.293   3.763   4.269 -0.2896 -0.2465 -0.0783
 5228TIP3    H115690   1.384   3.732   4.267 -0.6624 -1.9572  3.3214
 5228TIP3    H215691   1.242   3.686   4.242 -0.8389  0.1607 -0.2025
 5229TIP3   OH215692   5.204   3.209   4.147 -0.0132  0.2191 -0.1524
 5229TIP3    H115693   5.162   3.251   4.222 -1.2604 -0.0794 -0.6602
 5229TIP3    H215694   5.218   3.281   4.084 -0.4759  0.2008 -0.2835
 5230TIP3   OH215695   5.844   1.480   1.480 -0.0255 -0.1449  0.3622
 5230TIP3    H115696   5.929   1.445   1.506  0.3529  0.2177 -0.3429
 5230TIP3    H215697   5.825   1.438   1.396  0.2600  1.0209 -0.3079
 5231TIP3   OH215698   4.755   5.919   0.761  0.2384  0.1145 -0.0154
 5231TIP3    H115699   4.786   5.861   0.831 -0.5994  1.1911  1.2876
 5231TIP3    H215700   4.662   5.900   0.753  0.3193  0.0208 -0.8415
 5232TIP3   OH215701   5.274   3.837   1.906  0.3155 -0.3431  0.1999
 5232TIP3    H115702   5.199   3.868   1.855  0.4830  0.6965  0.5631
 5232TIP3    H215703   5.350   3.858   1.852  0.3778 -1.0700 -0.0065
 5233TIP3   OH215704   3.324   0.854   1.744  0.4064  0.1002  0.1576
 5233TIP3    H115705   3.369   0.903   1.813 -0.1332  0.5186  0.2151
 5233TIP3    H215706   3.328   0.912   1.668 -0.6368  0.4390  0.3516
 5234TIP3   OH215707   0.633   4.871   0.465  0.2587 -0.4342 -0.1161
 5234TIP3    H115708   0.707   4.822   0.499  0.7484  0.2375 -0.1900
 5234TIP3    H215709   0.574   4.880   0.541  0.3094 -0.8603 -0.0257
 5235TIP3   OH215710   3.020   2.338   3.039  0.0232  0.3557 -0.4622
 5235TIP3    H115711   3.037   2.249   3.010 -0.7722 -0.0396  0.2455
 5235TIP3    H215712   3.080   2.392   2.988  0.7224 -0.6110 -0.6812
 5236TIP3   OH215713   5.247   3.438   4.017 -0.2099  0.4824  0.0619
 5236TIP3    H115714   5.179   3.495   3.981 -0.2767  0.8574  0.7662
 5236TIP3    H215715   5.329   3.484   3.999 -0.1513  0.1324 -0.5971
 5237TIP3   OH215716   3.749   5.103   1.603 -0.0121 -0.0572 -0.5928
 5237TIP3    H115717   3.717   5.183   1.562  1.4006  1.2074  0.6685
 5237TIP3    H215718   3.702   5.098   1.686  1.1956  0.4496  0.1346
 5238TIP3   OH215719   5.361   3.801   4.688 -0.0818 -0.0129 -0.2169
 5238TIP3    H115720   5.359   3.863   4.616  0.2015  0.7139  0.3901
 5238TIP3    H215721   5.445   3.755   4.678 -0.1948 -0.1510 -0.5397
 5239TIP3   OH215722   4.174   1.877   1.819 -0.3417  0.0502  0.1618
 5239TIP3    H115723   4.267   1.899   1.820 -0.2399 -0.3800  1.0478
 5239TIP3    H215724   4.163   1.816   1.893 -1.0457 -1.0054 -0.7726
 5240TIP3   OH215725   2.721   0.852   0.917  0.0675 -0.4972 -0.4130
 5240TIP3    H115726   2.714   0.813   0.830  0.5043 -0.7517 -0.3365
 5240TIP3    H215727   2.722   0.778   0.977  0.8407 -0.3704 -0.2619
 5241TIP3   OH215728   1.620   1.551   5.035 -0.2448 -0.5955 -0.3913
 5241TIP3    H115729   1.629   1.588   4.948  0.1500  0.1539 -0.0435
 5241TIP3    H215730   1.679   1.475   5.036 -0.7494 -1.0011 -0.9784
 5242TIP3   OH215731   4.324   4.264   1.867  0.6087 -0.0147  0.3202
 5242TIP3    H115732   4.307   4.352   1.902  0.4881  0.0005  0.2253
 5242TIP3    H215733   4.356   4.280   1.778  0.2281 -0.0827  0.1709
 5243TIP3   OH215734   5.189   2.586   1.129 -0.1812  0.1040  0.9889
 5243TIP3    H115735   5.174   2.526   1.202 -0.0841  0.2361  1.1171
 5243TIP3    H215736   5.138   2.664   1.151 -0.7455 -0.1425  0.5611
 5244TIP3   OH215737   1.852   2.588   2.211 -0.2397 -0.0267 -0.3524
 5244TIP3    H115738   1.836   2.681   2.230  0.4850  0.5446 -2.3184
 5244TIP3    H215739   1.942   2.585   2.180 -0.9847 -0.9943 -2.5812
 5245TIP3   OH215740   0.371   4.469   0.288  0.0807  0.4118  0.7873
 5245TIP3    H115741   0.405   4.381   0.301 -2.5651 -0.8824 -0.1798
 5245TIP3    H215742   0.299   4.476   0.350 -1.1042  1.0363 -0.5854
 5246TIP3   OH215743   3.231   4.424   1.485  0.2717  0.1594 -0.8720
 5246TIP3    H115744   3.181   4.365   1.542  1.9097  0.1669  0.6750
 5246TIP3    H215745   3.269   4.366   1.419 -0.2776 -0.1124 -0.9605
 5247TIP3   OH215746   0.374   1.517   4.014 -0.4785  0.0657 -0.3303
 5247TIP3    H115747   0.311   1.517   4.087  0.8645 -1.8688  0.9280
 5247TIP3    H215748   0.320   1.522   3.936 -2.3413 -2.5047  0.6651
 5248TIP3   OH215749   3.702   4.946   4.491 -0.3717  0.1708  0.2234
 5248TIP3    H115750   3.691   5.033   4.530  1.3328  0.4179  0.2527
 5248TIP3    H215751   3.789   4.918   4.521 -0.8946 -1.5536  0.2169
 5249TIP3   OH215752   5.226   4.574   1.134 -0.8212  0.6365  0.4263
 5249TIP3    H115753   5.278   4.654   1.124 -0.2978  0.5189  1.9363
 5249TIP3    H215754   5.166   4.594   1.206 -1.6105  0.1218 -0.0812
 5250TIP3   OH215755   0.554   2.709   4.718  0.4905 -0.2248  0.8226
 5250TIP3    H115756   0.490   2.639   4.729  0.8798 -0.7545 -0.2230
 5250TIP3    H215757   0.526   2.776   4.781 -1.3988 -0.2158  0.0654
 5251TIP3   OH215758   6.117   3.033   1.796 -0.1939  0.0595  0.0870
 5251TIP3    H115759   6.134   3.005   1.885 -1.5934  1.7941  0.9556
 5251TIP3    H215760   6.176   3.108   1.782 -1.0155  0.7259  0.1048
 5252TIP3   OH215761   4.646   2.900   4.822 -0.8592  0.1250 -0.1178
 5252TIP3    H115762   4.684   2.931   4.740  1.9621  2.5419  1.8947
 5252TIP3    H215763   4.598   2.975   4.857 -1.8422 -0.7926  0.5631
 5253TIP3   OH215764   0.662   1.071   1.391  0.1910  0.2319  0.1350
 5253TIP3    H115765   0.591   1.134   1.404 -2.0770 -2.0317 -0.2296
 5253TIP3    H215766   0.686   1.080   1.299 -0.2027  0.4679  0.0528
 5254TIP3   OH215767   0.994   2.952   3.810 -0.4460  0.0629 -0.0471
 5254TIP3    H115768   1.034   2.865   3.807 -0.9401 -0.1550 -1.8283
 5254TIP3    H215769   1.000   2.979   3.901  3.0339 -0.2890 -0.0583
 5255TIP3   OH215770   3.608   0.387   3.478  0.3539 -0.2504  0.0379
 5255TIP3    H115771   3.699   0.371   3.503  0.3739 -0.4688 -0.1714
 5255TIP3    H215772   3.592   0.478   3.503  1.2347  0.4267 -1.7018
 5256TIP3   OH215773   0.602   2.072   4.923  0.2833 -0.2126 -0.1647
 5256TIP3    H115774   0.616   2.009   4.853 -2.0684 -1.5747  0.5004
 5256TIP3    H215775   0.568   2.020   4.996 -0.7509  1.6487  0.7557
 5257TIP3   OH215776   0.342   2.165   2.216 -0.8239 -0.4378 -0.1697
 5257TIP3    H115777   0.416   2.104   2.218  0.1813  0.6500 -1.5353
 5257TIP3    H215778   0.277   2.122   2.160 -1.1358 -1.2683  0.7943
 5258TIP3   OH215779   5.315   3.881  -0.010 -0.2502 -0.6506  0.1282
 5258TIP3    H115780   5.302   3.837   0.075  0.3191  0.4692  0.8144
 5258TIP3    H215781   5.404   3.859  -0.035  0.6050  1.2743  1.2275
 5259TIP3   OH215782   5.540   4.157   0.471 -0.0492  0.9274  0.1942
 5259TIP3    H115783   5.625   4.179   0.511 -0.3796 -0.4852  1.7989
 5259TIP3    H215784   5.563   4.104   0.394  0.5604  0.0174  0.9676
 5260TIP3   OH215785   3.988   5.198   0.679  0.7912  0.1900 -0.2865
 5260TIP3    H115786   3.916   5.230   0.625  1.7791  1.7241 -0.7605
 5260TIP3    H215787   3.946   5.168   0.760 -0.3857  0.8482 -0.6322
 5261TIP3   OH215788   0.958   0.434   5.107 -0.0626  0.5280 -0.6300
 5261TIP3    H115789   0.884   0.374   5.102 -1.7861  2.4606  0.3730
 5261TIP3    H215790   1.026   0.383   5.151 -0.8139 -1.2341 -1.4090
 5262TIP3   OH215791   6.347   5.109   3.981  0.6438 -0.4388  0.2498
 5262TIP3    H115792   6.360   5.032   4.037 -1.3409 -0.9967  0.0018
 5262TIP3    H215793   6.254   5.128   3.987  1.1544  2.3442  0.7484
 5263TIP3   OH215794   2.434   0.322   2.240  0.0722 -0.1061  0.5345
 5263TIP3    H115795   2.450   0.346   2.148  1.5644 -0.8545  0.5636
 5263TIP3    H215796   2.368   0.253   2.235 -0.4125  0.3743  0.0903
 5264TIP3   OH215797   0.681   3.776   3.753 -0.3655  0.1811 -0.0494
 5264TIP3    H115798   0.727   3.729   3.822 -0.5231 -1.3670 -0.9618
 5264TIP3    H215799   0.746   3.838   3.718  0.1383 -0.0034  0.5522
 5265TIP3   OH215800   4.479   1.695   5.029  0.1862 -0.5837  0.0336
 5265TIP3    H115801   4.497   1.782   5.065  0.6690 -1.3317  1.6781
 5265TIP3    H215802   4.453   1.643   5.104  2.3927 -2.5446 -0.4352
 5266TIP3   OH215803   4.755   0.685   1.153  0.2937 -0.6416 -0.0060
 5266TIP3    H115804   4.843   0.721   1.151 -0.0680  0.2372 -1.9929
 5266TIP3    H215805   4.742   0.658   1.244  2.1654  0.2713  0.5706
 5267TIP3   OH215806   5.783   3.138   3.607 -0.2796 -0.4971 -0.1511
 5267TIP3    H115807   5.787   3.055   3.655 -0.7390 -1.0215 -0.9798
 5267TIP3    H215808   5.780   3.205   3.675  3.8660 -0.8485  0.6668
 5268TIP3   OH215809   4.033   3.480   0.798  0.4226 -0.3016  0.2478
 5268TIP3    H115810   3.953   3.485   0.852  0.7202 -0.6653  0.7315
 5268TIP3    H215811   4.002   3.493   0.709  0.0331  1.3427  0.5736
 5269TIP3   OH215812   0.977   1.540   1.113  0.0017 -0.2121 -0.4534
 5269TIP3    H115813   1.052   1.594   1.138 -1.6397  0.9360  2.4578
 5269TIP3    H215814   1.015   1.460   1.078  2.5579  0.7100  0.0363
 5270TIP3   OH215815   4.705   0.437   2.983 -0.5508 -0.6313 -0.0831
 5270TIP3    H115816   4.647   0.430   2.907 -0.5509 -2.0325  0.0198
 5270TIP3    H215817   4.777   0.492   2.953 -1.3384  0.1618 -0.5775
 5271TIP3   OH215818   0.261   1.496   2.473 -0.2507 -0.3595  0.0169
 5271TIP3    H115819   0.230   1.517   2.560  3.5104  2.1991  1.0071
 5271TIP3    H215820   0.283   1.403   2.476 -0.0208 -0.2653  1.8797
 5272TIP3   OH215821   6.055   0.668   1.929  0.1680 -0.1254  0.0633
 5272TIP3    H115822   6.027   0.737   1.869 -0.9070 -1.7551 -1.4214
 5272TIP3    H215823   6.079   0.595   1.872  0.7816 -1.1752  1.5885
 5273TIP3   OH215824   2.798   4.563   3.863 -0.3282  0.1471  0.4487
 5273TIP3    H115825   2.772   4.529   3.777  0.9559  0.0394  0.0747
 5273TIP3    H215826   2.739   4.520   3.925 -0.4093 -0.8077 -0.2578
 5274TIP3   OH215827   0.092   3.336   3.463  0.2930  0.8135  0.5499
 5274TIP3    H115828   0.095   3.431   3.464  1.3065  0.8525 -1.4410
 5274TIP3    H215829   0.101   3.311   3.555 -0.1233  2.6244  1.1227
 5275TIP3   OH215830   5.851   4.187   4.690 -0.1296 -0.1322 -0.5214
 5275TIP3    H115831   5.928   4.134   4.712 -0.6960 -1.1856 -1.0063
 5275TIP3    H215832   5.819   4.149   4.609 -1.2648  0.1731 -0.2279
 5276TIP3   OH215833   0.832   1.678   3.492 -0.0861  0.4217  0.5476
 5276TIP3    H115834   0.805   1.589   3.472 -1.5273  0.8759  0.3729
 5276TIP3    H215835   0.911   1.668   3.546  0.5621 -0.9158 -0.5864
 5277TIP3   OH215836   4.538   3.822   2.010 -0.3448  0.4312  1.1799
 5277TIP3    H115837   4.487   3.893   2.049 -0.6254  1.5009 -0.9809
 5277TIP3    H215838   4.509   3.820   1.918  1.1738 -1.0980  0.6963
 5278TIP3   OH215839   1.137   1.033   2.049 -0.4253 -0.9478 -0.4139
 5278TIP3    H115840   1.159   1.074   2.133  0.0486 -0.7213 -0.6476
 5278TIP3    H215841   1.218   1.037   1.998 -0.3259 -2.3015 -0.3918
 5279TIP3   OH215842   4.340   1.790   2.052  0.3039  0.0859  0.4881
 5279TIP3    H115843   4.434   1.786   2.036  0.5415  1.1984  1.4555
 5279TIP3    H215844   4.316   1.701   2.079  1.2224 -0.0383  0.9239
 5280TIP3   OH215845   3.141   1.760   1.647  0.1734  0.0328 -0.6225
 5280TIP3    H115846   3.082   1.685   1.644  2.0597 -1.6238  1.0278
 5280TIP3    H215847   3.213   1.737   1.587  1.8335 -0.5483  1.4779
 5281TIP3   OH215848   0.222   1.637   0.277  0.1837  0.3001 -0.1497
 5281TIP3    H115849   0.308   1.597   0.281  0.7550  1.0549 -2.6704
 5281TIP3    H215850   0.237   1.721   0.233 -1.5682  1.3587  1.1532
 5282TIP3   OH215851   2.113   1.633   3.465  0.2421 -0.3240  0.6982
 5282TIP3    H115852   2.102   1.549   3.510 -1.0752  0.0680  1.1558
 5282TIP3    H215853   2.118   1.697   3.535 -1.9878  0.3142  0.3588
 5283TIP3   OH215854   5.482   0.754   1.880 -0.1346 -0.3439 -0.4149
 5283TIP3    H115855   5.412   0.812   1.850  0.5756  0.3686 -0.6969
 5283TIP3    H215856   5.543   0.748   1.807  0.4232 -0.4576  0.0496
 5284TIP3   OH215857   3.415   2.165   1.319  0.0448 -0.5595  0.1568
 5284TIP3    H115858   3.438   2.247   1.275  0.4174 -0.3455  0.7491
 5284TIP3    H215859   3.408   2.101   1.248 -1.0875  0.1580 -0.4052
 5285TIP3   OH215860   5.740   1.747   0.755  0.4267  0.1855  0.0051
 5285TIP3    H115861   5.831   1.725   0.774  1.0963  3.6021  1.4723
 5285TIP3    H215862   5.697   1.750   0.840  0.7045  4.8092  0.2775
 5286TIP3   OH215863   6.238   5.156   5.117 -0.1145  0.7682 -0.2443
 5286TIP3    H115864   6.231   5.130   5.209  0.2689  0.8879 -0.1793
 5286TIP3    H215865   6.219   5.076   5.068  0.5691  0.4811 -0.0507
 5287TIP3   OH215866   6.297   2.582   1.817  0.0252 -0.5406 -0.0717
 5287TIP3    H115867   6.373   2.537   1.855 -0.9154 -3.2883 -1.2055
 5287TIP3    H215868   6.227   2.517   1.819 -1.5349  0.9920 -1.6282
 5288TIP3   OH215869   5.225   4.411   4.787 -0.2566  0.1438  0.4364
 5288TIP3    H115870   5.264   4.328   4.816  2.0472  1.1053  0.3026
 5288TIP3    H215871   5.207   4.458   4.868  1.2175  0.6712  0.4915
 5289TIP3   OH215872   3.069   5.357   2.103  0.3438 -0.0163 -0.2077
 5289TIP3    H115873   3.079   5.348   2.197 -0.3380  0.0334 -0.1198
 5289TIP3    H215874   3.108   5.442   2.082  0.6639 -0.1124 -0.0018
 5290TIP3   OH215875   0.745   5.070   3.463  0.4783  0.2904 -0.0757
 5290TIP3    H115876   0.736   5.163   3.485  0.0599  0.3725 -0.5751
 5290TIP3    H215877   0.818   5.068   3.401 -1.2009  0.6478 -2.1516
 5291TIP3   OH215878   5.056   0.487   4.769  0.1706 -1.2374  0.8804
 5291TIP3    H115879   5.098   0.522   4.690 -0.8299 -0.6748  0.5868
 5291TIP3    H215880   5.128   0.447   4.818  0.9107 -1.0429 -0.0136
 5292TIP3   OH215881   3.710   1.494   3.443  0.1975  0.0619  0.3923
 5292TIP3    H115882   3.721   1.478   3.349 -2.0454  0.1463  0.0805
 5292TIP3    H215883   3.711   1.589   3.451  0.8655  0.0516  0.5533
 5293TIP3   OH215884   4.715   1.781   2.594  0.1855  0.1752  0.3874
 5293TIP3    H115885   4.637   1.789   2.648  0.0828  1.7791  0.0360
 5293TIP3    H215886   4.695   1.711   2.532 -0.0041 -1.1266  1.8606
 5294TIP3   OH215887   5.350   2.445   3.137 -0.5429  0.4930  0.8371
 5294TIP3    H115888   5.390   2.379   3.194 -0.9058  0.6340  1.2610
 5294TIP3    H215889   5.336   2.400   3.054  0.6588  0.4863  0.6127
 5295TIP3   OH215890   5.419   4.030   0.675 -0.5504 -0.3788  0.4768
 5295TIP3    H115891   5.417   4.102   0.739 -0.1453  0.2461 -0.1972
 5295TIP3    H215892   5.468   4.065   0.601  0.9251 -1.8304  0.6993
 5296TIP3   OH215893   4.944   1.989   0.583 -0.3075  0.5599  0.8450
 5296TIP3    H115894   4.980   1.965   0.668  0.2832 -1.4890  0.0641
 5296TIP3    H215895   5.015   1.974   0.521 -1.1890  0.5218 -0.1935
 5297TIP3   OH215896   1.772   3.621   1.734 -0.2742  0.3216 -0.7005
 5297TIP3    H115897   1.748   3.627   1.642 -2.1222  2.5706 -0.1809
 5297TIP3    H215898   1.819   3.703   1.751 -0.5971  0.2782  0.4917
 5298TIP3   OH215899   3.778   1.878   5.111 -0.7866  0.7109 -0.3221
 5298TIP3    H115900   3.787   1.907   5.020  0.4122 -0.3372 -0.5728
 5298TIP3    H215901   3.805   1.786   5.109  1.8631  1.3142  1.4887
 5299TIP3   OH215902   1.015   4.165   4.447 -0.2589 -0.1698 -0.2748
 5299TIP3    H115903   0.920   4.157   4.442 -0.2006 -0.4501 -1.0627
 5299TIP3    H215904   1.042   4.098   4.510 -0.7125  1.0112  1.2431
 5300TIP3   OH215905   5.196   5.273   2.222 -0.6372  0.2979  0.6410
 5300TIP3    H115906   5.280   5.318   2.226 -0.6890  0.3040  2.5800
 5300TIP3    H215907   5.219   5.181   2.207 -0.2001  0.1396  2.1383
 5301TIP3   OH215908   0.546   5.041   4.011 -0.3101 -0.0767  1.0164
 5301TIP3    H115909   0.464   5.079   3.979  0.1422 -0.2791 -0.4636
 5301TIP3    H215910   0.581   4.993   3.936  0.4397 -1.2288  2.0618
 5302TIP3   OH215911   0.008   1.172   2.466  0.3969 -0.1333  0.3109
 5302TIP3    H115912   0.087   1.118   2.454 -0.1282 -1.0262  0.6969
 5302TIP3    H215913   0.010   1.195   2.559  0.9261  1.0295  0.0197
 5303TIP3   OH215914   2.111   2.503   4.757 -0.1977  0.2966 -0.2282
 5303TIP3    H115915   2.053   2.548   4.818 -0.6131  0.1800 -0.5377
 5303TIP3    H215916   2.167   2.449   4.814 -0.1295  0.7033  0.0944
 5304TIP3   OH215917   1.902   1.060   2.822 -0.0043 -0.1463  0.4608
 5304TIP3    H115918   1.825   1.100   2.861  1.3417  1.7204  1.3778
 5304TIP3    H215919   1.916   1.110   2.741 -0.4989 -1.3638 -0.3999
 5305TIP3   OH215920   5.343   3.438   4.789  0.1935  0.5914  0.5740
 5305TIP3    H115921   5.381   3.457   4.875  0.9286  1.0118  0.1659
 5305TIP3    H215922   5.405   3.476   4.727 -1.3567  2.1224 -0.0959
 5306TIP3   OH215923   2.324   3.907   0.779  0.1051 -0.0889 -0.4244
 5306TIP3    H115924   2.372   3.990   0.784  0.5495 -0.3245 -0.7866
 5306TIP3    H215925   2.262   3.911   0.853  0.7029  0.1913  0.0696
 5307TIP3   OH215926   3.567   3.687   0.503 -0.0777 -0.0169 -0.7617
 5307TIP3    H115927   3.645   3.643   0.470 -0.1794 -0.4571 -0.4123
 5307TIP3    H215928   3.523   3.720   0.424  0.4431  0.2115 -0.9590
 5308TIP3   OH215929   6.262   5.830   0.499  0.4074  0.8919 -0.4355
 5308TIP3    H115930   6.173   5.862   0.518  0.7863  2.3825 -1.0484
 5308TIP3    H215931   6.312   5.850   0.578  0.6644  1.9317 -0.8500
 5309TIP3   OH215932   2.310   5.889   1.017 -0.1649 -0.4261  0.4912
 5309TIP3    H115933   2.375   5.835   1.061  0.2178  0.1829  0.6767
 5309TIP3    H215934   2.313   5.973   1.062 -0.2405 -0.0122 -0.2575
 5310TIP3   OH215935   1.458   4.928   2.590 -0.2057  0.1904 -0.1444
 5310TIP3    H115936   1.473   4.837   2.562  0.7013 -0.2465  1.5730
 5310TIP3    H215937   1.482   4.928   2.683  0.6535  2.3932 -0.3122
 5311TIP3   OH215938   1.035   4.047   1.017 -0.4351 -0.4378  0.0091
 5311TIP3    H115939   1.015   3.998   1.096 -1.1895 -1.0877 -0.5698
 5311TIP3    H215940   1.122   4.018   0.992 -0.7887 -1.3290 -0.2065
 5312TIP3   OH215941   0.524   4.908   0.713 -0.0610 -0.7409 -0.5230
 5312TIP3    H115942   0.492   4.819   0.725 -1.7796 -0.3304 -1.7204
 5312TIP3    H215943   0.463   4.963   0.762  1.1341 -0.2121  0.4336
 5313TIP3   OH215944   0.275   1.299   2.846 -0.5546  0.2110  0.5492
 5313TIP3    H115945   0.223   1.240   2.792  1.2328  0.4532 -1.5430
 5313TIP3    H215946   0.344   1.243   2.883  1.6600  0.9889 -2.1214
 5314TIP3   OH215947   3.266   3.447   2.625  0.3290 -0.3815  0.1184
 5314TIP3    H115948   3.225   3.517   2.574 -3.7467 -2.8580 -0.4077
 5314TIP3    H215949   3.323   3.403   2.562  2.7966  2.1271  0.4050
 5315TIP3   OH215950   5.468   2.254   5.014  0.7725  0.2721 -0.0341
 5315TIP3    H115951   5.556   2.277   4.986 -0.2117  3.3861 -0.9696
 5315TIP3    H215952   5.421   2.234   4.933  0.5757 -1.3796  0.4534
 5316TIP3   OH215953   0.469   5.130   1.311  0.3627 -0.6192 -0.0768
 5316TIP3    H115954   0.430   5.115   1.225  0.7785 -0.3605 -0.3131
 5316TIP3    H215955   0.404   5.096   1.373 -0.8070  0.9439 -0.3862
 5317TIP3   OH215956   3.089   2.870   0.068  0.1598 -0.2436 -0.3643
 5317TIP3    H115957   3.143   2.795   0.041  0.6077  0.4799 -1.5639
 5317TIP3    H215958   3.140   2.911   0.138  1.4471  0.6756 -1.7649
 5318TIP3   OH215959   3.693   2.251   2.166 -0.2929  0.1437  0.0151
 5318TIP3    H115960   3.676   2.166   2.206 -1.3669  0.8858  1.2251
 5318TIP3    H215961   3.781   2.243   2.129  0.2578 -0.9951  1.4687
 5319TIP3   OH215962   5.839   4.404   2.796 -0.0598  0.0456 -0.8111
 5319TIP3    H115963   5.849   4.437   2.707  4.2716 -1.4607 -1.0999
 5319TIP3    H215964   5.799   4.317   2.785 -1.1837  0.5686 -1.0427
 5320TIP3   OH215965   6.213   4.999   1.682 -0.1435 -0.0657 -0.4937
 5320TIP3    H115966   6.237   5.003   1.590  0.6617 -0.3850 -0.3073
 5320TIP3    H215967   6.121   5.024   1.684 -0.5477 -1.3754 -1.5379
 5321TIP3   OH215968   1.280   1.514   1.618 -0.4103  0.0060  0.1126
 5321TIP3    H115969   1.334   1.509   1.538 -1.0923 -2.5463 -0.2760
 5321TIP3    H215970   1.336   1.477   1.686 -0.3875  0.7782  0.5274
 5322TIP3   OH215971   2.436   2.597   2.205  0.0288 -0.3945  0.0146
 5322TIP3    H115972   2.498   2.615   2.135 -0.6442 -2.9789 -1.3798
 5322TIP3    H215973   2.489   2.598   2.285  1.2135  0.5282 -0.7404
 5323TIP3   OH215974   1.591   4.336   1.060  0.3798  0.0220  0.8688
 5323TIP3    H115975   1.508   4.383   1.074  0.1256 -0.0498 -0.3092
 5323TIP3    H215976   1.654   4.405   1.039  0.3181 -0.0335  0.4919
 5324TIP3   OH215977   4.749   5.503   0.239  0.5685 -0.4846  0.3992
 5324TIP3    H115978   4.788   5.497   0.152 -0.1084  0.3160  0.0176
 5324TIP3    H215979   4.788   5.582   0.277 -0.9256  0.5789 -0.1545
 5325TIP3   OH215980   0.874   0.790   0.488  0.6576 -0.0368 -0.1880
 5325TIP3    H115981   0.821   0.861   0.451  2.3220  1.7674  0.7219
 5325TIP3    H215982   0.937   0.770   0.419  1.1534  0.4524  0.1175
 5326TIP3   OH215983   5.734   3.750   1.149  0.0718  0.5770 -0.2697
 5326TIP3    H115984   5.723   3.701   1.230  0.8271 -0.8039 -0.9569
 5326TIP3    H215985   5.795   3.820   1.172 -0.3325  0.6697  0.5390
 5327TIP3   OH215986   2.448   5.658   2.118 -0.3232 -0.2333  0.1018
 5327TIP3    H115987   2.356   5.680   2.106  0.1365  1.4296 -0.5839
 5327TIP3    H215988   2.448   5.563   2.128 -2.0904 -0.2872 -0.0704
 5328TIP3   OH215989   5.143   5.526   4.488 -0.4825  0.4728 -0.7383
 5328TIP3    H115990   5.217   5.476   4.454 -0.4029  0.4364 -0.5132
 5328TIP3    H215991   5.111   5.575   4.412  1.4307  2.5746 -0.3042
 5329TIP3   OH215992   4.808   3.417   0.702 -0.0450  0.1420  0.3870
 5329TIP3    H115993   4.772   3.423   0.614 -0.6407 -0.9399  0.5450
 5329TIP3    H215994   4.846   3.330   0.707  4.8624  1.9127 -0.5741
 5330TIP3   OH215995   3.597   1.022   2.691  0.3211 -0.4646  0.1903
 5330TIP3    H115996   3.514   0.983   2.664  0.5769  0.2512 -1.8159
 5330TIP3    H215997   3.572   1.097   2.745 -0.1761 -2.9932  3.9169
 5331TIP3   OH215998   3.520   2.097   2.019 -0.7756  0.1773  0.1736
 5331TIP3    H115999   3.564   2.091   1.935 -1.2378 -1.2821  0.0103
 5331TIP3    H216000   3.574   2.158   2.070  0.3579 -0.1040 -0.6529
 5332TIP3   OH216001   4.265   0.730   4.397 -0.0537  0.1035 -0.7666
 5332TIP3    H116002   4.240   0.759   4.485  1.0186 -0.2179 -0.3386
 5332TIP3    H216003   4.327   0.797   4.366 -0.7173  0.4199 -1.4435
 5333TIP3   OH216004   3.244   3.087   3.687 -0.1156  0.3612 -0.0601
 5333TIP3    H116005   3.321   3.038   3.717 -0.6877 -0.8013 -0.4609
 5333TIP3    H216006   3.275   3.134   3.609 -0.0367 -0.8247 -0.7645
 5334TIP3   OH216007   0.236   4.428   3.273 -0.1729 -0.9939  0.0026
 5334TIP3    H116008   0.326   4.429   3.241 -0.2908 -3.5473 -0.6167
 5334TIP3    H216009   0.222   4.517   3.306  1.4270  0.5502 -2.9843
 5335TIP3   OH216010   5.643   4.633   2.999  0.8691 -0.4061  0.1909
 5335TIP3    H116011   5.619   4.541   2.983  1.6488 -0.3436 -1.5357
 5335TIP3    H216012   5.578   4.683   2.950  0.2906  0.0095  1.3372
 5336TIP3   OH216013   0.513   1.977   4.133  0.2128 -0.1713 -0.0028
 5336TIP3    H116014   0.449   2.025   4.080  0.7884 -0.0630 -0.6121
 5336TIP3    H216015   0.510   1.888   4.097 -0.3155 -0.4243  0.6361
 5337TIP3   OH216016   4.321   2.390   1.079 -0.3348  0.1307  0.7828
 5337TIP3    H116017   4.398   2.391   1.135  0.4192  0.9215 -0.2382
 5337TIP3    H216018   4.322   2.303   1.038 -0.0223  0.1226  0.8089
 5338TIP3   OH216019   4.913   0.607   3.321  0.0898 -0.3841 -0.4590
 5338TIP3    H116020   5.003   0.578   3.335  0.1430  0.0778  0.2398
 5338TIP3    H216021   4.861   0.550   3.378  0.4034  2.1518  2.6646
 5339TIP3   OH216022   2.055   5.359   1.827 -0.0533 -0.1505  0.4080
 5339TIP3    H116023   2.015   5.321   1.749 -0.2413  0.6417  0.1066
 5339TIP3    H216024   1.993   5.428   1.855  0.7195  0.5712  0.3849
 5340TIP3   OH216025   0.361   3.857   3.083  0.4373  0.0604 -0.3129
 5340TIP3    H116026   0.400   3.857   3.171 -1.0438 -0.6348  0.3823
 5340TIP3    H216027   0.317   3.942   3.077  1.0286  0.3518 -0.6313
 5341TIP3   OH216028   4.594   1.022   4.094  0.2512  0.3722 -0.0577
 5341TIP3    H116029   4.639   1.005   4.176 -0.0344  0.7005  0.1682
 5341TIP3    H216030   4.501   1.014   4.115  0.0944  2.0201  0.0327
 5342TIP3   OH216031   0.430   4.240   0.945 -0.3020  0.3982  0.5959
 5342TIP3    H116032   0.455   4.333   0.942 -0.1438  0.3899  1.4804
 5342TIP3    H216033   0.499   4.195   0.896 -1.0607  0.8607 -1.0014
 5343TIP3   OH216034   1.454   0.946   2.308 -0.0201  0.1236  0.0000
 5343TIP3    H116035   1.523   0.893   2.348  1.7420  1.3412 -1.2764
 5343TIP3    H216036   1.490   1.035   2.304 -1.9355  0.9507 -0.1038
 5344TIP3   OH216037   5.917   0.425   1.270 -0.4700  0.2644 -0.5531
 5344TIP3    H116038   5.859   0.391   1.339 -0.0430  1.5338  0.4546
 5344TIP3    H216039   5.969   0.349   1.245 -2.5317 -0.9393 -1.5071
 5345TIP3   OH216040   0.219   2.785   1.041 -0.2326  0.1906 -0.6549
 5345TIP3    H116041   0.163   2.854   1.078  0.0339  0.6907 -1.1701
 5345TIP3    H216042   0.253   2.739   1.117 -1.4178 -0.1801 -0.3323
 5346TIP3   OH216043   3.372   1.102   0.222 -0.2286 -0.1212  0.2790
 5346TIP3    H116044   3.383   1.197   0.228  3.4894 -0.4079  0.3063
 5346TIP3    H216045   3.334   1.077   0.306  0.5565  1.1548  1.0375
 5347TIP3   OH216046   0.152   5.026   1.729  0.1497 -0.3891  0.3780
 5347TIP3    H116047   0.061   4.994   1.725  0.6180 -2.3001  2.6982
 5347TIP3    H216048   0.143   5.121   1.732 -1.6240 -0.4146 -1.6265
 5348TIP3   OH216049   2.833   5.040   4.861  0.0380 -0.5769  0.3941
 5348TIP3    H116050   2.852   5.085   4.944 -0.8147 -0.6415  0.6374
 5348TIP3    H216051   2.812   4.950   4.888 -0.1204 -0.6288  0.0918
 5349TIP3   OH216052   1.734   1.241   4.607  0.4424 -0.4278  0.2799
 5349TIP3    H116053   1.739   1.156   4.651 -0.3519 -1.2755 -1.2087
 5349TIP3    H216054   1.659   1.233   4.548  0.3615  1.3189  0.1150
 5350TIP3   OH216055   3.389   1.780   1.491  0.1746  0.0523  0.7763
 5350TIP3    H116056   3.323   1.816   1.433 -1.4072  1.3145  3.1918
 5350TIP3    H216057   3.443   1.855   1.516  1.4435 -0.6436  0.2636
 5351TIP3   OH216058   0.141   3.866   2.020  0.4997 -0.1560 -0.2689
 5351TIP3    H116059   0.196   3.821   2.084  1.5867 -0.5375 -1.4175
 5351TIP3    H216060   0.187   3.948   2.003 -0.0600  0.1808 -0.1736
 5352TIP3   OH216061   2.421   1.427   0.445 -0.4554 -0.6780  0.0635
 5352TIP3    H116062   2.329   1.441   0.425 -0.4584  0.2470  0.6532
 5352TIP3    H216063   2.465   1.507   0.417  0.0940 -0.9084  0.2379
 5353TIP3   OH216064   1.011   5.907   0.772 -0.1407  0.0338 -0.1593
 5353TIP3    H116065   1.021   5.994   0.734 -0.7060 -0.4536 -1.4754
 5353TIP3    H216066   0.985   5.851   0.699  1.5526 -1.5407  0.3713
 5354TIP3   OH216067   3.555   4.788   2.542 -0.2494 -0.4497 -0.3277
 5354TIP3    H116068   3.499   4.789   2.620  0.6611 -0.2269  0.3427
 5354TIP3    H216069   3.630   4.735   2.568 -0.1006 -0.6715 -1.1845
 5355TIP3   OH216070   1.406   4.514   2.885  0.3624 -0.0299  0.5278
 5355TIP3    H116071   1.458   4.442   2.921 -0.4060 -1.0504 -0.3119
 5355TIP3    H216072   1.327   4.471   2.852 -0.0699  1.2014 -0.0917
 5356TIP3   OH216073   6.127   4.289   2.783 -0.6060  0.1365 -0.4876
 5356TIP3    H116074   6.065   4.356   2.810 -0.8365  0.1540 -1.0484
 5356TIP3    H216075   6.073   4.213   2.761 -0.2417 -1.2136  2.6930
 5357TIP3   OH216076   1.352   3.407   2.337  0.9635  0.1383 -0.4638
 5357TIP3    H116077   1.333   3.332   2.394  1.9014  0.3832  0.1913
 5357TIP3    H216078   1.269   3.455   2.332  0.2646 -1.0688 -1.1184
 5358TIP3   OH216079   4.515   1.705   1.002 -0.1615 -0.0093 -0.0438
 5358TIP3    H116080   4.577   1.754   0.948 -0.0806  0.7347  0.7010
 5358TIP3    H216081   4.508   1.620   0.960 -0.1209  0.5639 -1.2369
 5359TIP3   OH216082   3.726   3.681   4.824 -0.5332 -0.2659  0.1155
 5359TIP3    H116083   3.712   3.738   4.748 -0.9922 -0.3280  0.1521
 5359TIP3    H216084   3.659   3.613   4.816 -0.1479 -0.6653  0.2054
 5360TIP3   OH216085   0.445   2.449   4.238  0.2140  0.3049 -0.0558
 5360TIP3    H116086   0.365   2.401   4.261  0.9250 -0.1283  1.6030
 5360TIP3    H216087   0.516   2.395   4.270  1.1371  1.3000 -0.3743
 5361TIP3   OH216088   3.099   5.471   0.255  0.2489  0.5657  0.0327
 5361TIP3    H116089   3.044   5.393   0.260  0.5256  0.2245 -1.5681
 5361TIP3    H216090   3.099   5.507   0.344 -0.4363 -0.8700  0.6420
 5362TIP3   OH216091   0.029   2.997   0.744  0.3280  0.0808  0.2911
 5362TIP3    H116092   0.081   2.917   0.758  1.0128  0.5023  0.2408
 5362TIP3    H216093   0.095   3.066   0.738 -0.1877  0.4852 -0.8715
 5363TIP3   OH216094   0.319   3.767   0.929 -0.2420  0.1581 -0.1956
 5363TIP3    H116095   0.321   3.856   0.965 -0.1370 -0.5442  1.6751
 5363TIP3    H216096   0.275   3.776   0.845 -1.4012  1.7985  0.5317
 5364TIP3   OH216097   3.964   2.444   3.207 -0.1128  0.0930 -0.4919
 5364TIP3    H116098   4.055   2.471   3.219 -0.6557  1.1410  1.8298
 5364TIP3    H216099   3.918   2.525   3.186 -0.7066 -0.1888 -0.3013
 5365TIP3   OH216100   0.278   2.602   4.558  0.2750  0.2702 -0.0181
 5365TIP3    H116101   0.340   2.661   4.516  0.6363  1.0085  1.5012
 5365TIP3    H216102   0.331   2.526   4.584  0.1601  0.0640 -0.3738
 5366TIP3   OH216103   3.902   4.036   1.016 -0.1559  0.0798  0.3766
 5366TIP3    H116104   3.884   3.969   1.082  0.9811  0.8699  1.5360
 5366TIP3    H216105   3.839   4.106   1.034 -0.6695 -0.2263 -0.1890
 5367TIP3   OH216106   2.281   2.758   2.950 -0.3819 -0.2597  0.1924
 5367TIP3    H116107   2.239   2.833   2.994  0.2745  0.6484 -0.6777
 5367TIP3    H216108   2.350   2.731   3.011 -0.0201  0.4491  0.1054
 5368TIP3   OH216109   0.648   3.049   1.794 -0.3701 -0.7240 -0.4345
 5368TIP3    H116110   0.640   3.128   1.848 -2.8616  1.0801 -3.1390
 5368TIP3    H216111   0.679   2.982   1.855 -0.4141  1.7489  2.5639
 5369TIP3   OH216112   0.469   3.329   0.683  0.0532  0.0717 -0.4330
 5369TIP3    H116113   0.518   3.293   0.609 -0.0056 -0.5928 -0.1543
 5369TIP3    H216114   0.454   3.421   0.659  0.1870 -0.0885 -1.1658
 5370TIP3   OH216115   4.787   1.672   3.042  0.1389 -0.2648  0.3906
 5370TIP3    H116116   4.817   1.607   2.978  0.2674  0.2745 -0.1158
 5370TIP3    H216117   4.692   1.671   3.035  0.1706  0.1707 -0.2140
 5371TIP3   OH216118   3.282   3.491   3.486 -0.0858 -0.1694 -0.7167
 5371TIP3    H116119   3.222   3.430   3.444  0.0373 -0.4327 -0.5115
 5371TIP3    H216120   3.369   3.452   3.473 -0.2280 -1.7663  2.2077
 5372TIP3   OH216121   1.098   3.775   2.296  0.8915 -0.0458 -0.1792
 5372TIP3    H116122   1.192   3.765   2.305  1.0662 -0.5931 -2.2119
 5372TIP3    H216123   1.066   3.688   2.274 -0.0139  0.2668 -0.1721
 5373TIP3   OH216124   5.012   3.324   1.466  0.5849  0.5203  0.3458
 5373TIP3    H116125   5.015   3.419   1.477 -0.0332  0.5280  0.4617
 5373TIP3    H216126   5.059   3.290   1.541  1.1471  0.7410  0.1039
 5374TIP3   OH216127   2.888   0.195   3.018  0.6535 -0.3444 -0.1907
 5374TIP3    H116128   2.897   0.284   2.984 -0.3855 -0.1229  0.0580
 5374TIP3    H216129   2.948   0.142   2.965  0.4948  0.3270 -1.0599
 5375TIP3   OH216130   5.393   2.823   2.723 -0.1943 -0.0264 -0.1000
 5375TIP3    H116131   5.306   2.804   2.758 -0.2136  0.2421  0.0074
 5375TIP3    H216132   5.452   2.768   2.774 -0.1667  0.7463  0.7312
 5376TIP3   OH216133   2.331   4.915   3.391 -0.1551 -0.0975 -0.0802
 5376TIP3    H116134   2.411   4.947   3.432  0.1595 -0.8479 -0.0969
 5376TIP3    H216135   2.351   4.824   3.366 -0.5873  0.1064 -1.2244
 5377TIP3   OH216136   2.066   3.313   0.232  0.2988 -0.5601  0.4282
 5377TIP3    H116137   2.147   3.334   0.187 -0.6645  0.4133 -0.9449
 5377TIP3    H216138   2.073   3.360   0.316  1.2098 -0.6485  0.4125
 5378TIP3   OH216139   5.489   4.199   4.534  0.5292 -0.1017  0.1704
 5378TIP3    H116140   5.451   4.286   4.527  1.7608  0.3922 -0.6773
 5378TIP3    H216141   5.417   4.139   4.513  0.0511  0.7845 -0.7884
 5379TIP3   OH216142   4.807   4.624   5.082 -0.0209 -0.0494 -0.8082
 5379TIP3    H116143   4.721   4.661   5.099 -0.0789 -0.2488 -0.6623
 5379TIP3    H216144   4.789   4.534   5.053  0.2043 -0.7366  1.0220
 5380TIP3   OH216145   3.779   0.043   4.929 -0.3418  0.2290 -0.0674
 5380TIP3    H116146   3.853  -0.006   4.964 -1.0718 -0.6016  0.3484
 5380TIP3    H216147   3.802   0.135   4.944 -0.0549 -0.0612  1.4275
 5381TIP3   OH216148   2.192   4.162   4.607 -0.3142 -0.0063  0.2273
 5381TIP3    H116149   2.153   4.249   4.617  1.9974  0.8351  3.1767
 5381TIP3    H216150   2.184   4.123   4.694  0.3868 -2.0194 -0.5810
 5382TIP3   OH216151   3.960   5.284   2.886 -0.5400  0.2139 -0.2207
 5382TIP3    H116152   3.880   5.300   2.935 -0.3202  1.7561 -0.3153
 5382TIP3    H216153   3.934   5.290   2.794 -0.5056 -0.3159 -0.2681
 5383TIP3   OH216154   0.847   2.368   3.423  0.1159  0.1221  0.5771
 5383TIP3    H116155   0.804   2.345   3.506 -1.3051  1.5983  0.2914
 5383TIP3    H216156   0.896   2.447   3.443 -0.0415  0.3504  0.0615
 5384TIP3   OH216157   3.188   5.605   4.351 -0.1270 -0.4686 -0.1902
 5384TIP3    H116158   3.251   5.540   4.383  0.7267  0.3369 -0.1785
 5384TIP3    H216159   3.110   5.591   4.405  0.1396 -1.2925 -0.0030
 5385TIP3   OH216160   2.230   4.273   1.963 -0.4864  0.1026  0.3085
 5385TIP3    H116161   2.229   4.306   1.873 -0.7007  0.2063  0.3475
 5385TIP3    H216162   2.175   4.195   1.960  0.7901 -0.8212  0.0076
 5386TIP3   OH216163   2.772   2.004   0.791 -1.0536  0.7190 -0.2061
 5386TIP3    H116164   2.788   2.098   0.805  0.2283  0.5712 -0.5305
 5386TIP3    H216165   2.805   1.987   0.703  0.6573 -0.4344  0.6154
 5387TIP3   OH216166   2.493   3.627   2.029 -0.3978  0.1553 -0.1929
 5387TIP3    H116167   2.448   3.551   2.066 -0.8220  1.0758  1.2899
 5387TIP3    H216168   2.507   3.685   2.104  0.5862  1.2195 -1.1526
 5388TIP3   OH216169   4.935   5.898   1.026  0.5621 -0.1273  0.1631
 5388TIP3    H116170   4.854   5.945   1.048  0.5614  0.8249 -1.6883
 5388TIP3    H216171   5.004   5.963   1.036  0.9921 -0.6453  0.6784
 5389TIP3   OH216172   5.680   3.003   2.463 -0.1162  0.2999 -0.1658
 5389TIP3    H116173   5.593   3.044   2.460  0.6544  2.0236 -0.4249
 5389TIP3    H216174   5.728   3.053   2.530  0.6294 -0.7401  0.1041
 5390TIP3   OH216175   5.359   4.065   0.962  0.4877 -0.3178  0.8892
 5390TIP3    H116176   5.390   4.147   1.001  0.2949 -0.4766  1.3744
 5390TIP3    H216177   5.264   4.069   0.971  0.3604  0.0599 -0.3820
 5391TIP3   OH216178   5.794   2.911   0.055  1.0674  0.0168  0.1369
 5391TIP3    H116179   5.879   2.938   0.019  0.5352  0.9492 -0.4528
 5391TIP3    H216180   5.765   2.985   0.107  0.4158 -0.1307 -0.0096
 5392TIP3   OH216181   5.048   3.357   3.369 -0.3220  0.1367 -0.2814
 5392TIP3    H116182   5.009   3.356   3.282 -0.2004  1.7070 -0.3861
 5392TIP3    H216183   5.008   3.433   3.412  1.0756  0.5616  0.3296
 5393TIP3   OH216184   3.106   5.155   3.474  0.5838  0.4741 -0.4706
 5393TIP3    H116185   3.158   5.234   3.457  1.4259 -0.1572 -0.8987
 5393TIP3    H216186   3.075   5.128   3.387 -0.3587  0.7606 -0.2366
 5394TIP3   OH216187   0.266   1.162   0.274  0.1077 -0.1089 -0.3043
 5394TIP3    H116188   0.215   1.085   0.298  2.3537 -1.0483  1.8646
 5394TIP3    H216189   0.280   1.209   0.356  1.7720  0.6927 -0.9938
 5395TIP3   OH216190   4.710   3.740   0.781 -0.0426 -0.0181 -0.7121
 5395TIP3    H116191   4.674   3.816   0.827 -1.0003 -0.9153  0.0762
 5395TIP3    H216192   4.782   3.710   0.836  0.1982  0.1925 -0.9128
 5396TIP3   OH216193   4.048   0.764   1.496 -0.4531  0.0188  0.5910
 5396TIP3    H116194   4.052   0.854   1.529  1.2557  0.4050 -0.5421
 5396TIP3    H216195   4.075   0.771   1.405 -2.1048 -1.4257 -0.0673
 5397TIP3   OH216196   3.828   0.336   2.727 -0.3426 -0.1452 -0.1620
 5397TIP3    H116197   3.768   0.401   2.762  1.2246  0.2872  1.8943
 5397TIP3    H216198   3.789   0.310   2.643 -1.3394  2.9628 -0.7884
 5398TIP3   OH216199   4.385  -0.005   3.545 -0.5059 -0.0003 -0.4875
 5398TIP3    H116200   4.402   0.080   3.505  1.0869 -0.1366 -0.1703
 5398TIP3    H216201   4.452  -0.063   3.510  0.0883 -0.4656  1.2863
 5399TIP3   OH216202   6.046   4.217   0.603  0.0987  0.2171  0.0946
 5399TIP3    H116203   6.039   4.299   0.552  0.6976  0.1440 -0.1099
 5399TIP3    H216204   6.140   4.204   0.614  0.2237 -1.9856 -2.4333
 5400TIP3   OH216205   2.805   4.503   0.251 -0.0333  0.7029 -0.1766
 5400TIP3    H116206   2.861   4.454   0.190 -0.1326  0.1785  0.1476
 5400TIP3    H216207   2.809   4.453   0.332  1.3916  2.2649  0.7696
 5401TIP3   OH216208   0.131   0.499   2.398  0.4906  0.2696  0.2907
 5401TIP3    H116209   0.128   0.404   2.387  1.8350  0.3089 -0.6577
 5401TIP3    H216210   0.166   0.531   2.315 -0.7541  1.6828  0.2682
 5402TIP3   OH216211   2.698   2.400   0.587 -0.0946 -0.4084 -1.0481
 5402TIP3    H116212   2.624   2.449   0.622 -0.0048 -0.8401 -0.2234
 5402TIP3    H216213   2.754   2.385   0.663  0.6481 -0.4249 -1.5879
 5403TIP3   OH216214   2.173   5.199   3.131 -0.1145  0.1369  0.1475
 5403TIP3    H116215   2.099   5.203   3.070  1.5121  0.6218 -1.9202
 5403TIP3    H216216   2.188   5.290   3.157  0.2351  0.1522 -0.0929
 5404TIP3   OH216217   3.953   3.220   0.919 -0.1576 -0.2185 -0.0674
 5404TIP3    H116218   4.003   3.278   0.861 -0.2118  0.8794  0.9523
 5404TIP3    H216219   3.975   3.250   1.007 -1.3024 -0.8373  0.4432
 5405TIP3   OH216220   5.247   0.340   5.032  0.4252 -0.4114 -0.0382
 5405TIP3    H116221   5.199   0.269   5.075 -0.5929  0.0113 -0.4445
 5405TIP3    H216222   5.300   0.378   5.102  0.0593 -0.7959  0.4571
 5406TIP3   OH216223   5.919   5.462   3.648 -0.7254 -0.2088  0.2511
 5406TIP3    H116224   5.864   5.521   3.595 -1.4674 -0.2302  0.9809
 5406TIP3    H216225   6.004   5.505   3.650 -1.0684  0.4978  0.1952
 5407TIP3   OH216226   2.092   5.284   0.579  0.7809  0.0569 -0.5619
 5407TIP3    H116227   2.088   5.218   0.511  0.8484  1.5089 -2.0331
 5407TIP3    H216228   2.001   5.309   0.594  0.8573  0.6544 -1.0658
 5408TIP3   OH216229   1.362   0.456   3.459  0.6945  0.0192 -0.1562
 5408TIP3    H116230   1.416   0.476   3.535 -0.8421  0.5527  0.8302
 5408TIP3    H216231   1.397   0.512   3.389  3.1633 -1.6277 -0.3739
 5409TIP3   OH216232   0.290   2.073   0.712  0.0588 -0.2677  0.0510
 5409TIP3    H116233   0.207   2.060   0.758  0.4899  0.0091  0.9124
 5409TIP3    H216234   0.356   2.075   0.781  0.6042  1.2284 -0.4742
 5410TIP3   OH216235   6.150   0.925   4.046 -0.3127  0.7627 -0.6017
 5410TIP3    H116236   6.108   0.905   4.129  2.3577 -0.1988  0.6254
 5410TIP3    H216237   6.184   1.014   4.057  0.8799  0.2826 -0.2429
 5411TIP3   OH216238   0.422   1.429   0.259 -0.4973  0.4888 -0.3643
 5411TIP3    H116239   0.489   1.370   0.292 -0.2492  1.5549  1.1747
 5411TIP3    H216240   0.346   1.373   0.242 -0.0117 -0.3845  0.2971
 5412TIP3   OH216241   4.982   2.665   3.568 -0.1447  0.1754  0.5012
 5412TIP3    H116242   5.046   2.713   3.516  0.3604  0.5830  1.4770
 5412TIP3    H216243   4.962   2.588   3.516 -0.4591  1.0814 -0.7879
 5413TIP3   OH216244   0.636   4.240   0.720 -0.0838  0.4167  0.6101
 5413TIP3    H116245   0.648   4.158   0.671 -0.9226  0.1704  0.7914
 5413TIP3    H216246   0.717   4.251   0.769  0.5508  0.3722 -0.3977
 5414TIP3   OH216247   4.113   1.109   0.421  0.1632  0.1686  0.1244
 5414TIP3    H116248   4.068   1.096   0.505 -0.8980  0.3810 -0.3893
 5414TIP3    H216249   4.202   1.133   0.445 -0.3085  0.9431  1.2115
 5415TIP3   OH216250   5.559   2.750   0.590  0.0978  1.0829 -0.1476
 5415TIP3    H116251   5.621   2.705   0.648 -0.3863  1.2045  0.4761
 5415TIP3    H216252   5.475   2.739   0.633 -0.4997 -0.0058 -1.5261
 5416TIP3   OH216253   4.321   0.381   1.493 -0.0835  0.0136 -0.8067
 5416TIP3    H116254   4.354   0.299   1.528  0.4010  0.6227  0.1948
 5416TIP3    H216255   4.379   0.402   1.420 -1.7122 -1.7862 -2.7539
 5417TIP3   OH216256   3.758   0.897   4.444  0.0511  0.4347  0.1845
 5417TIP3    H116257   3.830   0.924   4.387  0.4139 -1.2492 -0.2392
 5417TIP3    H216258   3.719   0.978   4.475  0.8392  1.3927 -1.2271
 5418TIP3   OH216259   2.187   1.943   0.892 -0.1446  0.1327  0.0810
 5418TIP3    H116260   2.277   1.944   0.860 -0.9005 -1.2531 -2.3203
 5418TIP3    H216261   2.145   2.015   0.847 -0.4093  0.4125  0.7570
 5419TIP3   OH216262   4.544   4.534   4.879 -0.4041 -0.7868 -0.2342
 5419TIP3    H116263   4.586   4.483   4.948  1.7536 -0.3579 -1.1525
 5419TIP3    H216264   4.558   4.625   4.904 -2.6545 -0.5740  0.4679
 5420TIP3   OH216265   5.724   3.684   4.128  0.4349  0.4658  0.0601
 5420TIP3    H116266   5.806   3.636   4.138  1.1492  1.6841  0.1867
 5420TIP3    H216267   5.702   3.711   4.217  1.1755  2.1910 -0.2536
 5421TIP3   OH216268   0.431   1.935   1.537 -0.2650  0.2017  0.4710
 5421TIP3    H116269   0.481   1.995   1.482  0.1387  0.0576  0.6718
 5421TIP3    H216270   0.417   1.983   1.619 -0.2317  0.1461  0.5094
 5422TIP3   OH216271   0.174   3.473   5.043 -0.0866  0.1037 -0.0511
 5422TIP3    H116272   0.106   3.538   5.064 -1.5889 -1.6060  0.5933
 5422TIP3    H216273   0.126   3.394   5.019  1.6101 -1.6943  2.0502
 5423TIP3   OH216274   4.116   5.912   4.715  1.1957 -0.2785  0.4520
 5423TIP3    H116275   4.051   5.890   4.782  0.2849  0.6546 -0.1008
 5423TIP3    H216276   4.200   5.888   4.755  0.7853  1.2133  2.3855
 5424TIP3   OH216277   5.041   2.730   0.755 -0.2493 -0.5867  0.4954
 5424TIP3    H116278   5.016   2.638   0.741  1.1607 -1.0511  0.8375
 5424TIP3    H216279   5.080   2.757   0.672  1.0876 -0.9290  0.9783
 5425TIP3   OH216280   5.448   4.525   2.679  0.1423  0.1496 -0.3332
 5425TIP3    H116281   5.356   4.551   2.670 -0.3500 -1.4388 -0.1160
 5425TIP3    H216282   5.460   4.512   2.773  1.5267  3.4551  0.0894
 5426TIP3   OH216283   1.803   4.240   1.654 -0.1269  0.2452 -0.2624
 5426TIP3    H116284   1.736   4.184   1.694  0.8003  1.1907  2.8739
 5426TIP3    H216285   1.778   4.329   1.678  1.7553  0.6802  0.2324
 5427TIP3   OH216286   1.384   4.847   1.115  0.1673 -0.2958  1.0087
 5427TIP3    H116287   1.448   4.783   1.147 -0.4701 -0.8208  1.2450
 5427TIP3    H216288   1.347   4.885   1.195 -0.4304 -0.6139  0.8878
 5428TIP3   OH216289   4.021   5.099   1.571  0.1648  0.4541  0.6248
 5428TIP3    H116290   3.926   5.088   1.574  0.2476 -0.4976  0.0833
 5428TIP3    H216291   4.055   5.030   1.627  0.5512  0.6696  0.6586
 5429TIP3   OH216292   4.354   4.526   2.007  0.2324  0.0145  0.2189
 5429TIP3    H116293   4.349   4.614   2.046  0.1994 -0.2404  0.7904
 5429TIP3    H216294   4.288   4.476   2.053  0.3763 -0.3614  0.0158
 5430TIP3   OH216295   1.797   3.636   4.098  0.3695  0.3643  0.0543
 5430TIP3    H116296   1.798   3.541   4.090  0.8518  0.5071 -2.6401
 5430TIP3    H216297   1.724   3.664   4.042 -0.3877  1.5608  1.5742
 5431TIP3   OH216298   0.324   4.096   0.147 -0.0122  0.1698 -0.1273
 5431TIP3    H116299   0.293   4.081   0.237 -0.5638  1.2116 -0.1310
 5431TIP3    H216300   0.402   4.151   0.157 -0.8114  1.3780 -0.3258
 5432TIP3   OH216301   0.246   1.828   5.072 -0.0445  0.5370 -0.1289
 5432TIP3    H116302   0.276   1.738   5.076  0.4386  0.6652 -0.7283
 5432TIP3    H216303   0.228   1.844   4.980 -0.5175  0.9294  0.0254
 5433TIP3   OH216304   5.162   4.951   2.093  0.5071 -0.4750  0.0635
 5433TIP3    H116305   5.237   4.972   2.147  0.3986  3.1035 -0.9377
 5433TIP3    H216306   5.181   4.990   2.008 -1.3542 -1.7936 -1.0520
 5434TIP3   OH216307   1.760   0.249   0.626  0.3124  0.1761 -0.0637
 5434TIP3    H116308   1.801   0.258   0.540 -0.9468 -1.2606 -0.8668
 5434TIP3    H216309   1.756   0.338   0.660  0.4964  0.8285 -1.6657
 5435TIP3   OH216310   5.494   1.990   1.191  0.3580  0.0182 -0.1554
 5435TIP3    H116311   5.509   1.990   1.097  0.1196  0.0865 -0.1945
 5435TIP3    H216312   5.542   2.067   1.223  0.7600 -0.2233 -0.1652
 5436TIP3   OH216313   4.377   5.861   1.352  0.0578  0.2783 -0.2695
 5436TIP3    H116314   4.430   5.924   1.303 -0.7111  0.2785 -1.1318
 5436TIP3    H216315   4.314   5.915   1.399  0.2843  0.2272  0.0974
 5437TIP3   OH216316   5.358   3.330   2.653  0.2413  0.1516  0.2490
 5437TIP3    H116317   5.397   3.417   2.655  0.7723 -0.0971  1.5127
 5437TIP3    H216318   5.269   3.343   2.687  0.3115  0.1933  0.4134
 5438TIP3   OH216319   4.724   5.947   2.317 -0.6169 -0.3688 -0.5906
 5438TIP3    H116320   4.665   5.911   2.251 -0.5249  0.1910 -0.9840
 5438TIP3    H216321   4.802   5.891   2.313 -0.7402 -0.5286 -0.7352
 5439TIP3   OH216322   5.033   0.492   3.055 -0.8518  0.0198  0.4899
 5439TIP3    H116323   5.088   0.533   3.121  0.2340 -0.5460 -0.0329
 5439TIP3    H216324   4.994   0.417   3.099 -1.1105  0.3502  0.8284
 5440TIP3   OH216325   0.617   5.318   3.509 -0.0531 -0.3394 -0.1882
 5440TIP3    H116326   0.584   5.356   3.427 -0.3207  0.0990  0.1193
 5440TIP3    H216327   0.616   5.391   3.571  2.8239  0.0922 -0.5029
 5441TIP3   OH216328   0.309   5.640   2.919  0.2159 -0.2540 -0.8549
 5441TIP3    H116329   0.288   5.668   3.008 -0.5922  0.9719 -1.4075
 5441TIP3    H216330   0.232   5.663   2.867  0.5675 -1.1949 -1.8342
 5442TIP3   OH216331   1.158   3.724   1.271 -0.3441  0.5549  0.0199
 5442TIP3    H116332   1.119   3.681   1.347 -0.8717  0.8079 -0.1019
 5442TIP3    H216333   1.190   3.653   1.216 -2.6888  0.1978 -0.9804
 5443TIP3   OH216334   1.337   0.816   3.623 -0.0070 -0.3599  0.6535
 5443TIP3    H116335   1.394   0.790   3.551  1.4685 -0.6958  1.8862
 5443TIP3    H216336   1.249   0.814   3.586  0.5749 -1.8310 -0.7655
 5444TIP3   OH216337   2.225   0.108   4.483  0.1642 -0.6166  0.3257
 5444TIP3    H116338   2.315   0.076   4.491  0.3108 -0.8257 -1.6990
 5444TIP3    H216339   2.229   0.175   4.416 -1.0533  0.0591  0.8899
 5445TIP3   OH216340   1.577   1.562   3.357 -0.4303 -0.5094 -0.0250
 5445TIP3    H116341   1.620   1.600   3.434 -1.5550  1.3119 -0.2181
 5445TIP3    H216342   1.483   1.567   3.377 -0.7688  0.4253 -1.6583
 5446TIP3   OH216343   4.178   0.118   3.219  0.2831  0.1593 -0.0490
 5446TIP3    H116344   4.186   0.026   3.191  1.5673  0.5598 -1.0991
 5446TIP3    H216345   4.157   0.113   3.312  0.1357 -1.2062 -0.1363
 5447TIP3   OH216346   2.590   4.366   0.711 -0.6751 -0.4101  0.1940
 5447TIP3    H116347   2.555   4.421   0.641 -0.2941 -0.7361 -0.2628
 5447TIP3    H216348   2.614   4.428   0.780 -1.3856 -0.1169  0.1822
 5448TIP3   OH216349   4.783   2.701   2.110 -0.0060  0.2237 -0.6775
 5448TIP3    H116350   4.737   2.784   2.105 -0.4820  0.0382  0.3304
 5448TIP3    H216351   4.766   2.658   2.027  1.9306  1.9576 -2.0736
 5449TIP3   OH216352   4.372   5.188   0.386  0.4517  0.8421 -0.2210
 5449TIP3    H116353   4.364   5.283   0.394 -1.0406  0.6159  1.8781
 5449TIP3    H216354   4.467   5.171   0.387  0.8318  2.3750 -2.7589
 5450TIP3   OH216355   4.476   2.642   0.201 -0.7183  0.3098 -0.0836
 5450TIP3    H116356   4.471   2.698   0.278  0.8825 -0.8103  0.9040
 5450TIP3    H216357   4.488   2.554   0.236 -1.3353 -0.4114 -1.6122
 5451TIP3   OH216358   4.070   0.596   3.855  0.0019 -0.3136  0.5118
 5451TIP3    H116359   4.055   0.690   3.864  0.5358 -0.1752 -0.0045
 5451TIP3    H216360   4.062   0.562   3.944 -0.7622  0.1324  0.6188
 5452TIP3   OH216361   3.183   3.473   3.787  0.0669 -0.2477  0.0120
 5452TIP3    H116362   3.177   3.461   3.692  0.8537  0.5096 -0.1494
 5452TIP3    H216363   3.124   3.546   3.806  1.2871  0.8411 -0.1909
 5453TIP3   OH216364   5.089   1.761   4.445  0.4288  0.2375 -0.2612
 5453TIP3    H116365   5.096   1.778   4.351  0.8766  0.4263 -0.2000
 5453TIP3    H216366   5.164   1.807   4.483 -0.4384  1.2149  0.3295
 5454TIP3   OH216367   1.357   1.801   2.095  0.6449 -0.4461 -0.2227
 5454TIP3    H116368   1.337   1.853   2.017 -0.5846 -1.4787 -0.6271
 5454TIP3    H216369   1.321   1.851   2.168  0.3205 -0.2776 -0.4983
 5455TIP3   OH216370   5.730   5.278   3.120  0.3966 -0.2539  0.5346
 5455TIP3    H116371   5.662   5.325   3.167  1.4209  1.0881  0.7288
 5455TIP3    H216372   5.804   5.275   3.180  0.2840 -2.4329  0.6461
 5456TIP3   OH216373   4.968   1.493   1.910 -0.3670 -0.0973  0.1149
 5456TIP3    H116374   4.912   1.460   1.980 -1.8058 -0.1746 -1.0339
 5456TIP3    H216375   5.003   1.576   1.944 -0.7200 -0.3369  1.0667
 5457TIP3   OH216376   0.656   1.883   3.425  0.5879 -0.5320  0.0602
 5457TIP3    H116377   0.591   1.841   3.369  0.8357 -0.0750 -0.5926
 5457TIP3    H216378   0.717   1.813   3.447 -0.6405 -1.2026  1.5130
 5458TIP3   OH216379   3.614   4.379   5.078 -0.5781 -0.6753 -0.2123
 5458TIP3    H116380   3.541   4.323   5.049 -1.6324 -0.8090  2.3840
 5458TIP3    H216381   3.659   4.327   5.144  0.2553  0.4283  0.1121
 5459TIP3   OH216382   3.016   3.718   3.820  0.2354  0.7140 -0.0010
 5459TIP3    H116383   2.970   3.692   3.900 -0.6707  0.9074 -0.4493
 5459TIP3    H216384   3.008   3.814   3.818 -0.1603  0.6761 -0.5551
 5460TIP3   OH216385   5.566   0.693   4.764  0.0543 -0.0191  0.0324
 5460TIP3    H116386   5.626   0.628   4.727 -1.8655 -1.8940  0.0214
 5460TIP3    H216387   5.565   0.675   4.858  0.8355  1.2191  0.3126
 5461TIP3   OH216388   3.097   3.294   0.459 -0.2407 -0.0110 -0.0238
 5461TIP3    H116389   3.168   3.230   0.450 -0.7290 -0.7656  1.2279
 5461TIP3    H216390   3.131   3.374   0.419  2.2277  0.3500  2.5313
 5462TIP3   OH216391   3.114   4.230   5.096 -0.2234  0.2486 -0.2930
 5462TIP3    H116392   3.034   4.193   5.134 -0.7580  1.2436 -0.4034
 5462TIP3    H216393   3.083   4.286   5.024  0.5687  0.6223 -0.3582
 5463TIP3   OH216394   3.923   4.461   1.646  0.2767  0.0004 -0.0455
 5463TIP3    H116395   3.984   4.533   1.662  0.2499  0.0290 -0.0701
 5463TIP3    H216396   3.865   4.461   1.722  0.5884 -0.3151  0.1918
 5464TIP3   OH216397   3.239   2.888   4.375 -0.0897 -0.4720  0.1645
 5464TIP3    H116398   3.207   2.801   4.400 -0.7802  0.1620  1.6948
 5464TIP3    H216399   3.314   2.903   4.432 -1.1196  0.6401  1.3225
 5465TIP3   OH216400   1.183   5.614   1.149  0.2895  0.3221  0.5320
 5465TIP3    H116401   1.225   5.533   1.178  1.1781  0.9640  1.0919
 5465TIP3    H216402   1.172   5.603   1.055  0.4240 -0.4388  0.5990
 5466TIP3   OH216403   4.499   3.174   4.276  0.1651 -0.2050  0.7743
 5466TIP3    H116404   4.532   3.085   4.272  0.2606 -0.1447  0.0826
 5466TIP3    H216405   4.423   3.175   4.217  0.7995  0.4245 -0.0603
 5467TIP3   OH216406   5.822   2.664   3.799 -0.3995  0.4262  0.2215
 5467TIP3    H116407   5.878   2.687   3.725 -0.9098  1.7615  0.2249
 5467TIP3    H216408   5.843   2.572   3.817 -0.7710 -0.1525 -2.0181
 5468TIP3   OH216409   5.557   5.157   1.972 -0.2128  0.1924 -0.0486
 5468TIP3    H116410   5.477   5.106   1.962 -0.7475  0.7645  1.0512
 5468TIP3    H216411   5.618   5.121   1.907 -0.1731 -2.6022  1.3922
 5469TIP3   OH216412   5.697   5.407   4.515  0.0469 -0.7855 -0.0703
 5469TIP3    H116413   5.664   5.352   4.444 -2.2390 -0.0248  0.3070
 5469TIP3    H216414   5.674   5.359   4.595  1.3285 -0.9655  0.2106
 5470TIP3   OH216415   4.719   0.255   2.170 -0.2066 -0.0014 -0.8796
 5470TIP3    H116416   4.800   0.260   2.119  0.8547 -0.3272  0.7214
 5470TIP3    H216417   4.714   0.163   2.197 -0.4044  0.3095  0.1462
 5471TIP3   OH216418   2.783   5.367   2.089  0.5814  0.0366  0.0120
 5471TIP3    H116419   2.877   5.357   2.103  0.3499 -1.3814  0.8223
 5471TIP3    H216420   2.746   5.285   2.122 -0.7118 -0.6154 -2.7951
 5472TIP3   OH216421   2.517   5.762   1.438  0.0959  0.3136  0.0380
 5472TIP3    H116422   2.597   5.734   1.482 -0.5404 -1.3589  0.2024
 5472TIP3    H216423   2.547   5.796   1.353  0.9036 -1.7117 -0.5466
 5473TIP3   OH216424   5.038   5.704   3.987  0.2971  0.3815 -0.0009
 5473TIP3    H116425   4.972   5.666   3.928  2.1600 -0.8326 -1.4025
 5473TIP3    H216426   5.102   5.745   3.928  1.1907  0.8873  1.2822
 5474TIP3   OH216427   3.524   2.476   1.941 -0.1550 -0.4080 -0.3347
 5474TIP3    H116428   3.464   2.433   2.002 -2.1755  2.4257 -0.1414
 5474TIP3    H216429   3.597   2.506   1.996 -1.4925  1.2750  0.6200
 5475TIP3   OH216430   3.196   0.690   3.973  0.2404  1.1481 -0.8514
 5475TIP3    H116431   3.151   0.769   4.002  0.1185  0.8519 -0.2241
 5475TIP3    H216432   3.156   0.619   4.023  1.0243  0.8088 -0.6902
 5476TIP3   OH216433   1.909   4.251   3.643  0.4633  0.2666 -0.6115
 5476TIP3    H116434   2.000   4.277   3.659  0.6209 -0.2000 -0.7387
 5476TIP3    H216435   1.911   4.156   3.645 -0.2116  0.2608  0.4511
 5477TIP3   OH216436   0.006   1.096   2.131 -0.3755 -0.5719  0.6832
 5477TIP3    H116437   0.098   1.101   2.155 -1.0277 -0.6723  3.7270
 5477TIP3    H216438   0.003   1.116   2.038  2.7456 -1.1589  0.3726
 5478TIP3   OH216439   4.103   1.952   2.431 -0.2713  0.3142 -0.0563
 5478TIP3    H116440   4.143   1.888   2.489 -1.6556 -0.6475 -0.1261
 5478TIP3    H216441   4.108   2.035   2.479  1.6611  0.2284 -0.0285
 5479TIP3   OH216442   3.225   0.199   4.370  0.7927  0.2010 -0.2572
 5479TIP3    H116443   3.299   0.200   4.431  0.2496 -0.5325  0.4349
 5479TIP3    H216444   3.265   0.212   4.284  1.5436  1.5311  0.2662
 5480TIP3   OH216445   2.038   0.397   3.401  0.3431  0.2694  0.4670
 5480TIP3    H116446   2.056   0.306   3.423  0.8717  0.0118 -0.9413
 5480TIP3    H216447   1.946   0.409   3.423 -0.3179 -1.2351 -1.2316
 5481TIP3   OH216448   5.291   0.086   3.939 -0.0798 -0.1489  0.1219
 5481TIP3    H116449   5.245   0.006   3.913 -3.0047  1.1587  0.8871
 5481TIP3    H216450   5.321   0.068   4.028 -1.5905 -0.1315  0.6704
 5482TIP3   OH216451   4.062   1.499   1.603  0.4094 -0.3314  0.2297
 5482TIP3    H116452   4.010   1.567   1.647 -0.6849  0.2538 -1.8394
 5482TIP3    H216453   4.028   1.417   1.638  0.5070  0.1270  1.4484
 5483TIP3   OH216454   3.866   0.906   0.050  0.6266 -0.4250 -0.6856
 5483TIP3    H116455   3.890   0.947   0.133 -1.6056  0.0703 -0.2222
 5483TIP3    H216456   3.889   0.970  -0.017 -0.9648  0.7910 -0.1223
 5484TIP3   OH216457   2.204   2.384   3.566 -0.2834 -0.4933 -0.4340
 5484TIP3    H116458   2.161   2.298   3.563  0.1132 -0.6898 -0.6558
 5484TIP3    H216459   2.243   2.388   3.654  0.6199 -1.0063 -0.8012
 5485TIP3   OH216460   0.127   1.022   0.836 -0.0913 -0.3400 -0.2508
 5485TIP3    H116461   0.080   1.104   0.823 -0.8705 -0.8844 -1.0038
 5485TIP3    H216462   0.182   1.014   0.758  2.7110  1.1741  1.4115
 5486TIP3   OH216463   0.239   3.209   3.981  0.2181  0.3401  0.2497
 5486TIP3    H116464   0.305   3.166   4.036  0.8322  1.2284  0.2184
 5486TIP3    H216465   0.216   3.288   4.030  0.4319  0.9045 -0.5548
 5487TIP3   OH216466   4.738   5.271   2.387 -0.0389 -0.1633 -0.7474
 5487TIP3    H116467   4.710   5.320   2.464  0.0091  1.2936 -1.6220
 5487TIP3    H216468   4.827   5.242   2.407 -0.4799 -0.8800  0.2276
 5488TIP3   OH216469   5.321   3.306   1.027 -0.4033  0.0957 -0.0401
 5488TIP3    H116470   5.354   3.251   0.956 -0.5017  0.7553 -0.6084
 5488TIP3    H216471   5.338   3.395   0.997  1.2031  0.3739  1.5616
 5489TIP3   OH216472   4.720   3.135   0.344 -0.1775 -0.0892 -0.1552
 5489TIP3    H116473   4.636   3.158   0.305 -0.3544 -0.3874  0.0488
 5489TIP3    H216474   4.714   3.041   0.362  0.6225 -0.3628 -1.1897
 5490TIP3   OH216475   4.451   5.621   0.937 -0.1805 -0.0621  0.8667
 5490TIP3    H116476   4.415   5.663   1.015  1.3338  3.0900  0.0399
 5490TIP3    H216477   4.524   5.568   0.970 -1.2845 -1.0676  1.7998
 5491TIP3   OH216478   6.255   5.253   0.219  0.7859  0.6417 -0.2668
 5491TIP3    H116479   6.306   5.278   0.296 -0.1050  2.3027 -0.1570
 5491TIP3    H216480   6.238   5.160   0.230  2.3504  0.4201  0.5279
 5492TIP3   OH216481   0.172   4.488   1.322  0.1581 -0.1357 -0.2079
 5492TIP3    H116482   0.172   4.554   1.392 -0.1189  0.5497 -0.8303
 5492TIP3    H216483   0.086   4.498   1.281  0.6852  0.1710 -1.2731
 5493TIP3   OH216484   3.221   2.624   3.118  0.0533  0.1596  0.1845
 5493TIP3    H116485   3.263   2.668   3.191 -1.0050  1.0383  0.2955
 5493TIP3    H216486   3.291   2.611   3.054  1.5246 -2.6419  2.1604
 5494TIP3   OH216487   0.527   1.258   1.707 -0.0448  0.0363 -0.0772
 5494TIP3    H116488   0.587   1.288   1.639 -1.1709 -1.9306 -2.0587
 5494TIP3    H216489   0.546   1.164   1.717 -1.1251 -0.0989  1.0499
 5495TIP3   OH216490   0.140   2.333   4.875  0.3159 -0.0161 -0.0173
 5495TIP3    H116491   0.151   2.332   4.970  0.6023  0.7433 -0.0324
 5495TIP3    H216492   0.225   2.362   4.842  0.7985 -1.9121 -0.6179
 5496TIP3   OH216493   2.535   2.777   4.435  0.2388  0.1767  0.0293
 5496TIP3    H116494   2.477   2.703   4.448 -0.1851  0.5917  0.5766
 5496TIP3    H216495   2.623   2.740   4.440  0.0444 -0.5647 -1.4553
 5497TIP3   OH216496   4.482   2.652   1.433  0.0786  0.6103  0.1661
 5497TIP3    H116497   4.456   2.738   1.466 -0.1042  0.3338  0.7680
 5497TIP3    H216498   4.576   2.662   1.414  0.0467  0.9596  0.1813
 5498TIP3   OH216499   2.904   4.763   4.474 -0.0477  0.1735  0.0624
 5498TIP3    H116500   2.937   4.678   4.500 -1.1921 -0.4430 -0.4365
 5498TIP3    H216501   2.832   4.782   4.534  0.1769  0.7798  0.1531
 5499TIP3   OH216502   3.088   1.426   1.116  0.0475 -0.2116 -0.8170
 5499TIP3    H116503   3.120   1.461   1.034  0.5388 -0.6152 -0.8013
 5499TIP3    H216504   3.160   1.438   1.178 -0.2617 -0.0480 -0.4806
 5500TIP3   OH216505   2.098   1.485   1.581  0.2527 -0.0358  0.0608
 5500TIP3    H116506   2.135   1.422   1.518  0.3304 -0.8021  0.8543
 5500TIP3    H216507   2.173   1.517   1.630  0.0947 -0.1074  0.3511
 5501TIP3   OH216508   4.119   0.253   4.206  0.9173  0.1576 -0.7949
 5501TIP3    H116509   4.098   0.206   4.286  2.1810 -1.8122 -1.5457
 5501TIP3    H216510   4.094   0.344   4.224  0.3865 -0.3844  1.4937
 5502TIP3   OH216511   5.100   5.141   2.668  0.3671  0.1562 -0.4363
 5502TIP3    H116512   5.006   5.133   2.681  0.3817  0.5088 -0.0776
 5502TIP3    H216513   5.125   5.217   2.720  1.3181 -1.6238  1.9071
 5503TIP3   OH216514   3.149   1.982   4.043  0.4583  0.0005 -0.2409
 5503TIP3    H116515   3.145   1.898   4.088 -0.0139  0.4413  0.5652
 5503TIP3    H216516   3.203   2.037   4.099 -0.3559  0.6390 -0.0638
 5504TIP3   OH216517   4.117   1.908   0.436  0.3270  0.2743  0.1869
 5504TIP3    H116518   4.141   1.836   0.494  0.5753  0.7701  0.7157
 5504TIP3    H216519   4.029   1.933   0.464 -0.3083 -0.6838 -0.8810
 5505TIP3   OH216520   5.983   4.203   2.473  0.8301  0.1417 -0.1067
 5505TIP3    H116521   6.028   4.282   2.442  1.1658  0.6752  1.6397
 5505TIP3    H216522   5.890   4.221   2.458  0.9858  0.3334 -0.8760
 5506TIP3   OH216523   5.811   2.589   4.704  0.0903  0.5884  0.2023
 5506TIP3    H116524   5.877   2.586   4.635  0.8929 -1.9077  0.9389
 5506TIP3    H216525   5.732   2.552   4.665 -0.3633  1.9129 -0.1723
 5507TIP3   OH216526   2.746   4.789   3.629  0.6908 -0.1068 -0.1121
 5507TIP3    H116527   2.769   4.770   3.538 -0.0128 -0.2211 -0.2747
 5507TIP3    H216528   2.829   4.784   3.677  1.1780  0.6892 -0.8632
 5508TIP3   OH216529   3.934   3.619   3.029  0.2145 -0.5626 -0.4347
 5508TIP3    H116530   3.851   3.667   3.033 -0.4432 -1.7048  0.0018
 5508TIP3    H216531   3.937   3.582   2.941  0.7529  0.2866 -0.7934
 5509TIP3   OH216532   1.971   5.420   0.328 -0.6988  0.4892 -0.1812
 5509TIP3    H116533   2.011   5.340   0.295  0.1497  1.0002 -0.4304
 5509TIP3    H216534   2.046   5.475   0.353 -1.2396  1.5748 -0.8915
 5510TIP3   OH216535   2.657   4.133   4.005  0.1205  0.1976  0.6387
 5510TIP3    H116536   2.751   4.129   4.020  0.5459 -0.6735 -1.8652
 5510TIP3    H216537   2.634   4.224   4.022  1.5787  0.6254  0.4310
 5511TIP3   OH216538   4.905   3.687   0.164  0.3985 -0.4155 -0.0078
 5511TIP3    H116539   4.842   3.759   0.157  1.3741  0.3871 -0.6779
 5511TIP3    H216540   4.977   3.712   0.106  1.3230 -1.3383  0.7103
 5512TIP3   OH216541   3.549   0.621   3.658  0.0200 -0.2258  0.1202
 5512TIP3    H116542   3.593   0.677   3.722 -1.1964  0.6836  0.1958
 5512TIP3    H216543   3.467   0.666   3.639  1.1555  0.6461 -3.5933
 5513TIP3   OH216544   0.857   1.653   2.727 -0.4609  0.0114  0.4271
 5513TIP3    H116545   0.768   1.679   2.704  0.1464  0.6032 -1.3973
 5513TIP3    H216546   0.913   1.699   2.664  1.2493  0.5947  2.2723
 5514TIP3   OH216547   1.943   1.175   2.290 -0.2054 -0.3351  0.0691
 5514TIP3    H116548   1.988   1.253   2.258 -0.3252 -0.4038 -0.2814
 5514TIP3    H216549   2.010   1.107   2.289  0.7130  0.3831  3.1792
 5515TIP3   OH216550   3.502   4.476   4.078 -0.3896  0.3076 -0.1788
 5515TIP3    H116551   3.409   4.500   4.082 -0.6246 -0.4755 -0.7788
 5515TIP3    H216552   3.530   4.504   3.991 -0.1129  0.3357 -0.0814
 5516TIP3   OH216553   0.559   0.671   0.656 -0.1638 -0.3048  0.4161
 5516TIP3    H116554   0.597   0.598   0.607 -1.8979  0.4578 -2.3015
 5516TIP3    H216555   0.494   0.631   0.712 -0.2240 -0.9825 -0.1253
 5517TIP3   OH216556   5.129   3.394   2.805  0.0712 -0.2161 -0.0102
 5517TIP3    H116557   5.136   3.489   2.808  0.0670 -0.2409  1.1384
 5517TIP3    H216558   5.174   3.364   2.884  1.3853 -1.2561 -1.0959
 5518TIP3   OH216559   4.531   1.427   0.926 -0.0485  0.5830  0.3102
 5518TIP3    H116560   4.489   1.396   0.845 -1.9957  0.3954  1.3238
 5518TIP3    H216561   4.615   1.382   0.929 -0.7387 -0.8270 -0.6970
 5519TIP3   OH216562   2.042   2.360   1.790 -0.4765 -0.5203  0.0988
 5519TIP3    H116563   2.001   2.446   1.780 -0.9862 -0.5507  1.6421
 5519TIP3    H216564   1.977   2.299   1.755 -0.5582 -0.3680 -0.0188
 5520TIP3   OH216565   4.597   3.736   4.446  0.8429  0.1334 -0.3822
 5520TIP3    H116566   4.676   3.760   4.495  0.7517  1.0164 -0.6569
 5520TIP3    H216567   4.569   3.817   4.405  0.2232 -0.3446 -0.9157
 5521TIP3   OH216568   1.009   2.427   5.031 -0.1126 -0.5728  0.3381
 5521TIP3    H116569   1.091   2.379   5.028 -1.8062 -3.7328  0.4261
 5521TIP3    H216570   0.963   2.392   5.107 -1.8847  0.5222 -0.1501
 5522TIP3   OH216571   4.372   3.953   0.204  0.1826  0.0299 -0.5743
 5522TIP3    H116572   4.318   4.033   0.203 -0.4371 -0.3819 -0.2762
 5522TIP3    H216573   4.371   3.924   0.295  1.9183  0.6787 -0.3070
 5523TIP3   OH216574   0.883   4.696   0.278 -0.1303  0.2887 -1.0841
 5523TIP3    H116575   0.819   4.763   0.254 -3.2810 -1.4600  1.5008
 5523TIP3    H216576   0.836   4.613   0.264  3.0780 -1.4078 -2.8282
 5524TIP3   OH216577   3.802   4.860   1.416 -0.0540  0.5267 -0.4456
 5524TIP3    H116578   3.733   4.914   1.454 -0.2525  0.1213 -0.2228
 5524TIP3    H216579   3.862   4.843   1.489  0.1803  0.7118 -0.5907
 5525TIP3   OH216580   1.889   4.059   2.604 -0.6854 -0.3107  0.0214
 5525TIP3    H116581   1.813   4.111   2.632 -0.6848 -0.5022  0.3772
 5525TIP3    H216582   1.873   3.972   2.641 -0.1061 -0.2502  0.4185
 5526TIP3   OH216583   1.902   1.714   2.760 -0.2300 -0.0947 -0.2854
 5526TIP3    H116584   1.964   1.728   2.689 -0.4260  1.3352 -0.1952
 5526TIP3    H216585   1.837   1.783   2.749 -1.6637 -1.3593 -0.1940
 5527TIP3   OH216586   5.069   3.988   4.845 -0.1203  0.7901  0.2715
 5527TIP3    H116587   5.146   3.935   4.867  1.0383  1.8554 -1.0255
 5527TIP3    H216588   5.071   3.994   4.749 -1.9026  0.7561  0.1953
 5528TIP3   OH216589   5.190   2.966   3.773 -0.1387 -1.0274  0.5320
 5528TIP3    H116590   5.201   2.878   3.810 -3.0327 -2.0810 -0.7914
 5528TIP3    H216591   5.144   2.951   3.691  0.7182  1.6688 -0.5218
 5529TIP3   OH216592   6.066   3.683   4.470 -0.4969 -0.0627  0.0022
 5529TIP3    H116593   6.054   3.722   4.556 -1.4049 -1.4527  0.5537
 5529TIP3    H216594   6.071   3.589   4.488  0.1965 -0.3105 -1.3846
 5530TIP3   OH216595   4.052   4.794   0.463  0.2090  0.2236  0.0181
 5530TIP3    H116596   4.108   4.869   0.484  1.4533 -0.8287  0.5899
 5530TIP3    H216597   3.974   4.807   0.517  0.1915  1.3563 -0.2622
 5531TIP3   OH216598   0.900   1.132   4.176 -0.0537  0.2442 -0.3374
 5531TIP3    H116599   0.978   1.106   4.128  1.0678  1.8432  0.5108
 5531TIP3    H216600   0.886   1.224   4.152  1.3564  1.5627  3.2270
 5532TIP3   OH216601   2.188   4.241   3.708 -0.1907  0.0188 -0.9816
 5532TIP3    H116602   2.275   4.272   3.681 -0.0165 -0.7892 -1.3524
 5532TIP3    H216603   2.161   4.304   3.776  0.9220 -0.0339 -0.4615
 5533TIP3   OH216604   4.533   1.049   2.803  0.0028 -0.1956 -0.3831
 5533TIP3    H116605   4.466   0.980   2.806  0.0243 -0.3496 -2.0548
 5533TIP3    H216606   4.614   1.005   2.826 -0.3854 -0.1012  1.2448
 5534TIP3   OH216607   5.255   2.457   3.904 -0.1942  0.2744 -0.2573
 5534TIP3    H116608   5.235   2.412   3.822 -1.3627  0.8628 -0.3116
 5534TIP3    H216609   5.186   2.429   3.964 -0.7887  1.7425 -0.2167
 5535TIP3   OH216610   2.203   1.998   2.843  0.6272  0.0107  0.3878
 5535TIP3    H116611   2.236   1.912   2.818  0.4841  0.1557 -0.3224
 5535TIP3    H216612   2.127   1.980   2.897  0.4759 -0.3129  0.0724
 5536TIP3   OH216613   2.950   4.895   3.765  0.0590 -0.0752 -0.3212
 5536TIP3    H116614   2.918   4.954   3.697  1.6070  0.1020 -0.9313
 5536TIP3    H216615   2.970   4.952   3.840 -0.9610 -0.1828  0.0505
 5537TIP3   OH216616   1.223   1.618   4.077 -0.1853  0.5647  0.3379
 5537TIP3    H116617   1.150   1.579   4.030  0.3285  0.7714 -0.6699
 5537TIP3    H216618   1.269   1.670   4.010  1.2608 -0.1028  0.7811
 5538TIP3   OH216619   3.985   0.728   1.953  0.4618  0.1766  0.1524
 5538TIP3    H116620   3.987   0.632   1.947 -0.0143  0.2096 -0.6824
 5538TIP3    H216621   4.063   0.756   1.905 -0.9630  0.2814 -2.2830
 5539TIP3   OH216622   2.438   2.348   4.656  0.4766 -0.0015 -0.4666
 5539TIP3    H116623   2.397   2.416   4.709  1.9609  1.1556 -0.7545
 5539TIP3    H216624   2.472   2.285   4.720  1.4408  0.9109 -0.0701
 5540TIP3   OH216625   1.476   2.761   3.077 -0.2451  0.5387 -0.3795
 5540TIP3    H116626   1.420   2.686   3.095  0.3375 -0.0155 -0.8079
 5540TIP3    H216627   1.435   2.834   3.123  0.4153 -0.4966  1.9960
 5541TIP3   OH216628   3.904   1.422   3.620 -0.6859 -0.2511 -0.2548
 5541TIP3    H116629   3.841   1.462   3.561 -1.4738  0.5223  1.0843
 5541TIP3    H216630   3.938   1.346   3.571  0.3807  1.6025 -2.5885
 5542TIP3   OH216631   4.766   5.562   1.383  0.2349  0.1128  0.7203
 5542TIP3    H116632   4.718   5.612   1.449  1.1750  1.5259  0.3491
 5542TIP3    H216633   4.816   5.627   1.334  0.8192 -1.0942 -0.3396
 5543TIP3   OH216634   1.544   1.711   1.711 -0.3120  0.0817  0.2711
 5543TIP3    H116635   1.527   1.619   1.729 -0.1073 -0.4680 -2.0083
 5543TIP3    H216636   1.459   1.754   1.722 -1.0891 -0.9189 -1.3876
 5544TIP3   OH216637   0.984   1.754   2.501 -0.2446 -0.9009 -0.7505
 5544TIP3    H116638   0.945   1.840   2.486  0.1066 -0.6791 -0.4337
 5544TIP3    H216639   0.976   1.709   2.417  0.4658 -0.1875 -1.2208
 5545TIP3   OH216640   4.003   5.553   3.230 -1.1413 -0.4041  0.0717
 5545TIP3    H116641   4.050   5.605   3.296 -0.6870  1.6213 -1.7387
 5545TIP3    H216642   4.025   5.463   3.252  0.6364  0.2952  1.5126
 5546TIP3   OH216643   5.378   4.048   4.944  0.0666  0.3716  0.7518
 5546TIP3    H116644   5.399   4.131   4.988  0.1321  0.5603  0.3689
 5546TIP3    H216645   5.456   4.027   4.895  0.0655  0.0537  0.8872
 5547TIP3   OH216646   5.630   0.637   4.318  0.2382 -0.1524  0.1897
 5547TIP3    H116647   5.581   0.654   4.399  1.4814  1.2762  0.7022
 5547TIP3    H216648   5.717   0.674   4.335  1.2730 -1.8665 -0.9709
 5548TIP3   OH216649   1.642   4.676   0.953 -0.6029 -0.2682 -0.4232
 5548TIP3    H116650   1.719   4.620   0.940 -0.4526 -0.5738  1.5663
 5548TIP3    H216651   1.568   4.615   0.951 -0.4541 -0.5694  1.5481
 5549TIP3   OH216652   4.887   4.253   3.560 -0.2434 -0.1450 -0.1828
 5549TIP3    H116653   4.840   4.179   3.523  0.1409 -0.9141  0.8508
 5549TIP3    H216654   4.968   4.216   3.594  0.7175  1.0162 -1.1138
 5550TIP3   OH216655   3.051   2.709   3.354  0.4126 -0.4315 -0.3583
 5550TIP3    H116656   3.143   2.733   3.344  0.3927  0.5095  1.3561
 5550TIP3    H216657   3.006   2.753   3.283  1.4070 -1.8727 -1.9527
 5551TIP3   OH216658   4.128   5.562   2.962  0.1059  0.0304  0.1601
 5551TIP3    H116659   4.076   5.488   2.931 -0.9205  1.0401 -0.6057
 5551TIP3    H216660   4.137   5.547   3.056 -0.4700 -0.8391  0.0865
 5552TIP3   OH216661   3.991   1.333   3.879 -0.5440 -0.0517 -0.4228
 5552TIP3    H116662   3.940   1.253   3.889 -0.2112 -0.2373 -0.1929
 5552TIP3    H216663   3.955   1.374   3.801  0.3743 -1.2682 -1.5484
 5553TIP3   OH216664   5.187   1.757   1.335  0.2335  0.0739  0.4963
 5553TIP3    H116665   5.110   1.703   1.318  2.4715 -2.9602 -1.1303
 5553TIP3    H216666   5.234   1.709   1.404  1.5262  0.8597  0.1937
 5554TIP3   OH216667   3.131   0.760   1.900 -0.1174 -0.0251 -0.5596
 5554TIP3    H116668   3.170   0.797   1.821  1.5648 -1.3916 -0.4257
 5554TIP3    H216669   3.205   0.733   1.954 -1.2189  1.3118  1.7500
 5555TIP3   OH216670   1.752   2.851   2.550  0.0002  0.0627 -0.3524
 5555TIP3    H116671   1.725   2.770   2.593 -1.0688 -0.8571 -2.6045
 5555TIP3    H216672   1.831   2.828   2.501 -1.2116 -0.1285 -2.3174
 5556TIP3   OH216673   2.054   3.664   3.613  0.0810  0.6662  0.2049
 5556TIP3    H116674   2.009   3.710   3.542 -1.4251  0.8464  1.2282
 5556TIP3    H216675   2.005   3.687   3.692  1.2389 -0.1525  1.2061
 5557TIP3   OH216676   0.645   0.820   0.140 -0.5341 -0.2307  0.1177
 5557TIP3    H116677   0.577   0.836   0.074  0.0225 -0.2594 -0.4777
 5557TIP3    H216678   0.659   0.726   0.137 -1.7139 -0.4929  1.5166
 5558TIP3   OH216679   1.962   4.877   0.078 -0.0159  0.2500 -0.4332
 5558TIP3    H116680   1.890   4.933   0.107 -0.3184 -0.0082 -0.6766
 5558TIP3    H216681   1.923   4.820   0.012  0.2169 -0.4486  0.0176
 5559TIP3   OH216682   0.339   3.765   0.255 -0.0198  0.7932  0.4204
 5559TIP3    H116683   0.343   3.670   0.249  0.5658  0.8581 -0.5167
 5559TIP3    H216684   0.247   3.786   0.239 -0.4491  0.3210  2.1171
 5560TIP3   OH216685   2.228   4.932   0.107  0.0368 -0.4532 -0.5423
 5560TIP3    H116686   2.135   4.916   0.096  0.0418 -0.8668 -0.0164
 5560TIP3    H216687   2.267   4.906   0.024 -0.1944 -1.3047 -0.3969
 5561TIP3   OH216688   4.554   0.425   4.868 -0.0072  0.9573 -0.3851
 5561TIP3    H116689   4.611   0.493   4.832  1.0795 -0.9299 -2.4521
 5561TIP3    H216690   4.470   0.439   4.823  0.7053 -0.0430 -2.0860
 5562TIP3   OH216691   0.286   5.212   1.905  0.1028 -0.4959  0.0167
 5562TIP3    H116692   0.364   5.247   1.863 -0.7048 -0.4774 -1.5097
 5562TIP3    H216693   0.280   5.122   1.873 -0.2314 -0.6619  0.5328
 5563TIP3   OH216694   0.046   2.744   0.354  0.5257 -0.0728  0.3131
 5563TIP3    H116695  -0.028   2.703   0.308  0.7698  0.2435 -0.3836
 5563TIP3    H216696   0.071   2.818   0.298  1.6616 -0.4466  0.3011
 5564TIP3   OH216697   2.713   4.693   2.081  0.1502 -0.7119 -0.0110
 5564TIP3    H116698   2.656   4.705   2.157  0.9365 -0.4506  0.5496
 5564TIP3    H216699   2.794   4.737   2.105 -0.0118  0.4745 -1.5032
 5565TIP3   OH216700   1.225   2.012   0.070 -1.0034  0.1905  0.1762
 5565TIP3    H116701   1.147   1.958   0.083  0.6228 -2.0408  1.3367
 5565TIP3    H216702   1.271   1.970  -0.002 -0.4511  0.9873  0.0576
 5566TIP3   OH216703   1.889   0.884   0.670  0.2220 -0.5279  0.1538
 5566TIP3    H116704   1.957   0.859   0.607  1.8596  0.6552  1.3647
 5566TIP3    H216705   1.926   0.858   0.755 -1.4691 -1.1100  0.7434
 5567TIP3   OH216706   6.115   4.639   3.797 -0.3002 -0.1014  0.2434
 5567TIP3    H116707   6.207   4.659   3.777 -0.2393  0.1153  0.7272
 5567TIP3    H216708   6.104   4.548   3.769  0.2653 -0.3667  0.8457
 5568TIP3   OH216709   4.525   2.357   1.243  0.3438  0.5797 -0.2175
 5568TIP3    H116710   4.559   2.268   1.236  1.4072  0.7608  1.7593
 5568TIP3    H216711   4.538   2.380   1.335 -3.2041  1.5003  0.2012
 5569TIP3   OH216712   1.200   5.614   1.551 -0.6533  0.2220 -0.3503
 5569TIP3    H116713   1.135   5.679   1.524 -1.7592 -0.0547  1.4737
 5569TIP3    H216714   1.274   5.628   1.492 -0.9197  2.9975 -0.1602
 5570TIP3   OH216715   4.134   0.056   4.971  0.4646  1.0061  0.3708
 5570TIP3    H116716   4.127   0.023   4.881  0.5580 -0.1720  0.7730
 5570TIP3    H216717   4.120   0.150   4.964 -3.1360  0.5495 -0.4504
 5571TIP3   OH216718   4.642   2.439   1.653 -0.2740  0.3974  0.0736
 5571TIP3    H116719   4.687   2.520   1.628  0.8912  0.1482  1.2672
 5571TIP3    H216720   4.561   2.469   1.694 -0.9033  0.8699 -1.4371
 5572TIP3   OH216721   0.894   4.171   0.430  0.9824 -0.4877 -0.1418
 5572TIP3    H116722   0.912   4.090   0.382  0.9418 -0.0372 -0.9373
 5572TIP3    H216723   0.822   4.149   0.489  0.2594 -0.7600 -1.1079
 5573TIP3   OH216724   5.831   5.679   0.055 -0.4528  0.0936 -0.1744
 5573TIP3    H116725   5.825   5.729   0.136  1.1858 -0.2011  0.1713
 5573TIP3    H216726   5.898   5.612   0.073  0.6250  0.5803 -2.0365
 5574TIP3   OH216727   3.163   2.654   3.687 -0.0929 -0.6232 -0.5843
 5574TIP3    H116728   3.094   2.720   3.683 -0.6262 -1.2130 -1.3483
 5574TIP3    H216729   3.138   2.597   3.760 -0.2181 -0.6147 -0.6198
 5575TIP3   OH216730   0.527   4.444   4.621  0.2828  0.1665  0.2421
 5575TIP3    H116731   0.618   4.468   4.606 -0.1152  1.1655 -0.7202
 5575TIP3    H216732   0.527   4.348   4.623  1.1365  0.0998 -1.3030
 5576TIP3   OH216733   2.010   3.335   2.958  0.4161 -0.3837  0.2147
 5576TIP3    H116734   2.056   3.270   3.012 -1.7876 -1.8159  0.4887
 5576TIP3    H216735   1.919   3.327   2.985 -0.2222  1.3336 -1.3150
 5577TIP3   OH216736   4.834   1.295   5.088  0.9709 -0.2470 -0.3788
 5577TIP3    H116737   4.849   1.240   5.165  1.9291 -0.3630 -0.6248
 5577TIP3    H216738   4.796   1.375   5.123  2.4772  0.1812  0.4010
 5578TIP3   OH216739   2.235   5.471   0.429  0.1445  0.3161  0.3466
 5578TIP3    H116740   2.211   5.399   0.487 -0.0375  1.7259  2.1178
 5578TIP3    H216741   2.309   5.514   0.473  0.1455  1.3148 -0.5774
 5579TIP3   OH216742   3.517   0.080   3.384  0.8461  0.1088  0.5881
 5579TIP3    H116743   3.604   0.083   3.345  1.5398 -0.8473  1.9957
 5579TIP3    H216744   3.518   0.150   3.450 -0.6833  2.4611 -1.6573
 5580TIP3   OH216745   3.150   5.094   1.695  0.1872  0.7015  0.3548
 5580TIP3    H116746   3.122   5.132   1.611  0.0357 -0.6867 -0.2492
 5580TIP3    H216747   3.086   5.026   1.713  1.3868 -0.3993  0.5557
 5581TIP3   OH216748   5.613   0.597   2.471 -0.1768 -0.4112 -0.3081
 5581TIP3    H116749   5.549   0.616   2.403 -0.5065 -0.5119 -0.0323
 5581TIP3    H216750   5.688   0.560   2.425  0.1303  0.7357 -0.7602
 5582TIP3   OH216751   2.656   4.408   4.044 -0.5811  0.1432  0.1027
 5582TIP3    H116752   2.681   4.431   4.134  1.3332  1.7020 -0.7333
 5582TIP3    H216753   2.569   4.445   4.033 -0.6604  0.3205  1.1925
 5583TIP3   OH216754   4.499   1.808   0.423  0.3279 -0.2370  0.0850
 5583TIP3    H116755   4.587   1.827   0.390  0.3108  0.1294  0.2403
 5583TIP3    H216756   4.514   1.763   0.506  0.4279  2.7692  1.8383
 5584TIP3   OH216757   4.044   1.042   1.988  0.2815  0.3204 -0.7727
 5584TIP3    H116758   4.094   0.967   1.954 -1.0024 -0.4687 -1.0049
 5584TIP3    H216759   4.021   1.092   1.910 -0.5330 -0.1197 -0.8165
 5585TIP3   OH216760   4.471   0.500   0.336  0.0560 -0.1412  0.3822
 5585TIP3    H116761   4.435   0.565   0.277  1.2827  1.2796  1.1234
 5585TIP3    H216762   4.529   0.447   0.281 -2.0231 -1.6107 -0.5304
 5586TIP3   OH216763   5.599   3.141   0.483 -0.4968 -0.0675 -0.1637
 5586TIP3    H116764   5.540   3.213   0.506 -0.4378 -0.3921  1.0611
 5586TIP3    H216765   5.685   3.183   0.473 -0.1927 -0.0991  1.8416
 5587TIP3   OH216766   1.283   2.067   0.352 -0.4675  0.3061  0.1231
 5587TIP3    H116767   1.226   2.004   0.396 -1.0536  0.6778 -0.0990
 5587TIP3    H216768   1.285   2.036   0.261  0.3953 -0.2114  0.3065
 5588TIP3   OH216769   0.860   0.038   1.948  0.0189 -0.1061 -0.7060
 5588TIP3    H116770   0.815   0.107   1.996 -3.2188 -1.6236 -1.2606
 5588TIP3    H216771   0.881  -0.028   2.014  1.6194  0.6204 -0.4400
 5589TIP3   OH216772   0.683   5.577   1.261 -0.1428  0.1291 -0.0529
 5589TIP3    H116773   0.628   5.499   1.274  0.1634  0.2507  2.3475
 5589TIP3    H216774   0.772   5.548   1.282  0.0106  1.0736  0.6346
 5590TIP3   OH216775   5.997   4.122   3.477 -0.3265 -0.1173  0.1759
 5590TIP3    H116776   5.945   4.170   3.413  0.6801 -0.8081 -1.2205
 5590TIP3    H216777   5.996   4.031   3.446 -2.9057 -1.3215  3.1834
 5591TIP3   OH216778   4.883   5.430   3.304  0.1249  0.5808 -0.1465
 5591TIP3    H116779   4.856   5.369   3.235  0.9447 -0.0387  0.0565
 5591TIP3    H216780   4.913   5.508   3.258  0.8737  0.0869 -0.5118
 5592TIP3   OH216781   5.335   1.259   5.138  0.1814 -0.5099  0.0142
 5592TIP3    H116782   5.340   1.310   5.219  0.2950  0.5676 -0.6554
 5592TIP3    H216783   5.355   1.322   5.069  0.3821 -1.4851 -0.8330
 5593TIP3   OH216784   2.709   1.337   0.738 -0.1232 -0.2725 -0.3898
 5593TIP3    H116785   2.671   1.251   0.720 -0.2763  0.0367 -1.6243
 5593TIP3    H216786   2.763   1.323   0.817 -1.8131 -0.9912  0.6973
 5594TIP3   OH216787   2.350   3.282   4.178 -1.2193  0.1271  0.2720
 5594TIP3    H116788   2.369   3.209   4.236  0.2938  0.9515  0.8710
 5594TIP3    H216789   2.358   3.246   4.089  0.0106 -0.3293  0.5526
 5595TIP3   OH216790   6.222   3.486   1.587  0.6009  0.1691  0.3286
 5595TIP3    H116791   6.283   3.530   1.528  0.6814 -0.1779  0.1485
 5595TIP3    H216792   6.135   3.512   1.556  0.6614  0.9967  0.8430
 5596TIP3   OH216793   3.746   2.612   2.040  0.0868  0.4242 -0.2803
 5596TIP3    H116794   3.840   2.612   2.020  0.2506 -0.0515  0.4422
 5596TIP3    H216795   3.742   2.623   2.135 -0.5719 -0.1749 -0.2306
 5597TIP3   OH216796   5.027   5.387   0.426 -0.2228 -0.1781 -0.5940
 5597TIP3    H116797   5.003   5.461   0.482 -0.6568  0.1532 -1.2095
 5597TIP3    H216798   5.052   5.426   0.343  0.6982 -0.6509 -0.5537
 5598TIP3   OH216799   0.348   3.503   4.044 -0.4618  0.1196 -0.0930
 5598TIP3    H116800   0.392   3.455   4.114  0.3760 -0.8711 -1.2729
 5598TIP3    H216801   0.395   3.586   4.038 -0.8453  0.4151  0.8239
 5599TIP3   OH216802   1.513   0.683   1.790 -0.4056 -0.3123  0.1584
 5599TIP3    H116803   1.480   0.604   1.746 -0.5512  0.3027 -0.8606
 5599TIP3    H216804   1.579   0.650   1.852 -2.0410 -1.4501  1.3739
 5600TIP3   OH216805   5.340   4.954   4.120  0.1210 -0.3731  0.0862
 5600TIP3    H116806   5.344   4.975   4.214  0.9620  0.5826 -0.1466
 5600TIP3    H216807   5.249   4.974   4.096  0.2269  0.5925  0.4367
 5601TIP3   OH216808   4.728   5.392   0.764  0.1542 -0.0026 -0.5052
 5601TIP3    H116809   4.803   5.381   0.823  0.2935  1.4156 -0.3762
 5601TIP3    H216810   4.757   5.355   0.681  0.8354  0.1121 -0.3257
 5602TIP3   OH216811   3.526   5.904   1.945 -0.4010 -0.7009  0.4841
 5602TIP3    H116812   3.580   5.891   2.023 -0.4454 -1.4441  0.3979
 5602TIP3    H216813   3.534   5.822   1.896 -0.4194 -0.2626 -0.2653
 5603TIP3   OH216814   5.954   4.787   0.253  0.0582  0.2545  0.1537
 5603TIP3    H116815   5.869   4.746   0.270 -0.2041  1.2173  1.3015
 5603TIP3    H216816   5.957   4.798   0.158 -1.0292  0.0633  0.0850
 5604TIP3   OH216817   5.452   2.978   1.619 -0.5901 -0.6943  0.0082
 5604TIP3    H116818   5.497   2.917   1.677  0.3390  0.2008  0.2535
 5604TIP3    H216819   5.505   2.979   1.539 -0.8193 -0.4950 -0.1464
 5605TIP3   OH216820   3.763   2.699   0.623  0.1352  0.5100 -0.2075
 5605TIP3    H116821   3.760   2.778   0.568 -0.0750  0.2215 -0.6168
 5605TIP3    H216822   3.852   2.666   0.611  0.0806  0.4316 -0.3974
 5606TIP3   OH216823   5.331   2.217   4.777 -0.5886  0.2948 -0.5741
 5606TIP3    H116824   5.365   2.276   4.710  0.4091  0.4541  0.0477
 5606TIP3    H216825   5.256   2.174   4.736 -0.3766  0.8469 -1.5677
 5607TIP3   OH216826   3.996   3.550   1.113  0.0723 -0.6925  0.1377
 5607TIP3    H116827   3.986   3.465   1.155  1.9926 -0.3468  1.4518
 5607TIP3    H216828   4.081   3.582   1.144  0.0545  1.0793 -1.4516
 5608TIP3   OH216829   1.221   4.351   4.668  0.2729  0.2289  0.5010
 5608TIP3    H116830   1.242   4.419   4.732  0.3214 -0.8571  1.6552
 5608TIP3    H216831   1.125   4.351   4.664  0.2848  0.8520 -0.0620
 5609TIP3   OH216832   3.409   0.249   4.940 -0.0470  0.0977 -0.4452
 5609TIP3    H116833   3.487   0.291   4.903  0.1388 -0.9550 -1.2766
 5609TIP3    H216834   3.336   0.304   4.912  0.3998  1.3327  0.6937
 5610TIP3   OH216835   5.545   0.068   2.235 -0.7519 -0.2524 -0.1382
 5610TIP3    H116836   5.588   0.004   2.179 -0.4060 -0.2570  0.1281
 5610TIP3    H216837   5.472   0.020   2.274 -0.5783 -0.4460 -0.0510
 5611TIP3   OH216838   6.103   4.549   0.973 -0.1920  0.5361  0.7394
 5611TIP3    H116839   6.015   4.521   0.950 -0.1749  1.8965 -1.2603
 5611TIP3    H216840   6.160   4.481   0.937 -0.3890 -0.1635  1.7211
 5612TIP3   OH216841   3.684   2.963   3.607 -0.0104 -0.2390 -0.2503
 5612TIP3    H116842   3.642   2.890   3.653 -1.4213 -0.0198 -1.1376
 5612TIP3    H216843   3.669   3.038   3.665 -0.9311 -0.1473 -0.5982
 5613TIP3   OH216844   0.328   4.711   4.164  0.4990  0.2497  0.0035
 5613TIP3    H116845   0.356   4.634   4.116 -1.6493 -1.4457  1.2501
 5613TIP3    H216846   0.320   4.681   4.255 -2.7006  1.1675  0.1522
 5614TIP3   OH216847   4.041   3.435   1.573 -0.1411  0.2960  0.1779
 5614TIP3    H116848   4.047   3.366   1.639  3.7356 -0.4803 -0.7068
 5614TIP3    H216849   4.088   3.509   1.611 -0.9283  1.1054 -0.3792
 5615TIP3   OH216850   3.078   2.808   1.727 -0.3744 -0.1721 -0.1497
 5615TIP3    H116851   3.105   2.723   1.692  1.6299  0.4247 -0.1932
 5615TIP3    H216852   3.020   2.844   1.659  1.5502 -0.0510 -1.8279
 5616TIP3   OH216853   4.625   1.392   4.079  0.2890 -0.6189 -0.3669
 5616TIP3    H116854   4.599   1.352   4.163  0.1319 -1.4003 -0.7796
 5616TIP3    H216855   4.580   1.340   4.013 -0.2712  0.5096 -0.9191
 5617TIP3   OH216856   2.297   5.574   1.787  0.5250 -0.1075 -0.4353
 5617TIP3    H116857   2.386   5.583   1.755  1.0933 -0.5135  0.9362
 5617TIP3    H216858   2.248   5.539   1.713  1.3217  0.8204 -1.4401
 5618TIP3   OH216859   3.329   1.001   3.784 -0.3580  0.1609 -0.5446
 5618TIP3    H116860   3.298   1.090   3.767 -0.0271  0.2074 -0.9380
 5618TIP3    H216861   3.271   0.946   3.731 -0.7449  0.1124 -0.0804
 5619TIP3   OH216862   0.084   2.732   4.770  0.2005  0.5156  0.6644
 5619TIP3    H116863   0.125   2.686   4.697  0.8230  1.8562  0.1186
 5619TIP3    H216864   0.141   2.712   4.845 -1.2504 -2.0480  1.1736
 5620TIP3   OH216865   1.675   5.639   0.307  0.6258  0.0902 -0.0724
 5620TIP3    H116866   1.762   5.659   0.341  0.6622  0.5663 -0.4453
 5620TIP3    H216867   1.616   5.691   0.361  0.7265  1.3016 -1.0956
 5621TIP3   OH216868   5.989   3.802   4.232 -0.2879  0.5305  0.1771
 5621TIP3    H116869   5.969   3.739   4.301 -2.6310  2.6265  1.5793
 5621TIP3    H216870   6.074   3.838   4.256 -0.8542  0.8794  1.7144
 5622TIP3   OH216871   6.082   1.671   3.573 -0.5149  0.5380  0.4140
 5622TIP3    H116872   6.150   1.719   3.526  0.4864 -2.5341 -1.5972
 5622TIP3    H216873   6.009   1.733   3.580  1.3036  2.9052 -0.2595
 5623TIP3   OH216874   2.209   2.121   4.894 -0.0519 -0.2224  0.2553
 5623TIP3    H116875   2.141   2.122   4.827  1.4860  0.0040 -1.3677
 5623TIP3    H216876   2.247   2.033   4.888 -0.8078 -0.7064  1.8514
 5624TIP3   OH216877   1.118   3.894   3.752 -0.7637  0.9331 -0.1811
 5624TIP3    H116878   1.045   3.906   3.812 -0.1958 -1.4576  1.1055
 5624TIP3    H216879   1.197   3.903   3.806 -0.1891  0.4875 -0.9149
 5625TIP3   OH216880   0.848   5.324   3.683 -0.0008 -0.4918  0.2854
 5625TIP3    H116881   0.799   5.394   3.641  3.0125  0.9840 -1.0435
 5625TIP3    H216882   0.883   5.364   3.763 -0.1704 -1.2392  0.7445
 5626TIP3   OH216883   0.716   3.847   0.339  0.6495 -0.0587  0.1961
 5626TIP3    H116884   0.733   3.807   0.254 -0.8597 -1.1274  0.3529
 5626TIP3    H216885   0.721   3.775   0.402 -0.2704  0.3082  0.7257
 5627TIP3   OH216886   5.951   2.590   4.478 -0.1262  0.1598  0.2280
 5627TIP3    H116887   5.969   2.496   4.471  0.3218  0.1259  1.4695
 5627TIP3    H216888   6.032   2.632   4.451 -0.5872  0.2278 -1.1009
 5628TIP3   OH216889   0.439   3.215   3.685  0.2453  0.6652  0.0202
 5628TIP3    H116890   0.512   3.152   3.686  0.5885  1.0654  0.6506
 5628TIP3    H216891   0.366   3.166   3.721 -0.1563 -0.1337 -1.7613
 5629TIP3   OH216892   2.696   3.982   1.315  0.1062 -0.1369 -0.5514
 5629TIP3    H116893   2.723   3.989   1.407 -0.2216  0.0807 -0.4682
 5629TIP3    H216894   2.636   3.908   1.314 -0.1589  0.0775 -0.5244
 5630TIP3   OH216895   2.327   3.317   3.708  0.2253  0.0131  0.2770
 5630TIP3    H116896   2.241   3.344   3.674 -0.1275 -0.5337  0.7241
 5630TIP3    H216897   2.307   3.247   3.770  0.9945 -0.0698  0.4333
 5631TIP3   OH216898   5.826   4.867   1.453  0.0651 -0.9437 -0.4393
 5631TIP3    H116899   5.875   4.902   1.527  2.4195 -2.6872 -1.0125
 5631TIP3    H216900   5.754   4.818   1.492  0.2404 -0.3786  0.6135
 5632TIP3   OH216901   4.869   3.443   0.964  0.1186 -0.4365  0.1306
 5632TIP3    H116902   4.905   3.356   0.949  1.5585 -0.0123  0.8462
 5632TIP3    H216903   4.838   3.472   0.879  1.9701 -0.6617 -0.6658
 5633TIP3   OH216904   2.777   0.581   4.150 -0.1271  0.4132 -0.4532
 5633TIP3    H116905   2.797   0.563   4.058 -0.1860 -1.5189 -0.1288
 5633TIP3    H216906   2.859   0.566   4.196 -0.8061 -1.8123  0.1635
 5634TIP3   OH216907   1.343   1.137   1.319 -0.2467  0.5195 -0.2077
 5634TIP3    H116908   1.319   1.055   1.275  1.7202 -0.3673  0.2629
 5634TIP3    H216909   1.261   1.187   1.323 -1.8659 -2.0007  0.7792
 5635TIP3   OH216910   0.473   4.029   2.771  0.5627 -0.2377  0.3491
 5635TIP3    H116911   0.384   4.005   2.745  0.0493  1.4409  0.4485
 5635TIP3    H216912   0.520   3.946   2.777 -0.7702 -1.0820 -0.5324
 5636TIP3   OH216913   0.416   5.303   4.471 -0.0642  0.5191  0.0044
 5636TIP3    H116914   0.394   5.309   4.378 -1.4373 -0.2194  0.2534
 5636TIP3    H216915   0.389   5.387   4.507 -0.1825  0.5479 -0.1468
 5637TIP3   OH216916   2.027   1.630   0.776  0.7019 -0.3150  0.6533
 5637TIP3    H116917   2.113   1.616   0.735  1.1338 -0.5010  1.5915
 5637TIP3    H216918   2.047   1.644   0.868 -0.3301 -1.0222  1.0040
 5638TIP3   OH216919   4.220   4.708   2.979 -0.1596  0.7528  0.3134
 5638TIP3    H116920   4.248   4.792   2.943  0.7607  0.6252  0.7162
 5638TIP3    H216921   4.241   4.644   2.910  1.1488  0.5757  0.8438
 5639TIP3   OH216922   1.400   2.991   1.571  0.7751 -0.0488  0.6296
 5639TIP3    H116923   1.362   2.933   1.505  1.0732  0.6397 -0.1638
 5639TIP3    H216924   1.494   2.972   1.569  0.6388 -0.9272  1.7684
 5640TIP3   OH216925   3.450   4.258   4.466 -0.2570  0.4609  0.4205
 5640TIP3    H116926   3.448   4.322   4.537  1.2914  0.3212  0.6080
 5640TIP3    H216927   3.426   4.308   4.388 -0.3311  0.9703  0.7665
 5641TIP3   OH216928   1.192   0.815   2.342 -0.5046 -0.2861 -0.1988
 5641TIP3    H116929   1.267   0.855   2.297  1.0134 -1.5480  1.0624
 5641TIP3    H216930   1.140   0.775   2.272  1.0539 -1.0176 -0.9906
 5642TIP3   OH216931   5.011   1.035   0.519  0.4245 -0.1408 -0.3224
 5642TIP3    H116932   5.088   1.082   0.489  1.0772 -0.0518  1.4074
 5642TIP3    H216933   4.968   1.006   0.438  2.0343  0.1528 -1.3296
 5643TIP3   OH216934   1.597   2.945   0.126  0.1851 -0.3613  0.2204
 5643TIP3    H116935   1.671   2.900   0.166 -0.8023 -1.3407  1.0078
 5643TIP3    H216936   1.533   2.954   0.196  0.0942  1.7928 -0.0600
 5644TIP3   OH216937   5.904   3.370   2.824  0.3597 -0.5741  0.3455
 5644TIP3    H116938   5.994   3.371   2.855  1.2906 -0.8736 -2.1000
 5644TIP3    H216939   5.899   3.441   2.761 -0.0831 -2.5165 -1.9811
 5645TIP3   OH216940   1.530   1.794   4.039  0.3029 -0.3159  0.0844
 5645TIP3    H116941   1.482   1.850   3.978 -0.2639  1.5009  2.0774
 5645TIP3    H216942   1.503   1.705   4.017  0.1202  0.2460 -2.2619
 5646TIP3   OH216943   3.848   2.816   0.225  0.3099 -0.3186 -0.2934
 5646TIP3    H116944   3.780   2.850   0.168 -0.1353 -1.0272 -0.2042
 5646TIP3    H216945   3.865   2.727   0.192 -0.7575 -1.1797  1.3295
 5647TIP3   OH216946   1.869   4.994   2.192 -0.2113 -0.3690 -0.0066
 5647TIP3    H116947   1.837   4.942   2.119  2.5889 -0.5517 -1.2362
 5647TIP3    H216948   1.837   5.082   2.175  1.3215 -0.1650 -2.1584
 5648TIP3   OH216949   1.338   4.042   1.472  0.2867 -0.0100  0.1000
 5648TIP3    H116950   1.361   3.950   1.487  0.9666  0.1359 -0.0075
 5648TIP3    H216951   1.244   4.041   1.454  0.6867 -0.9922 -2.2947
 5649TIP3   OH216952   2.270   0.948   4.677  0.3713  0.1131 -0.3967
 5649TIP3    H116953   2.253   1.008   4.749 -0.3765 -0.8409  0.2537
 5649TIP3    H216954   2.238   0.863   4.708  0.0937 -0.3396 -1.8184
 5650TIP3   OH216955   4.120   5.015   2.835  0.7514 -0.7231 -0.3957
 5650TIP3    H116956   4.056   4.971   2.778  0.5064  0.1271 -0.7966
 5650TIP3    H216957   4.107   5.108   2.817  0.7142 -0.4396  1.0131
 5651TIP3   OH216958   1.859   1.071   4.010  0.0201  0.7508  0.3597
 5651TIP3    H116959   1.806   1.075   4.089 -1.5271 -0.6100 -0.5462
 5651TIP3    H216960   1.943   1.035   4.039 -1.1062 -1.4256  1.1686
 5652TIP3   OH216961   1.952   1.466   4.556  0.2933  0.2710  0.3073
 5652TIP3    H116962   1.886   1.533   4.540 -0.0744  0.1910  1.3793
 5652TIP3    H216963   1.910   1.406   4.619  0.9614 -0.4243  0.1051
 5653TIP3   OH216964   0.504   1.935   2.265  0.0247  0.1189  0.0546
 5653TIP3    H116965   0.469   1.852   2.235 -0.9450  0.7947 -0.7461
 5653TIP3    H216966   0.475   1.941   2.357 -0.2233 -0.2520  0.0026
 5654TIP3   OH216967   0.038   0.146   4.978  0.2230  0.4204 -0.1884
 5654TIP3    H116968   0.128   0.155   5.010  0.7246  1.5420 -1.7678
 5654TIP3    H216969  -0.005   0.227   5.004  0.2479  0.7368 -1.0858
 5655TIP3   OH216970   5.109   3.973   0.623  0.0774  0.3542 -0.4726
 5655TIP3    H116971   5.024   3.972   0.578 -0.1344 -0.9922 -0.0964
 5655TIP3    H216972   5.124   4.065   0.644 -2.2347  0.4511  1.1572
 5656TIP3   OH216973   1.224   4.304   1.506  0.2013 -0.3285 -0.9018
 5656TIP3    H116974   1.174   4.349   1.438 -1.7287 -1.5495 -0.3681
 5656TIP3    H216975   1.254   4.224   1.465  0.3204 -0.3628 -0.7494
 5657TIP3   OH216976   0.820   1.382   2.746  0.2001  0.3944 -0.2911
 5657TIP3    H116977   0.843   1.473   2.726  0.8521  0.5312  1.0093
 5657TIP3    H216978   0.784   1.385   2.834  0.0792 -0.5914 -0.3004
 5658TIP3   OH216979   5.940   5.283   1.447 -0.2593  0.3239  0.1412
 5658TIP3    H116980   5.941   5.244   1.360  0.7511  0.6439 -0.0023
 5658TIP3    H216981   5.875   5.354   1.441 -0.9038 -0.2683 -0.0581
 5659TIP3   OH216982   3.492   0.977  -0.008 -0.9165  0.0002  0.3101
 5659TIP3    H116983   3.453   1.015   0.070 -1.3305  1.2931 -0.4979
 5659TIP3    H216984   3.541   1.049  -0.048 -0.3501 -0.7554 -0.4019
 5660TIP3   OH216985   5.950   5.841   4.346  0.1240 -0.0044  0.2300
 5660TIP3    H116986   6.041   5.861   4.366  0.3959  1.1334 -1.8650
 5660TIP3    H216987   5.904   5.924   4.360 -0.6308 -0.5760  1.2958
 5661TIP3   OH216988   1.776   0.432   3.489 -0.8795  0.8413  0.0810
 5661TIP3    H116989   1.705   0.442   3.426  0.9407  1.3698 -2.0247
 5661TIP3    H216990   1.761   0.346   3.529 -1.6436  0.0662 -1.7447
 5662TIP3   OH216991   1.758   4.694   3.856 -0.3996 -0.1283  0.7734
 5662TIP3    H116992   1.705   4.624   3.818  1.3177 -2.5038  2.4701
 5662TIP3    H216993   1.765   4.672   3.949  0.0785  2.4473  1.4430
 5663TIP3   OH216994   5.237   1.684   0.825 -0.1239  0.6064 -0.3578
 5663TIP3    H116995   5.267   1.617   0.886  0.9557 -0.1763 -1.6850
 5663TIP3    H216996   5.152   1.651   0.794  0.1538  0.0972 -0.6016
 5664TIP3   OH216997   1.699   5.225   2.191  0.1803 -0.3244 -0.1414
 5664TIP3    H116998   1.627   5.234   2.129  0.2723  0.3159 -0.1652
 5664TIP3    H216999   1.756   5.300   2.172 -0.3000  0.4503  1.4000
 5665TIP3   OH217000   0.799   0.956   1.712  0.6479  0.4623  0.0707
 5665TIP3    H117001   0.832   1.030   1.661 -0.0269  1.0179  0.4183
 5665TIP3    H217002   0.792   0.989   1.801 -2.5741  1.0129 -0.2562
 5666TIP3   OH217003   3.311   1.642   3.977 -0.0752 -0.3236  0.0172
 5666TIP3    H117004   3.382   1.704   3.958  0.0011  0.1397  1.6585
 5666TIP3    H217005   3.354   1.558   3.989  0.1207 -0.1648  0.4128
 5667TIP3   OH217006   3.853   4.588   5.191 -0.0871 -0.1982  0.3186
 5667TIP3    H117007   3.816   4.575   5.104  2.7664  2.6794 -1.5739
 5667TIP3    H217008   3.921   4.522   5.198  0.0083 -0.1171  0.1602
 5668TIP3   OH217009   5.422   2.210   3.260 -0.1221  0.1875 -0.1344
 5668TIP3    H117010   5.374   2.202   3.342  1.2063 -1.5436  0.5389
 5668TIP3    H217011   5.395   2.134   3.208 -0.8995  1.2240 -1.3209
 5669TIP3   OH217012   0.792   1.975   0.797  0.2733  0.2073  0.1484
 5669TIP3    H117013   0.837   1.910   0.851 -0.7383  1.5218  2.7968
 5669TIP3    H217014   0.818   2.059   0.834 -2.6413  1.1009  0.4908
 5670TIP3   OH217015   3.383   0.992   4.054  0.2139  1.0584 -0.0638
 5670TIP3    H117016   3.338   0.993   3.970 -0.8211 -0.3625  0.4377
 5670TIP3    H217017   3.420   0.904   4.061 -0.1253  0.9878  1.1469
 5671TIP3   OH217018   0.171   4.598   0.486  0.1066 -0.0776 -0.2166
 5671TIP3    H117019   0.190   4.580   0.578  0.1134  0.6195 -0.0733
 5671TIP3    H217020   0.146   4.691   0.485  0.9846  0.1615 -1.0439
 5672TIP3   OH217021   5.653   2.456   3.537  0.4608  0.5132  0.3407
 5672TIP3    H117022   5.628   2.538   3.582  0.4417  0.3459  0.6401
 5672TIP3    H217023   5.738   2.434   3.575 -0.7605 -1.0950  2.3405
 5673TIP3   OH217024   3.931   1.997   0.598  0.2527 -0.3068 -0.2102
 5673TIP3    H117025   3.991   1.958   0.661 -0.1974 -1.9188 -0.7126
 5673TIP3    H217026   3.862   2.037   0.652  1.0271  0.2954  0.3404
 5674TIP3   OH217027   1.908   5.330   1.600  0.7790 -0.0761  0.1641
 5674TIP3    H117028   1.844   5.291   1.660 -1.2625 -0.2300 -1.9657
 5674TIP3    H217029   1.873   5.418   1.584  1.4444  0.0517 -0.5824
 5675TIP3   OH217030   2.185   2.698   2.708  0.2142  0.1418 -0.3086
 5675TIP3    H117031   2.241   2.726   2.780  1.4432  0.0914 -1.2104
 5675TIP3    H217032   2.208   2.606   2.694 -0.4302 -0.0105 -0.3990
 5676TIP3   OH217033   3.826   3.284   3.308  0.2580 -0.2270  0.0400
 5676TIP3    H117034   3.865   3.291   3.221 -0.8045  0.2568 -0.4121
 5676TIP3    H217035   3.893   3.241   3.361  1.6148  1.0788 -0.5654
 5677TIP3   OH217036   3.898   2.366   0.467 -0.1285 -0.3963 -0.3862
 5677TIP3    H117037   3.877   2.324   0.383  0.1708  0.3842 -0.8607
 5677TIP3    H217038   3.993   2.367   0.471 -0.1201  0.4046 -0.4818
 5678TIP3   OH217039   4.007   3.905   2.761  0.2002  0.0653 -1.0114
 5678TIP3    H117040   4.066   3.830   2.750  1.5990  0.8021  0.8522
 5678TIP3    H217041   3.921   3.873   2.733  1.3124 -1.2576 -3.1727
 5679TIP3   OH217042   5.310   1.347   0.243 -0.1370 -0.0845  0.0721
 5679TIP3    H117043   5.395   1.303   0.253  0.1740  0.4219 -0.3006
 5679TIP3    H217044   5.249   1.292   0.292  0.5559  0.0072  1.0740
 5680TIP3   OH217045   6.053   0.495   1.717  0.0303  0.3137 -0.0338
 5680TIP3    H117046   6.112   0.419   1.720  1.1705  1.1497 -0.8447
 5680TIP3    H217047   6.066   0.533   1.630  0.3290  2.1003  0.7529
 5681TIP3   OH217048   1.115   2.204   4.238  0.4502  0.4015 -0.1549
 5681TIP3    H117049   1.140   2.149   4.163 -0.0562 -1.4910  0.9747
 5681TIP3    H217050   1.106   2.141   4.310  0.3821  2.0920  1.3631
 5682TIP3   OH217051   0.864   3.707   3.949  0.6553  0.1986  0.4661
 5682TIP3    H117052   0.902   3.794   3.939  1.2531  0.0179  1.0417
 5682TIP3    H217053   0.939   3.651   3.973 -0.1646  0.1053  3.1752
 5683TIP3   OH217054   3.524   2.650   5.046 -0.0889 -0.3525 -0.2555
 5683TIP3    H117055   3.440   2.695   5.052 -1.6379 -2.9179 -1.3628
 5683TIP3    H217056   3.567   2.669   5.130 -0.5756  3.0431 -0.6180
 5684TIP3   OH217057   6.128   0.290   2.390  0.7208 -0.3019 -0.2182
 5684TIP3    H117058   6.141   0.384   2.387 -0.0293 -0.1549  0.6441
 5684TIP3    H217059   6.091   0.273   2.476 -0.1377 -1.2532 -0.7394
 5685TIP3   OH217060   6.075   1.385   0.077  0.4722  0.0002 -0.8149
 5685TIP3    H117061   6.052   1.424  -0.008 -0.2681 -0.1834 -0.7118
 5685TIP3    H217062   6.166   1.411   0.092  0.3734  0.6684 -1.3108
 5686TIP3   OH217063   4.929   1.585   2.550 -0.8567  0.1872  0.2219
 5686TIP3    H117064   4.857   1.612   2.607 -0.8188  0.9439 -0.0694
 5686TIP3    H217065   4.888   1.532   2.482 -1.1004  0.3932  0.2076
 5687TIP3   OH217066   5.448   5.678   0.465 -0.2879  0.5395  0.0322
 5687TIP3    H117067   5.509   5.734   0.512 -0.1417  0.3211  0.1021
 5687TIP3    H217068   5.502   5.632   0.400 -0.4888  0.8513 -0.3630
 5688TIP3   OH217069   3.513   3.685   2.861 -0.1852  0.6406 -0.2447
 5688TIP3    H117070   3.561   3.612   2.900 -0.5909  0.1597 -0.6279
 5688TIP3    H217071   3.545   3.689   2.771  0.7473  1.7452  0.1175
 5689TIP3   OH217072   2.511   0.425   1.990 -0.7035  0.3254  0.0486
 5689TIP3    H117073   2.497   0.493   1.924 -1.4960 -2.7266 -3.1929
 5689TIP3    H217074   2.603   0.400   1.979 -1.2703 -1.3433 -1.1773
 5690TIP3   OH217075   0.245   3.113   1.820  0.1639  0.0930 -0.1395
 5690TIP3    H117076   0.232   3.091   1.912  1.0097 -0.6794 -0.1944
 5690TIP3    H217077   0.160   3.146   1.791 -0.2105 -0.0051  0.8140
 5691TIP3   OH217078   0.950   4.069   4.845 -0.3436 -0.3632  0.0017
 5691TIP3    H117079   0.956   4.147   4.790  3.0129 -0.6053 -0.2139
 5691TIP3    H217080   0.947   4.102   4.934 -0.7355  0.0116 -0.1491
 5692TIP3   OH217081   3.212   5.888   0.596 -0.0049 -0.1800 -0.0714
 5692TIP3    H117082   3.257   5.822   0.543  0.9569  0.9276 -0.6949
 5692TIP3    H217083   3.149   5.928   0.536  0.4085  0.4198 -0.1177
 5693TIP3   OH217084   0.804   3.595   3.481 -0.5658  0.5954 -0.5974
 5693TIP3    H117085   0.751   3.527   3.523 -2.5359  2.9014  0.9957
 5693TIP3    H217086   0.878   3.608   3.540 -1.2784  1.1850  0.1918
 5694TIP3   OH217087   0.413   2.596   0.928  0.8996 -0.6480 -0.0356
 5694TIP3    H117088   0.460   2.625   0.850  0.9974  0.3795  0.3938
 5694TIP3    H217089   0.341   2.543   0.893  0.8615 -0.0910 -0.8400
 5695TIP3   OH217090   0.976   1.265   1.010  0.1772  0.1689 -0.2096
 5695TIP3    H117091   1.025   1.183   1.003  1.0475  0.5643  1.0133
 5695TIP3    H217092   0.978   1.301   0.921  1.5363 -0.1571 -0.3334
 5696TIP3   OH217093   6.260   2.765   0.953 -0.2325  0.2608  0.2765
 5696TIP3    H117094   6.196   2.805   0.894  0.4192  2.1419  0.7818
 5696TIP3    H217095   6.275   2.831   1.020  1.4951 -0.5462  0.7271
 5697TIP3   OH217096   2.425   5.065   1.242  0.1120  0.8063  0.0317
 5697TIP3    H117097   2.465   5.152   1.242 -0.5329  1.1090  0.0455
 5697TIP3    H217098   2.331   5.082   1.248 -0.0547  0.1254 -0.4989
 5698TIP3   OH217099   1.940   5.859   2.396 -0.4586 -0.1421  0.7023
 5698TIP3    H117100   1.934   5.860   2.300 -1.5589 -0.8488  0.7528
 5698TIP3    H217101   1.849   5.856   2.426 -0.1290 -2.5284  1.7050
 5699TIP3   OH217102   3.842   0.938   2.762  0.6060 -0.1033  0.4255
 5699TIP3    H117103   3.902   0.963   2.691 -0.1693  1.3538  0.2280
 5699TIP3    H217104   3.755   0.957   2.726  0.1069 -0.9034  1.1934
 5700TIP3   OH217105   5.330   3.700   3.860  0.2087 -0.1433  0.0225
 5700TIP3    H117106   5.331   3.757   3.937  0.4585 -2.0114  1.4471
 5700TIP3    H217107   5.237   3.680   3.846  0.1478  0.3231 -0.3113
 5701TIP3   OH217108   0.246   0.987   2.449 -0.3351  0.3225  0.4149
 5701TIP3    H117109   0.236   0.985   2.544  2.7791  1.6492  0.9167
 5701TIP3    H217110   0.226   0.898   2.421  0.1041 -0.5202  2.5516
 5702TIP3   OH217111   1.439   1.807   3.188  0.1361  0.8445 -0.2246
 5702TIP3    H117112   1.419   1.720   3.222  0.9946  0.6571 -0.1800
 5702TIP3    H217113   1.520   1.833   3.233  0.6031  1.1139 -1.1935
 5703TIP3   OH217114   2.049   5.658   4.571 -0.6458 -0.3864  0.1703
 5703TIP3    H117115   2.143   5.652   4.553 -0.7649 -1.7763 -0.1600
 5703TIP3    H217116   2.040   5.628   4.661 -0.6840  0.6942  0.5372
 5704TIP3   OH217117   2.557   0.654   0.808  0.2689 -0.0011 -0.2883
 5704TIP3    H117118   2.495   0.692   0.871 -0.3349  0.5200 -1.1611
 5704TIP3    H217119   2.615   0.600   0.861  0.1654  0.9090  0.7957
 5705TIP3   OH217120   0.165   5.095   1.272  0.7078  0.2682 -0.8847
 5705TIP3    H117121   0.121   5.173   1.238 -1.4758 -0.1938  0.6984
 5705TIP3    H217122   0.219   5.064   1.199  0.2621  2.2312 -2.1221
 5706TIP3   OH217123   5.820   4.034   1.674 -0.5213  0.5406 -0.2244
 5706TIP3    H117124   5.844   3.941   1.671 -1.4305  0.3042 -1.8133
 5706TIP3    H217125   5.900   4.080   1.697  0.1544 -0.5892 -0.2832
 5707TIP3   OH217126   1.876   1.982   3.892  0.2251  0.7321 -0.0336
 5707TIP3    H117127   1.800   1.972   3.834 -0.0913  0.6572  0.3851
 5707TIP3    H217128   1.904   1.893   3.912  0.1310  0.7486  0.1829
 5708TIP3   OH217129   2.930   1.634   0.047  0.1945  0.1761  0.2641
 5708TIP3    H117130   2.852   1.641  -0.008 -0.7812  0.6584  1.6534
 5708TIP3    H217131   2.899   1.593   0.128  1.1595  1.3386  1.2660
 5709TIP3   OH217132   2.138   2.496   2.134 -0.0649  0.5879  0.3044
 5709TIP3    H117133   2.224   2.538   2.122 -0.0952  0.4702 -0.3948
 5709TIP3    H217134   2.134   2.431   2.063 -0.7499  0.6303  0.3035
 5710TIP3   OH217135   5.800   5.773   1.780  0.7039 -0.1070 -0.1629
 5710TIP3    H117136   5.884   5.818   1.791  1.5857 -1.0663 -2.3711
 5710TIP3    H217137   5.747   5.834   1.728 -0.3559  0.8697  1.9530
 5711TIP3   OH217138   3.480   1.933   3.382 -0.0638  0.5001 -0.0417
 5711TIP3    H117139   3.464   2.021   3.347 -1.2141 -0.1461 -1.1959
 5711TIP3    H217140   3.470   1.943   3.477  0.7091  1.7871 -0.0706
 5712TIP3   OH217141   4.569   2.893   4.242 -0.4207 -0.1446  0.4210
 5712TIP3    H117142   4.609   2.902   4.155  0.1136 -0.7121  0.5966
 5712TIP3    H217143   4.492   2.839   4.227  0.2288 -1.1080  0.4380
 5713TIP3   OH217144   3.401   5.273   0.454  0.1346 -0.0067 -0.1386
 5713TIP3    H117145   3.374   5.363   0.435  0.3878  0.1994  0.4476
 5713TIP3    H217146   3.360   5.253   0.538 -0.7530 -0.8079 -0.7546
 5714TIP3   OH217147   5.358   0.465   4.808  0.0759  0.1202 -0.7505
 5714TIP3    H117148   5.345   0.409   4.884  1.7175 -0.1660 -0.6523
 5714TIP3    H217149   5.361   0.554   4.844  1.2290 -0.0403 -0.3959
 5715TIP3   OH217150   6.029   4.432   1.340  0.6531  0.0587  0.1174
 5715TIP3    H117151   6.093   4.449   1.409  0.8914  1.6981 -0.4574
 5715TIP3    H217152   6.017   4.337   1.341  1.3640 -0.0503  1.7566
 5716TIP3   OH217153   4.793   0.524   0.250 -0.0554  0.4432 -0.6798
 5716TIP3    H117154   4.725   0.459   0.234 -0.3721  0.6302 -0.1458
 5716TIP3    H217155   4.875   0.475   0.243 -0.1938  0.3762 -2.1037
 5717TIP3   OH217156   0.254   4.134   0.680  0.1078  0.0597 -0.6221
 5717TIP3    H117157   0.177   4.091   0.718  0.9448 -0.0599  1.0227
 5717TIP3    H217158   0.307   4.158   0.755  1.1023  1.2691 -1.6718
 5718TIP3   OH217159   4.913   1.248   4.810 -0.0485 -0.1238  0.3168
 5718TIP3    H117160   4.890   1.157   4.795  2.9151 -1.0934  0.9931
 5718TIP3    H217161   4.880   1.268   4.897 -0.7571 -0.5078  0.1452
 5719TIP3   OH217162   3.290   4.627   4.006 -0.1657 -0.0201 -0.2579
 5719TIP3    H117163   3.219   4.627   4.070 -1.7888 -0.4772 -1.9438
 5719TIP3    H217164   3.251   4.663   3.926  1.0791 -1.5602 -1.6594
 5720TIP3   OH217165   5.213   0.344   0.771  0.3740 -0.3189  0.4373
 5720TIP3    H117166   5.247   0.422   0.728 -1.5307  0.3889  0.1230
 5720TIP3    H217167   5.284   0.280   0.764  1.7623  1.1736  0.1853
 5721TIP3   OH217168   0.876   1.610   2.189  0.3961  0.0162 -0.5715
 5721TIP3    H117169   0.807   1.640   2.248  0.0948  0.9338 -1.3607
 5721TIP3    H217170   0.878   1.675   2.119  1.1376 -0.7302 -1.2763
 5722TIP3   OH217171   5.558   1.171   0.344 -0.2625 -0.2129  0.4428
 5722TIP3    H117172   5.638   1.122   0.322 -0.4614 -1.2364  1.8523
 5722TIP3    H217173   5.581   1.222   0.421 -0.9292 -0.4853  0.8393
 5723TIP3   OH217174   2.230   0.260   0.249 -0.0832 -0.3835 -0.1918
 5723TIP3    H117175   2.297   0.304   0.196  1.6171 -0.3829  1.8062
 5723TIP3    H217176   2.257   0.169   0.250 -0.6466 -0.5537 -0.0981
 5724TIP3   OH217177   5.263   3.720   4.993 -0.1163 -0.0407 -0.3433
 5724TIP3    H117178   5.305   3.637   5.015 -0.8397 -0.2776  0.2011
 5724TIP3    H217179   5.310   3.752   4.916  0.2058 -0.9303 -0.5235
 5725TIP3   OH217180   1.525   5.166   3.150 -0.7713  0.1550 -0.1207
 5725TIP3    H117181   1.565   5.251   3.170  0.1986  0.2262 -2.0824
 5725TIP3    H217182   1.470   5.183   3.074  2.2989 -1.5409 -2.9643
 5726TIP3   OH217183   1.779   0.278   4.992 -0.5057  0.2236 -0.2147
 5726TIP3    H117184   1.862   0.234   4.972 -1.3280 -1.5579  0.1022
 5726TIP3    H217185   1.714   0.208   4.991 -2.0946  1.6563 -0.8702
 5727TIP3   OH217186   5.805   0.331   4.355 -0.5019 -0.1238  0.6225
 5727TIP3    H117187   5.885   0.379   4.376  0.4598 -1.0116 -0.8616
 5727TIP3    H217188   5.778   0.365   4.269 -0.7945 -0.9939  0.3626
 5728TIP3   OH217189   0.534   5.233   1.776  0.3065 -0.3768 -0.6590
 5728TIP3    H117190   0.566   5.143   1.763 -0.5466 -0.4124 -2.9207
 5728TIP3    H217191   0.603   5.276   1.827 -0.1429 -2.8095  2.2960
 5729TIP3   OH217192   2.521   1.171   4.219 -0.2264  0.3254 -0.5052
 5729TIP3    H117193   2.501   1.136   4.305  3.5035  0.9462  0.7992
 5729TIP3    H217194   2.483   1.259   4.220 -0.4101  0.2465  0.4139
 5730TIP3   OH217195   0.005   4.321   3.220 -0.0137  0.5458  0.5638
 5730TIP3    H117196  -0.031   4.301   3.306 -1.4114  1.3329  0.1852
 5730TIP3    H217197   0.089   4.364   3.238 -0.7143  1.5237  1.5647
 5731TIP3   OH217198   2.446   3.045   4.310  0.1862  0.0686 -0.5381
 5731TIP3    H117199   2.416   2.977   4.370  0.2214 -0.7952 -1.4750
 5731TIP3    H217200   2.538   3.059   4.334 -0.3326  1.1923  0.9274
 5732TIP3   OH217201   5.870   0.085   4.424 -0.1939  0.6117  0.6803
 5732TIP3    H117202   5.806   0.040   4.368 -0.5353 -0.1889  1.6841
 5732TIP3    H217203   5.852   0.178   4.410 -0.6500  0.4186 -0.1023
 5733TIP3   OH217204   5.061   5.219   1.859  0.4561 -0.5164 -0.4320
 5733TIP3    H117205   5.091   5.309   1.846 -2.1718  0.3654 -1.0883
 5733TIP3    H217206   4.966   5.224   1.846  0.0919 -3.1951  0.6577
 5734TIP3   OH217207   4.242   2.126   1.199 -0.1212  0.5180 -0.3574
 5734TIP3    H117208   4.314   2.101   1.257 -1.4041 -2.0357  0.2471
 5734TIP3    H217209   4.203   2.203   1.241 -0.7238 -0.9683  1.9864
 5735TIP3   OH217210   2.347   0.549   0.666  0.0043  0.0727  0.2425
 5735TIP3    H117211   2.277   0.614   0.678  0.2199  0.4295 -0.3684
 5735TIP3    H217212   2.424   0.591   0.704  0.7897  1.3922 -2.5832
 5736TIP3   OH217213   0.142   3.183   3.238 -0.0705  0.2367  0.5163
 5736TIP3    H117214   0.072   3.119   3.250  1.7348 -1.5890  2.0773
 5736TIP3    H217215   0.141   3.235   3.318 -1.3920  2.1193 -0.6584
 5737TIP3   OH217216   0.838   5.568   2.552 -0.2672  0.0009 -0.0852
 5737TIP3    H117217   0.878   5.528   2.475 -0.8533 -0.0653 -0.3592
 5737TIP3    H217218   0.847   5.662   2.538 -1.3166  0.0197 -0.7577
 5738TIP3   OH217219   2.088   2.302   3.090 -0.1042 -0.0563 -0.3228
 5738TIP3    H117220   2.117   2.262   3.008 -3.4229 -0.0075 -1.6706
 5738TIP3    H217221   2.083   2.396   3.070  0.2072  0.1177  0.3674
 5739TIP3   OH217222   2.461   4.569   4.002  0.1097  0.7053 -0.6263
 5739TIP3    H117223   2.424   4.548   3.916  0.8424  1.0122 -1.0187
 5739TIP3    H217224   2.398   4.629   4.041 -0.4938  0.1503 -0.7236
 5740TIP3   OH217225   3.439   5.626   3.527  0.1843 -0.0001  0.1279
 5740TIP3    H117226   3.519   5.578   3.506 -1.1198 -2.3608  0.1236
 5740TIP3    H217227   3.465   5.718   3.530  2.0917 -0.2320 -3.8194
 5741TIP3   OH217228   2.780   5.958   0.566 -0.0477 -0.5012  0.0242
 5741TIP3    H117229   2.841   5.884   0.571 -2.5444 -2.7488 -0.7213
 5741TIP3    H217230   2.707   5.932   0.622 -0.4495  2.0737  0.8144
 5742TIP3   OH217231   0.878   2.078   0.285  0.1405 -0.2378 -0.1016
 5742TIP3    H117232   0.952   2.129   0.252  1.5616 -2.3108 -0.3524
 5742TIP3    H217233   0.837   2.134   0.351  1.8439  1.0476 -0.0748
 5743TIP3   OH217234   3.553   4.507   3.779  0.1976  0.2393  0.1595
 5743TIP3    H117235   3.592   4.422   3.760  2.2954  1.1565  0.1053
 5743TIP3    H217236   3.484   4.517   3.713  0.5458 -0.9927 -0.4224
 5744TIP3   OH217237   0.142   0.610   1.993 -0.5412  0.6839 -0.1021
 5744TIP3    H117238   0.071   0.664   2.028 -0.3537  0.4688  0.6158
 5744TIP3    H217239   0.105   0.521   1.990  0.8694 -0.2909  4.1155
 5745TIP3   OH217240   1.806   4.274   3.360 -0.3615  0.4551 -0.4246
 5745TIP3    H117241   1.859   4.214   3.306  0.8638  0.7388  0.4156
 5745TIP3    H217242   1.837   4.259   3.449 -4.0650 -1.8715  0.6977
 5746TIP3   OH217243   4.795   2.827   2.502 -0.5471  0.0800  0.0530
 5746TIP3    H117244   4.851   2.856   2.575 -0.2365  2.0325 -0.8901
 5746TIP3    H217245   4.707   2.829   2.539 -0.4980  1.9429  0.2057
 5747TIP3   OH217246   2.087   2.431   4.496 -0.7443  0.7842  0.4969
 5747TIP3    H117247   2.092   2.425   4.592  0.2420 -1.2709  0.3690
 5747TIP3    H217248   2.005   2.477   4.479 -2.2161 -1.0102  2.2934
 5748TIP3   OH217249   2.504   5.730   1.730 -0.4326 -0.9857  0.4931
 5748TIP3    H117250   2.551   5.772   1.659 -0.6404 -0.0472  0.8968
 5748TIP3    H217251   2.548   5.762   1.810 -3.0417  1.7038  1.0160
 5749TIP3   OH217252   4.360   5.351   1.614 -0.1146 -0.0200  0.3218
 5749TIP3    H117253   4.344   5.295   1.539 -1.4247 -0.6522  1.0500
 5749TIP3    H217254   4.335   5.298   1.690  2.0720  0.2376  1.3141
 5750TIP3   OH217255   5.078   0.056   0.786 -0.5394  0.3220  0.3729
 5750TIP3    H117256   5.040  -0.004   0.723 -1.0299  0.4169  0.5780
 5750TIP3    H217257   5.119   0.124   0.733  0.5139 -0.4809  0.1224
 5751TIP3   OH217258   3.870   1.964   3.999 -0.7718 -0.5797 -0.0113
 5751TIP3    H117259   3.845   2.056   3.986  0.1750 -0.1375  1.0654
 5751TIP3    H217260   3.961   1.969   4.031 -0.3289 -1.9533 -0.9708
 5752TIP3   OH217261   1.418   2.883   0.329  0.0600 -0.4443 -0.8727
 5752TIP3    H117262   1.345   2.937   0.361  1.1463  1.4800 -1.5052
 5752TIP3    H217263   1.421   2.809   0.390 -1.5210  0.1594  0.0052
 5753TIP3   OH217264   0.676   1.134   0.614  0.0417 -0.6678 -0.0889
 5753TIP3    H117265   0.659   1.114   0.522 -0.5433  0.3744 -0.2340
 5753TIP3    H217266   0.749   1.197   0.612  0.1978 -0.8386  0.1753
 5754TIP3   OH217267   3.450   5.294   3.479 -0.4213  0.3375 -0.2567
 5754TIP3    H117268   3.396   5.322   3.553 -1.9110 -0.6932 -0.9234
 5754TIP3    H217269   3.518   5.361   3.473  0.9773 -0.5365  3.2765
 5755TIP3   OH217270   3.909   4.907   2.666  0.1697  0.4213 -0.3146
 5755TIP3    H117271   3.971   4.834   2.665  0.0285  0.2971 -1.4139
 5755TIP3    H217272   3.826   4.868   2.695  0.2027  0.2297 -0.4712
 5756TIP3   OH217273   3.405   2.088   2.338  0.2406  0.2358 -0.1899
 5756TIP3    H117274   3.496   2.061   2.326 -0.0060 -1.3959  1.2335
 5756TIP3    H217275   3.383   2.060   2.427 -1.2905  1.7168 -0.0603
 5757TIP3   OH217276   0.925   5.749   0.560  0.1391 -0.5139 -0.0064
 5757TIP3    H117277   0.851   5.696   0.530  0.4685 -0.7403 -0.4426
 5757TIP3    H217278   1.002   5.698   0.534  0.4875  0.5792 -1.2288
 5758TIP3   OH217279   0.677   0.097   0.253 -0.2778  0.0196  0.1278
 5758TIP3    H117280   0.718   0.040   0.189  0.8060 -2.1105  2.5110
 5758TIP3    H217281   0.595   0.053   0.275 -1.3208  1.4615 -0.7477
 5759TIP3   OH217282   4.611   0.184   4.740 -0.0182  0.1741 -0.5916
 5759TIP3    H117283   4.692   0.223   4.709  0.4684  0.3271  0.7754
 5759TIP3    H217284   4.572   0.252   4.796 -0.0441 -0.6350  0.4011
 5760TIP3   OH217285   2.491   2.053   0.449 -0.3486  0.2098  0.1602
 5760TIP3    H117286   2.430   1.988   0.486 -1.3585  0.9728 -0.1241
 5760TIP3    H217287   2.456   2.071   0.362  2.5491 -2.3358 -1.7279
 5761TIP3   OH217288   4.454   2.871   0.944  0.0878  0.4869  0.3471
 5761TIP3    H117289   4.434   2.807   1.013 -0.0217  0.1328 -0.0119
 5761TIP3    H217290   4.423   2.954   0.980 -1.5413  0.0551  0.0454
 5762TIP3   OH217291   0.514   0.695   2.176 -0.0178 -0.0291  0.2894
 5762TIP3    H117292   0.506   0.703   2.271  0.6090 -0.1005  0.3527
 5762TIP3    H217293   0.564   0.615   2.163 -2.0625 -1.3111 -0.1782
 5763TIP3   OH217294   5.066   0.036   3.633 -0.2106  0.2279 -0.2974
 5763TIP3    H117295   5.160   0.024   3.615 -0.0595 -0.2917  0.7781
 5763TIP3    H217296   5.050  -0.016   3.711 -0.2169  4.2995  2.7777
 5764TIP3   OH217297   2.669   2.142   4.185 -0.4591 -0.5404 -0.7311
 5764TIP3    H117298   2.717   2.074   4.138  0.7894 -0.6680  0.6537
 5764TIP3    H217299   2.732   2.212   4.198 -1.2959  0.2464 -0.7940
 5765TIP3   OH217300   2.400   1.337   3.874 -0.0418 -0.0775  0.1032
 5765TIP3    H117301   2.384   1.407   3.938 -0.6242 -0.9225  0.8936
 5765TIP3    H217302   2.461   1.278   3.918  1.0747  0.3118 -0.8584
 5766TIP3   OH217303   0.535   2.872   0.420  0.8260  0.4304 -0.4294
 5766TIP3    H117304   0.612   2.844   0.471  0.5052 -0.4625 -0.4333
 5766TIP3    H217305   0.472   2.901   0.486  1.5915  2.3590 -0.4626
 5767TIP3   OH217306   5.051   0.363   4.093  0.2680 -0.4562 -0.0463
 5767TIP3    H117307   4.963   0.350   4.058 -0.2670  0.0847  1.0610
 5767TIP3    H217308   5.104   0.296   4.050 -1.0782 -2.0887  0.7536
 5768TIP3   OH217309   1.092   0.043   3.011 -0.2649  0.2726  0.0774
 5768TIP3    H117310   0.996   0.045   3.005 -0.2745 -0.1645  0.1042
 5768TIP3    H217311   1.115   0.131   3.043 -0.7010  0.1513  0.7485
 5769TIP3   OH217312   5.976   5.476   2.946  0.1063  0.1426  0.0550
 5769TIP3    H117313   6.018   5.511   3.025  0.5409  1.2313 -0.6392
 5769TIP3    H217314   6.049   5.448   2.891 -0.1723  0.0252 -0.2552
 5770TIP3   OH217315   5.255   3.668   4.389  0.1623 -0.6246 -0.4660
 5770TIP3    H117316   5.189   3.731   4.361 -0.4539 -0.3905  1.3784
 5770TIP3    H217317   5.209   3.585   4.392  0.3702 -0.7494 -0.6687
 5771TIP3   OH217318   4.543   0.038   2.839 -0.1654  0.5258 -0.5948
 5771TIP3    H117319   4.521  -0.043   2.884  1.3811  0.5220  0.2288
 5771TIP3    H217320   4.466   0.093   2.849 -0.2661  0.1073  1.1138
 5772TIP3   OH217321   0.216   5.605   1.337 -0.2317 -0.1952 -0.2181
 5772TIP3    H117322   0.276   5.531   1.347 -0.7785 -1.0794 -2.7617
 5772TIP3    H217323   0.271   5.682   1.354  0.9003 -1.0814  0.3045
 5773TIP3   OH217324   5.598   1.626   1.468  0.9470  0.2231  0.2467
 5773TIP3    H117325   5.518   1.611   1.518  1.8717  3.5185  3.1574
 5773TIP3    H217326   5.664   1.571   1.512  0.9267 -0.1088 -0.1326
 5774TIP3   OH217327   3.300   1.593   2.467 -0.5136 -0.0731  0.3295
 5774TIP3    H117328   3.221   1.579   2.415  0.6525 -0.8794 -1.3336
 5774TIP3    H217329   3.347   1.663   2.421  1.0452 -1.5181 -0.4436
 5775TIP3   OH217330   1.328   4.398   4.931 -0.3593 -0.3045  0.0174
 5775TIP3    H117331   1.280   4.333   4.983 -0.7285  1.0621  1.4485
 5775TIP3    H217332   1.362   4.460   4.995  0.4000  0.6623 -1.2738
 5776TIP3   OH217333   2.116   1.193   0.948  0.1015 -0.2158 -0.1305
 5776TIP3    H117334   2.162   1.168   1.028 -0.4160 -0.9440 -0.0520
 5776TIP3    H217335   2.185   1.222   0.889  0.5268 -0.0246  0.4487
 5777TIP3   OH217336   0.139   5.283   4.263  0.2001 -0.6308 -0.3252
 5777TIP3    H117337   0.124   5.197   4.223 -1.1521 -0.3007 -0.5972
 5777TIP3    H217338   0.191   5.331   4.199  1.2640 -1.3567 -0.0177
 5778TIP3   OH217339   4.365   2.255   1.679  0.3228  0.6073 -0.1602
 5778TIP3    H117340   4.326   2.323   1.624  0.1996  0.5341 -0.1653
 5778TIP3    H217341   4.379   2.298   1.763 -0.6891  0.3644  0.1425
 5779TIP3   OH217342   3.748   2.396   1.390  0.2481 -0.6554  0.3919
 5779TIP3    H117343   3.807   2.419   1.461  1.7012 -2.0139 -0.3285
 5779TIP3    H217344   3.777   2.451   1.316 -1.0240  0.4896  0.6993
 5780TIP3   OH217345   1.544   1.466   3.107 -0.0977  0.0900  1.1583
 5780TIP3    H117346   1.566   1.507   3.190  0.6067  1.0779  0.5111
 5780TIP3    H217347   1.593   1.516   3.042  0.2673 -1.3673  0.2565
 5781TIP3   OH217348   2.884   2.307   4.275  0.1460 -0.1540  0.2310
 5781TIP3    H117349   2.881   2.363   4.352  0.3744  0.0350  0.1059
 5781TIP3    H217350   2.970   2.265   4.278  0.2891  0.1058 -0.0912
 5782TIP3   OH217351   3.903   4.667   2.425  0.1103  0.5990 -0.2940
 5782TIP3    H117352   3.970   4.653   2.492 -0.0717  0.3907 -0.1535
 5782TIP3    H217353   3.829   4.613   2.453 -0.1472  0.8882 -0.4038
 5783TIP3   OH217354   2.481   5.446   2.837 -0.7315  0.6336  0.0939
 5783TIP3    H117355   2.387   5.455   2.823 -0.7578  1.7545  0.8272
 5783TIP3    H217356   2.519   5.454   2.749 -1.1841  2.6005  0.0254
 5784TIP3   OH217357   2.318   3.994   3.316  0.0517  0.1640  0.0079
 5784TIP3    H117358   2.249   3.985   3.381 -1.1748  1.5746 -1.0326
 5784TIP3    H217359   2.399   4.001   3.367 -0.3511 -2.6671  1.2203
 5785TIP3   OH217360   2.524   5.804   4.505 -0.6743  0.1963  0.3645
 5785TIP3    H117361   2.541   5.847   4.421 -2.1479 -1.3718 -0.8121
 5785TIP3    H217362   2.475   5.869   4.556 -0.6228  0.8313 -0.3833
 5786TIP3   OH217363   1.858   5.917   1.868  0.0513 -0.3711  0.2556
 5786TIP3    H117364   1.901   5.995   1.833 -1.7117  1.0927  1.1411
 5786TIP3    H217365   1.823   5.873   1.791  1.4826 -0.5858 -0.2992
 5787TIP3   OH217366   5.639   2.777   4.819  0.2064 -0.2436  0.5216
 5787TIP3    H117367   5.713   2.719   4.801  1.5518  1.6894 -0.5169
 5787TIP3    H217368   5.651   2.804   4.910  1.0777  0.4383  0.2139
 5788TIP3   OH217369   3.800   0.785   1.745 -0.3325  0.7040  0.4352
 5788TIP3    H117370   3.856   0.721   1.701  0.5721  0.6629  1.6004
 5788TIP3    H217371   3.826   0.780   1.837  0.1473  3.1019  0.4904
 5789TIP3   OH217372   1.509   4.573   0.481  0.1743  0.0141 -0.2259
 5789TIP3    H117373   1.501   4.528   0.565  0.8277 -1.4261 -0.8951
 5789TIP3    H217374   1.519   4.502   0.417  0.0562  1.0894 -1.4760
 5790TIP3   OH217375   5.387   2.024   4.512  0.4806  0.4602  0.0333
 5790TIP3    H117376   5.316   2.000   4.572  2.2556 -3.1371  0.9707
 5790TIP3    H217377   5.450   2.069   4.568  1.1727 -0.9736  0.4503
 5791TIP3   OH217378   0.023   3.613   3.503  0.3530  0.5757 -0.0720
 5791TIP3    H117379   0.093   3.673   3.479 -0.4301  1.1852 -0.8941
 5791TIP3    H217380  -0.057   3.655   3.470 -0.1714 -1.1107 -1.0532
 5792TIP3   OH217381   5.516   0.385   3.936 -0.2242  0.3906  0.6460
 5792TIP3    H117382   5.495   0.477   3.949  0.0591  0.7434 -1.1656
 5792TIP3    H217383   5.514   0.347   4.024  0.1815  2.2250  1.4915
 5793TIP3   OH217384   1.868   1.759   3.077 -0.1080  0.2196  0.3255
 5793TIP3    H117385   1.811   1.696   3.033 -2.0939  2.4320 -0.4896
 5793TIP3    H217386   1.920   1.798   3.006 -0.1848  0.7584  0.5657
 5794TIP3   OH217387   3.345   4.105   4.894  0.1275  0.3522  0.0681
 5794TIP3    H117388   3.332   4.177   4.832 -0.2915  0.0090 -0.2428
 5794TIP3    H217389   3.259   4.090   4.932  0.0590 -0.4598 -0.3881
 5795TIP3   OH217390   0.472   2.318   5.031 -0.0886  0.0283 -0.1694
 5795TIP3    H117391   0.483   2.225   5.011  0.2714 -0.0054  0.1770
 5795TIP3    H217392   0.452   2.319   5.125  2.0363  0.4287  0.3400
 5796TIP3   OH217393   6.297   5.150   4.827  0.5295  0.4407  0.0551
 5796TIP3    H117394   6.303   5.065   4.871  1.9649 -0.1488 -1.2027
 5796TIP3    H217395   6.253   5.207   4.891 -1.0916 -1.3892  0.6578
 5797TIP3   OH217396   2.950   3.871   1.800 -1.0126 -0.1726 -0.0257
 5797TIP3    H117397   2.933   3.954   1.844  2.5343  0.2784  0.7610
 5797TIP3    H217398   2.954   3.806   1.870 -0.9834 -0.5117 -0.3353
 5798TIP3   OH217399   5.666   3.206   4.910 -0.6844 -0.2329 -0.2077
 5798TIP3    H117400   5.616   3.250   4.841  0.6766  1.2464 -0.2965
 5798TIP3    H217401   5.696   3.124   4.870 -0.4704  0.3013 -1.1496
 5799TIP3   OH217402   0.859   5.021   2.708 -0.7224  0.2952 -0.3223
 5799TIP3    H117403   0.945   5.060   2.721 -0.9176  0.6244  0.0081
 5799TIP3    H217404   0.867   4.932   2.741 -0.9032  0.7709  1.0763
 5800TIP3   OH217405   5.886   5.052   4.808 -0.2643 -0.1596  0.0545
 5800TIP3    H117406   5.934   5.117   4.860  0.2317 -0.0576 -0.5182
 5800TIP3    H217407   5.881   4.976   4.865  1.4046 -0.4930 -0.1934
 5801TIP3   OH217408   4.330   0.477   4.711  0.1459 -0.3840 -0.2089
 5801TIP3    H117409   4.357   0.452   4.622 -0.8426 -3.9555  0.3123
 5801TIP3    H217410   4.242   0.513   4.700  0.8973  1.3857 -0.8272
 5802TIP3   OH217411   5.751   1.449   2.345 -0.3243  0.3876  0.1174
 5802TIP3    H117412   5.761   1.363   2.304  0.4312  0.1469  0.7834
 5802TIP3    H217413   5.841   1.480   2.357 -0.6029  1.4306 -0.4459
 5803TIP3   OH217414   4.501   3.513   4.736 -0.0966 -0.1046 -0.3470
 5803TIP3    H117415   4.411   3.536   4.713 -1.0338 -1.4228  1.7132
 5803TIP3    H217416   4.524   3.442   4.675 -0.7965 -0.3921 -0.2863
 5804TIP3   OH217417   0.258   5.392   2.304 -0.2292  0.3266  0.0723
 5804TIP3    H117418   0.259   5.296   2.308  1.2409  0.3157  0.1595
 5804TIP3    H217419   0.336   5.418   2.353  0.5409  1.4855 -1.6640
 5805TIP3   OH217420   1.784   4.833   1.424 -0.2306  0.9072  0.2050
 5805TIP3    H117421   1.872   4.872   1.429  0.4274 -0.6460  3.2309
 5805TIP3    H217422   1.724   4.908   1.432  0.7426  1.9487 -1.5184
 5806TIP3   OH217423   3.902   5.383   4.262 -0.4498 -0.0005  0.2293
 5806TIP3    H117424   3.917   5.291   4.282  0.2818 -0.1070 -0.7455
 5806TIP3    H217425   3.963   5.430   4.319  0.2552 -0.2040 -0.3437
 5807TIP3   OH217426   2.507   5.274   4.966  0.0921  0.2081 -0.3500
 5807TIP3    H117427   2.563   5.348   4.988 -0.3098  0.4071  0.0230
 5807TIP3    H217428   2.536   5.245   4.880  1.9366 -0.7889  0.5500
 5808TIP3   OH217429   0.529   1.433   2.821  0.0635 -0.7655  0.3856
 5808TIP3    H117430   0.494   1.366   2.879 -1.5435 -0.9203 -0.7022
 5808TIP3    H217431   0.528   1.513   2.873  1.1595 -1.3806  1.4045
 5809TIP3   OH217432   1.314   0.029   3.298 -0.7763 -0.0958 -0.5267
 5809TIP3    H117433   1.379   0.030   3.227  0.3136  0.6145  0.4416
 5809TIP3    H217434   1.326   0.112   3.343  0.1560 -1.4295  1.8651
 5810TIP3   OH217435   0.759   1.757   1.983 -0.0743  0.5274  0.1439
 5810TIP3    H117436   0.816   1.809   1.927 -0.9415  1.1611 -0.1777
 5810TIP3    H217437   0.671   1.778   1.953 -0.4430 -2.1396 -0.8799
 5811TIP3   OH217438   1.802   5.483   3.709  0.0018 -0.0348 -0.7997
 5811TIP3    H117439   1.794   5.574   3.737  0.0561 -0.3009  0.1094
 5811TIP3    H217440   1.891   5.476   3.675 -0.1088  0.3316 -1.1710
 5812TIP3   OH217441   0.817   5.714   4.853  0.0011 -0.2313 -0.5609
 5812TIP3    H117442   0.808   5.671   4.938  0.9931  0.7563  0.0720
 5812TIP3    H217443   0.852   5.801   4.874  1.3845 -0.3850 -2.0482
 5813TIP3   OH217444   3.306   1.873   0.373 -0.4178  0.0745 -0.3620
 5813TIP3    H117445   3.263   1.957   0.353 -0.8718 -0.4111 -1.4974
 5813TIP3    H217446   3.282   1.816   0.300  0.2804 -0.9090  0.1603
 5814TIP3   OH217447   2.889   4.078   5.062  0.5789 -0.1780 -0.0255
 5814TIP3    H117448   2.885   4.110   4.972  0.2998  1.3713  0.4939
 5814TIP3    H217449   2.801   4.045   5.080  0.7945 -1.0390 -0.4869
 5815TIP3   OH217450   5.162   2.436   0.593  0.2594 -0.2235  0.0429
 5815TIP3    H117451   5.099   2.368   0.572 -0.3320  0.0278  0.9509
 5815TIP3    H217452   5.164   2.438   0.689  0.2314  1.0483  0.0328
 5816TIP3   OH217453   5.090   1.729   3.158  0.6937 -0.6313  0.2673
 5816TIP3    H117454   5.117   1.685   3.077 -1.8859 -0.6266 -0.6879
 5816TIP3    H217455   5.008   1.774   3.135 -0.1015 -0.5883  2.8512
 5817TIP3   OH217456   1.706   4.666   4.977  0.4946 -0.0509 -0.0710
 5817TIP3    H117457   1.739   4.742   4.929 -0.7305 -0.5703 -1.8749
 5817TIP3    H217458   1.675   4.702   5.061  2.4897  0.9371  0.2941
 5818TIP3   OH217459   1.067   5.529   0.863  0.6312  0.1376  0.1426
 5818TIP3    H117460   1.043   5.444   0.827  1.3762  0.1861 -0.4927
 5818TIP3    H217461   1.159   5.540   0.840  0.7510  0.7864  0.8703
 5819TIP3   OH217462   0.922   5.266   0.928  0.6964  0.1718 -0.4334
 5819TIP3    H117463   0.827   5.276   0.926  0.1774 -2.8870  1.4923
 5819TIP3    H217464   0.946   5.281   1.019  2.0286  0.5760 -0.8246
 5820TIP3   OH217465   5.399   1.483   3.834 -0.4387 -0.3026  0.4257
 5820TIP3    H117466   5.412   1.528   3.750 -1.3299 -0.8982 -0.0530
 5820TIP3    H217467   5.365   1.550   3.892 -0.9637 -0.1538 -0.0441
 5821TIP3   OH217468   0.090   2.780   2.781 -0.1785 -0.0785 -0.2206
 5821TIP3    H117469   0.139   2.721   2.724  0.4556 -0.4186  0.6706
 5821TIP3    H217470   0.069   2.728   2.858 -0.2523  0.6423  0.2553
 5822TIP3   OH217471   4.035   5.390   1.628  0.5700 -0.5902 -0.7038
 5822TIP3    H117472   4.032   5.295   1.612  1.5940 -0.9088  0.8311
 5822TIP3    H217473   4.128   5.410   1.636  0.3707  0.5866 -1.1030
 5823TIP3   OH217474   1.844   5.814   5.029  0.0120  0.2194 -0.3373
 5823TIP3    H117475   1.883   5.746   5.084 -1.0298  0.8044  1.2178
 5823TIP3    H217476   1.905   5.887   5.034 -0.3116  0.4463  0.4941
 5824TIP3   OH217477   3.240   1.238   1.452 -0.4100 -0.2293 -0.1479
 5824TIP3    H117478   3.232   1.295   1.528 -1.1686  1.4965 -1.4780
 5824TIP3    H217479   3.316   1.271   1.404 -0.6089 -0.6001 -0.7338
 5825TIP3   OH217480   4.934   2.266   0.573  0.5435 -0.6808  0.6768
 5825TIP3    H117481   4.920   2.178   0.608 -0.5139 -1.0788 -0.6779
 5825TIP3    H217482   4.949   2.253   0.479 -0.1820  0.6202  0.3544
 5826TIP3   OH217483   1.836   0.273   0.360 -0.7224  0.3752  0.3117
 5826TIP3    H117484   1.873   0.251   0.275 -0.6821 -0.5997  0.5766
 5826TIP3    H217485   1.893   0.341   0.395  0.3804 -0.5775  0.3922
 5827TIP3   OH217486   0.925   3.428   3.211 -0.0524  0.2770 -0.1962
 5827TIP3    H117487   0.857   3.489   3.240  1.3572  2.0301 -0.4603
 5827TIP3    H217488   1.002   3.452   3.262  0.6436 -1.0596 -0.5812
 5828TIP3   OH217489   0.343   3.217   4.668  0.2944  0.3740 -0.4066
 5828TIP3    H117490   0.337   3.276   4.744 -0.8584  0.9509 -0.9154
 5828TIP3    H217491   0.404   3.260   4.608  0.0905  0.6353 -0.4252
 5829TIP3   OH217492   2.301   2.673   3.526  0.4509 -0.0019 -0.4110
 5829TIP3    H117493   2.322   2.614   3.599  1.7315  2.7614  1.6187
 5829TIP3    H217494   2.310   2.761   3.563 -2.0592  1.5508 -3.0724
 5830TIP3   OH217495   3.738   1.727   2.336  0.9465  0.3667 -0.0178
 5830TIP3    H117496   3.776   1.654   2.286  1.8758  0.5499  0.4018
 5830TIP3    H217497   3.721   1.690   2.422 -0.5830  0.0737 -0.4157
 5831TIP3   OH217498   0.307   1.463   4.731 -0.0366 -0.0230  0.1118
 5831TIP3    H117499   0.380   1.523   4.715  0.5015 -0.5876  0.4361
 5831TIP3    H217500   0.293   1.466   4.825  0.1121 -0.5534  0.1492
 5832TIP3   OH217501   1.727   5.153   2.939  0.0015 -0.0882 -0.0244
 5832TIP3    H117502   1.793   5.097   2.899  0.6928  1.3192 -0.9060
 5832TIP3    H217503   1.675   5.185   2.865 -0.7309  0.0216  0.5235
 5833TIP3   OH217504   2.005   5.547   3.009  0.1764 -0.3905  0.4333
 5833TIP3    H117505   1.974   5.469   3.055  2.1797 -1.9154 -0.6478
 5833TIP3    H217506   1.952   5.550   2.929 -0.6407  0.0082  0.9776
 5834TIP3   OH217507   6.037   4.230   0.916 -0.1775 -0.3638  0.4026
 5834TIP3    H117508   5.979   4.219   0.991 -0.0173 -2.6914  0.2666
 5834TIP3    H217509   5.991   4.290   0.858 -2.5443 -2.1740  0.2694
 5835TIP3   OH217510   6.074   5.485   1.807 -0.0832 -0.2882 -0.8219
 5835TIP3    H117511   6.000   5.487   1.869 -1.0565  1.3973 -1.9334
 5835TIP3    H217512   6.147   5.521   1.857 -1.0183  1.6847 -0.7463
 5836TIP3   OH217513   1.765   0.985   4.712 -0.3038  0.4569 -0.4051
 5836TIP3    H117514   1.828   0.976   4.783 -1.4603 -0.2778  0.5523
 5836TIP3    H217515   1.765   0.900   4.668 -1.4287  0.0654  0.3090
 5837TIP3   OH217516   4.257   3.349   0.474  0.4682 -0.4487 -0.2131
 5837TIP3    H117517   4.229   3.426   0.424 -0.4523 -1.6008 -1.5649
 5837TIP3    H217518   4.188   3.336   0.539  1.3799  0.7127  1.0446
 5838TIP3   OH217519   0.291   4.778   0.809 -0.1501 -0.0300  1.4843
 5838TIP3    H117520   0.245   4.709   0.761 -0.2586  1.4194 -0.6705
 5838TIP3    H217521   0.223   4.840   0.834  0.3356  1.2167 -0.1137
 5839TIP3   OH217522   3.701   5.922   2.201 -0.0448 -0.2261 -0.8231
 5839TIP3    H117523   3.706   5.953   2.291 -2.3470  0.9900 -1.0650
 5839TIP3    H217524   3.723   5.998   2.147  0.9049 -0.8332 -1.3277
 5840TIP3   OH217525   4.952   3.212   0.857  0.0083 -0.1887  0.2252
 5840TIP3    H117526   4.910   3.126   0.858 -0.2889 -0.1257 -1.8245
 5840TIP3    H217527   5.040   3.195   0.823  0.4342  0.1469  1.1401
 5841TIP3   OH217528   1.350   4.877   0.057  0.5164  0.1845 -0.5036
 5841TIP3    H117529   1.396   4.835  -0.015  0.8275 -0.7319  0.2092
 5841TIP3    H217530   1.357   4.815   0.130  0.3550  1.1606  0.3674
 5842TIP3   OH217531   3.596   5.722   0.645  0.0338 -0.0513 -0.4357
 5842TIP3    H117532   3.592   5.751   0.736  0.6331 -0.0047 -0.4214
 5842TIP3    H217533   3.623   5.631   0.650 -0.3601 -0.1779 -0.5529
 5843TIP3   OH217534   4.539   0.674   5.116  0.1279 -0.3174  0.0177
 5843TIP3    H117535   4.580   0.758   5.135  1.6163 -0.1950 -3.1146
 5843TIP3    H217536   4.577   0.614   5.180  1.4284  0.7886  0.3402
 5844TIP3   OH217537   6.134   2.717   0.218  0.1872 -0.2515 -0.1010
 5844TIP3    H117538   6.053   2.667   0.214  1.0891 -1.7530 -0.5957
 5844TIP3    H217539   6.106   2.809   0.219 -1.5753 -0.7176  2.1161
 5845TIP3   OH217540   4.666   4.817   2.931  0.0529  0.3117  0.2325
 5845TIP3    H117541   4.634   4.736   2.971  0.3780  1.2133  2.4642
 5845TIP3    H217542   4.619   4.886   2.977  0.3893  1.4406 -1.0595
 5846TIP3   OH217543   5.109   1.474   1.307  0.5519  0.2150 -0.1478
 5846TIP3    H117544   5.193   1.454   1.265 -0.1426 -0.9004 -1.0925
 5846TIP3    H217545   5.099   1.406   1.373  0.8975  1.0183  0.7460
 5847TIP3   OH217546   0.544   0.642   1.724  0.4840 -0.4621 -0.0396
 5847TIP3    H117547   0.498   0.664   1.805  0.2052  0.6746 -0.4889
 5847TIP3    H217548   0.635   0.628   1.751  0.4856  0.3552  0.4131
 5848TIP3   OH217549   5.054   4.008   0.275  0.1105 -0.6615 -0.0481
 5848TIP3    H117550   5.111   3.947   0.323 -0.8658 -1.5859 -0.0172
 5848TIP3    H217551   5.040   3.966   0.190 -1.3259 -0.9936  0.3084
 5849TIP3   OH217552   5.771   1.040   4.092  0.6935 -0.1935 -0.2217
 5849TIP3    H117553   5.711   1.055   4.165 -1.1240 -0.1728 -1.6342
 5849TIP3    H217554   5.805   0.952   4.107  1.1881  0.2072  1.1747
 5850TIP3   OH217555   0.304   0.759   0.263 -0.2710  0.2039  0.2552
 5850TIP3    H117556   0.295   0.818   0.188 -0.9506  0.4166  0.4897
 5850TIP3    H217557   0.230   0.699   0.255 -1.6159  1.5170  1.8549
 5851TIP3   OH217558   5.405   2.540   0.965  0.1012 -0.3054 -0.0388
 5851TIP3    H117559   5.337   2.554   1.031  0.0061  1.4948 -0.4576
 5851TIP3    H217560   5.476   2.498   1.013 -0.6327 -0.6106  0.8125
 5852TIP3   OH217561   5.401   5.739   1.622  0.1434  0.3668 -0.1026
 5852TIP3    H117562   5.392   5.790   1.703  0.8844  0.3900 -0.0292
 5852TIP3    H217563   5.452   5.796   1.563 -0.4686  0.3881 -0.6218
 5853TIP3   OH217564   1.278   5.128   4.912 -0.5091 -0.5877  0.0546
 5853TIP3    H117565   1.349   5.070   4.941 -1.0547 -0.0386  2.7176
 5853TIP3    H217566   1.322   5.197   4.864  1.0423  0.4701  2.7629
 5854TIP3   OH217567   4.693   4.652   1.356  0.0505  0.6431  0.6756
 5854TIP3    H117568   4.738   4.736   1.364 -1.1887  1.4976 -0.7905
 5854TIP3    H217569   4.706   4.627   1.264 -1.5404  0.4024  0.4879
 5855TIP3   OH217570   0.926   3.172   2.362  0.4381  0.2412 -0.5534
 5855TIP3    H117571   0.982   3.099   2.336  0.0238  0.1884 -1.3441
 5855TIP3    H217572   0.883   3.199   2.280 -2.3634 -1.1110  0.3384
 5856TIP3   OH217573   4.790   3.468   2.922  0.0324  0.0764  0.3727
 5856TIP3    H117574   4.860   3.422   2.968  0.5582  0.4301 -0.0575
 5856TIP3    H217575   4.799   3.442   2.831  0.8623  1.6414 -0.0227
 5857TIP3   OH217576   0.583   2.494   1.564  0.3705 -0.0899 -0.1556
 5857TIP3    H117577   0.489   2.481   1.574  0.7780 -2.3868  1.4849
 5857TIP3    H217578   0.615   2.512   1.652  1.2590  2.9638 -0.9816
 5858TIP3   OH217579   4.034   1.414   5.100  0.4471  0.1340 -0.1759
 5858TIP3    H117580   3.968   1.345   5.114  0.0239  0.4800 -0.4569
 5858TIP3    H217581   4.117   1.373   5.126  0.2559 -0.6115 -0.7011
 5859TIP3   OH217582   2.009   2.343   1.375 -0.2317 -0.3300  0.1491
 5859TIP3    H117583   2.049   2.281   1.435 -1.5158 -0.7273  0.6127
 5859TIP3    H217584   1.929   2.300   1.345 -0.3747  0.4823 -0.6862
 5860TIP3   OH217585   0.491   3.356   4.240 -0.6344 -0.1201 -0.6539
 5860TIP3    H117586   0.546   3.422   4.284 -2.0730 -0.1898  1.4360
 5860TIP3    H217587   0.538   3.334   4.160  1.8562  0.5382  0.5427
 5861TIP3   OH217588   6.140   2.344   1.790 -0.1241 -0.2558 -0.0768
 5861TIP3    H117589   6.076   2.364   1.858  0.4703  1.0445  0.1426
 5861TIP3    H217590   6.149   2.249   1.792 -2.9096 -0.6062 -0.9609
 5862TIP3   OH217591   0.940   0.759   0.927  0.1909  1.0668 -0.1462
 5862TIP3    H117592   0.909   0.759   1.017  0.2774  1.9239 -0.1117
 5862TIP3    H217593   0.966   0.850   0.910  0.2746  0.8935 -0.9958
 5863TIP3   OH217594   1.879   0.288   4.430  0.1899  0.7320  0.1185
 5863TIP3    H117595   1.815   0.236   4.383  1.1888  1.4493 -2.1989
 5863TIP3    H217596   1.892   0.242   4.513 -2.0173 -0.3371 -0.0702
 5864TIP3   OH217597   5.109   3.269   4.664  0.1959  0.2737  0.1423
 5864TIP3    H117598   5.146   3.188   4.699  0.3100  1.1268  2.1865
 5864TIP3    H217599   5.173   3.336   4.688  0.4693  0.9264 -2.1498
 5865TIP3   OH217600   4.446   5.250   2.263  0.0463 -0.2937  0.1708
 5865TIP3    H117601   4.464   5.318   2.328 -0.6777 -1.6237  1.8649
 5865TIP3    H217602   4.355   5.264   2.237  0.3409  0.2485 -0.5913
 5866TIP3   OH217603   5.342   3.805   2.544 -0.2521 -0.2278  0.2781
 5866TIP3    H117604   5.311   3.870   2.608  1.2601  0.5427  0.2924
 5866TIP3    H217605   5.334   3.850   2.460  0.5250 -0.1139  0.2577
 5867TIP3   OH217606   5.759   2.527   1.276  0.8373 -0.3832 -0.2813
 5867TIP3    H117607   5.852   2.548   1.287  0.4977  1.5816 -0.7992
 5867TIP3    H217608   5.713   2.606   1.304 -0.7261 -1.4801  0.4017
 5868TIP3   OH217609   2.942   3.424   3.013  0.9338  0.1633  0.2180
 5868TIP3    H117610   2.913   3.371   2.938  0.4723 -0.7278  0.9984
 5868TIP3    H217611   3.036   3.436   2.999  0.8204  0.1436 -0.5862
 5869TIP3   OH217612   2.383   2.365   2.999 -0.0651  0.2765  0.2092
 5869TIP3    H117613   2.341   2.384   2.915  0.1300  1.4229  0.3481
 5869TIP3    H217614   2.363   2.273   3.016 -2.4094  0.7365  0.2321
 5870TIP3   OH217615   4.959   1.202   1.054  0.3352  0.3369  0.0300
 5870TIP3    H117616   5.041   1.165   1.022 -1.0404 -1.3471 -1.7045
 5870TIP3    H217617   4.928   1.258   0.982 -0.4882  0.2420  0.3036
 5871TIP3   OH217618   2.285   0.553   2.375  0.0861  0.1863  0.3441
 5871TIP3    H117619   2.350   0.483   2.367  0.1082 -0.0933  2.2990
 5871TIP3    H217620   2.212   0.512   2.421  0.1327  1.4368  1.5862
 5872TIP3   OH217621   5.603   5.070   1.715 -0.0929 -0.0782 -0.0766
 5872TIP3    H117622   5.626   4.979   1.735 -0.7618 -0.5679 -1.4543
 5872TIP3    H217623   5.645   5.087   1.631 -2.1684 -0.0226 -1.1662
 5873TIP3   OH217624   3.775   3.563   0.916  0.0286  0.1541 -0.1397
 5873TIP3    H117625   3.770   3.655   0.891 -0.6192  0.0444 -0.4122
 5873TIP3    H217626   3.831   3.563   0.994 -1.8757  1.0894  1.3214
 5874TIP3   OH217627   1.973   3.605   4.773 -0.4938 -0.1153 -0.1352
 5874TIP3    H117628   1.988   3.612   4.678  2.5215  1.1788  0.3271
 5874TIP3    H217629   1.985   3.511   4.791  0.0693 -0.1978 -0.8716
 5875TIP3   OH217630   2.847   4.322   2.993  0.1793  0.1855 -0.2236
 5875TIP3    H117631   2.857   4.228   3.008 -1.7581 -0.2129 -1.0509
 5875TIP3    H217632   2.826   4.358   3.079 -1.2561 -0.5216 -0.2449
 5876TIP3   OH217633   3.411   4.783   2.764 -0.1648  0.4428  0.0920
 5876TIP3    H117634   3.405   4.812   2.856 -3.9937  0.4838 -0.0260
 5876TIP3    H217635   3.395   4.689   2.767 -1.8533  0.6884 -0.6236
 5877TIP3   OH217636   4.474   2.262   4.108 -0.4563  0.4310  0.8294
 5877TIP3    H117637   4.488   2.291   4.018  0.6524 -1.9433  0.1494
 5877TIP3    H217638   4.471   2.167   4.102  1.1284  0.1214  3.4864
 5878TIP3   OH217639   5.307   2.293   2.210 -0.1432 -0.0152 -0.6002
 5878TIP3    H117640   5.325   2.322   2.120 -1.9880  0.8135 -0.7632
 5878TIP3    H217641   5.236   2.351   2.239 -1.5132 -2.0754  0.3797
 5879TIP3   OH217642   5.761   0.532   4.620 -0.2708  0.0277 -0.4438
 5879TIP3    H117643   5.840   0.490   4.654 -1.8998 -1.6141  1.5733
 5879TIP3    H217644   5.734   0.478   4.547  1.0967  1.3368 -2.0001
 5880TIP3   OH217645   4.112   1.542   0.897 -0.5643  0.1643  0.1688
 5880TIP3    H117646   4.161   1.475   0.945  2.3953 -0.2823 -3.1313
 5880TIP3    H217647   4.058   1.492   0.835  0.7026  0.7342 -1.4441
 5881TIP3   OH217648   2.070   5.669   3.376 -0.1148 -0.1732 -0.3182
 5881TIP3    H117649   1.975   5.666   3.374 -0.1519  0.7345 -0.2633
 5881TIP3    H217650   2.094   5.740   3.315  0.4718  0.2626  0.3966
 5882TIP3   OH217651   1.196   5.321   4.361 -0.2695 -0.4012 -0.6059
 5882TIP3    H117652   1.229   5.409   4.376  0.8885 -0.9767  0.3201
 5882TIP3    H217653   1.270   5.263   4.378 -0.5857 -1.5071 -2.5780
 5883TIP3   OH217654   5.078   5.514   1.785 -0.6671  0.1742 -0.2936
 5883TIP3    H117655   4.992   5.496   1.822  0.2908  0.2267  2.1363
 5883TIP3    H217656   5.078   5.608   1.769 -0.5480  0.4685  1.2595
 5884TIP3   OH217657   5.146   2.303   4.341  0.8937 -0.1418  0.7726
 5884TIP3    H117658   5.074   2.365   4.352  0.5379 -0.1884 -0.9355
 5884TIP3    H217659   5.156   2.262   4.427 -0.4437  0.5830  1.3040
 5885TIP3   OH217660   0.269   1.785   4.600 -0.4868 -0.0820 -0.1978
 5885TIP3    H117661   0.316   1.849   4.546  0.1419 -1.6702 -1.6534
 5885TIP3    H217662   0.336   1.720   4.622 -1.2635 -0.6130  0.6220
 5886TIP3   OH217663   1.012   1.878   4.098  0.6369  0.5600 -0.0650
 5886TIP3    H117664   0.943   1.928   4.057  0.2732 -0.7516 -1.1261
 5886TIP3    H217665   1.092   1.905   4.053  0.2485 -0.8306 -1.6995
 5887TIP3   OH217666   2.145   0.966   1.291  0.0594  0.2569  0.3045
 5887TIP3    H117667   2.204   0.903   1.331 -1.4162  0.0649  2.3177
 5887TIP3    H217668   2.071   0.914   1.259  0.4642  0.5999 -1.3066
 5888TIP3   OH217669   6.254   3.592   5.130  0.4036  0.2755  0.9764
 5888TIP3    H117670   6.180   3.572   5.073 -1.4969 -0.6356  3.5431
 5888TIP3    H217671   6.275   3.684   5.112 -0.2222  0.0625 -0.9956
 5889TIP3   OH217672   1.056   2.130   4.743 -0.6009 -0.1400  0.0147
 5889TIP3    H117673   0.981   2.164   4.791  0.5760  2.5634  0.0952
 5889TIP3    H217674   1.133   2.162   4.791  0.5974  0.2884 -2.0319
 5890TIP3   OH217675   0.734   5.896   4.319  0.0846  0.2169 -0.0891
 5890TIP3    H117676   0.722   5.845   4.399  1.1527  0.0660 -0.0206
 5890TIP3    H217677   0.772   5.979   4.349 -1.6698  1.1157 -0.1895
 5891TIP3   OH217678   3.336   4.717   4.644  0.5212 -0.2268  0.2773
 5891TIP3    H117679   3.265   4.716   4.708  0.2631  1.0010  0.0360
 5891TIP3    H217680   3.372   4.805   4.650  0.7083 -0.1976 -1.0233
 5892TIP3   OH217681   0.063   4.825   2.362 -0.2786  0.1632 -0.3508
 5892TIP3    H117682   0.041   4.895   2.300 -1.2317 -0.4480 -0.7264
 5892TIP3    H217683  -0.022   4.791   2.391  0.1438 -1.7081 -1.1885
 5893TIP3   OH217684   0.202   3.724   0.657 -0.4254 -0.3009  0.0073
 5893TIP3    H117685   0.248   3.782   0.597 -0.9897 -1.6136 -1.7725
 5893TIP3    H217686   0.131   3.777   0.692  0.7782  0.9212  0.6875
 5894TIP3   OH217687   1.463   0.323   0.997  0.4532  0.0245 -1.2895
 5894TIP3    H117688   1.427   0.394   0.944  0.5957  1.0488 -0.0616
 5894TIP3    H217689   1.389   0.268   1.018  0.4776 -0.7064 -2.9771
 5895TIP3   OH217690   5.461   1.334   4.859  0.1866  0.0851 -0.2796
 5895TIP3    H117691   5.372   1.328   4.822 -0.8479 -2.8859  2.2865
 5895TIP3    H217692   5.472   1.426   4.878 -1.6549  0.8013 -2.1943
 5896TIP3   OH217693   3.797   4.008   3.895 -0.1327 -0.3026 -0.2731
 5896TIP3    H117694   3.872   3.967   3.850  0.0470  0.3323 -0.5616
 5896TIP3    H217695   3.830   4.093   3.922 -0.7855  0.0149 -0.4782
 5897TIP3   OH217696   4.082   0.746   0.201 -0.5987 -0.5995  0.1895
 5897TIP3    H117697   4.082   0.676   0.136 -2.4747 -0.3007 -0.1706
 5897TIP3    H217698   4.000   0.736   0.248 -0.5322  0.8521  0.6773
 5898TIP3   OH217699   2.275   2.950   4.120 -0.4237  0.2087 -0.0430
 5898TIP3    H117700   2.347   2.981   4.176  0.8221  0.2003 -1.5585
 5898TIP3    H217701   2.216   2.904   4.180 -0.2005  1.9205  1.5764
 5899TIP3   OH217702   2.095   0.401   1.101 -0.3214  0.2750  0.3618
 5899TIP3    H117703   2.043   0.343   1.157  0.3391 -0.6894 -0.0050
 5899TIP3    H217704   2.184   0.393   1.135 -0.0286  0.1884 -0.4120
 5900TIP3   OH217705   0.126   0.424   0.928  0.4500 -0.3260  0.2435
 5900TIP3    H117706   0.050   0.482   0.937 -0.2403 -0.6371 -2.6418
 5900TIP3    H217707   0.193   0.479   0.887  1.0594 -0.6665  0.7558
 5901TIP3   OH217708   3.618   4.828   3.462 -0.4570  0.1551  0.2731
 5901TIP3    H117709   3.580   4.891   3.523 -1.5631 -0.6569  0.4606
 5901TIP3    H217710   3.645   4.880   3.386 -1.6535  0.8080  0.2765
 5902TIP3   OH217711   1.158   1.666   4.616  0.3048 -0.3823 -0.2969
 5902TIP3    H117712   1.193   1.743   4.660  1.1806 -0.1861 -1.3132
 5902TIP3    H217713   1.154   1.690   4.524 -1.6523 -0.7351 -0.3591
 5903TIP3   OH217714   2.711   0.846   4.179 -0.4171  0.2622  0.2874
 5903TIP3    H117715   2.717   0.751   4.169 -2.1324  0.0601  0.8952
 5903TIP3    H217716   2.629   0.870   4.137 -1.5065  1.0409  2.6942
 5904TIP3   OH217717   5.355   1.240   3.602 -0.1702  0.0097  0.1054
 5904TIP3    H117718   5.339   1.332   3.620  1.4097  0.1081  1.2661
 5904TIP3    H217719   5.296   1.194   3.662  1.3107  0.3369  1.9300
 5905TIP3   OH217720   5.483   5.654   0.170  0.0481  0.7050 -0.1607
 5905TIP3    H117721   5.570   5.640   0.207 -0.5612 -0.2348  0.9883
 5905TIP3    H217722   5.469   5.748   0.175  0.6513  0.7683  0.4859
 5906TIP3   OH217723   2.906   0.449   2.882 -0.0825 -0.3745  0.1258
 5906TIP3    H117724   2.914   0.500   2.963  1.6892 -0.7609  0.2509
 5906TIP3    H217725   2.878   0.513   2.816 -1.3929 -0.0262  0.9842
 5907TIP3   OH217726   3.003   5.575   5.122  0.0017  0.0446  0.4568
 5907TIP3    H117727   3.054   5.516   5.066 -2.9681  0.5712 -3.2510
 5907TIP3    H217728   2.933   5.520   5.157 -0.3516  0.4869  0.4576
 5908TIP3   OH217729   1.719   1.994   0.504  0.0191  0.4562  0.3338
 5908TIP3    H117730   1.662   2.055   0.551  0.0804 -0.3147  1.4452
 5908TIP3    H217731   1.784   1.967   0.569  2.2211  1.9486 -1.1062
 5909TIP3   OH217732   2.858   5.259   2.763 -0.0763 -0.4610  0.1625
 5909TIP3    H117733   2.867   5.354   2.767  1.1707 -0.4814 -1.3051
 5909TIP3    H217734   2.764   5.244   2.757 -0.5632  0.4745  3.4927
 5910TIP3   OH217735   2.992   5.103   2.945 -0.1090  0.6424 -0.1081
 5910TIP3    H117736   2.952   5.149   2.871 -1.9443 -1.6219 -0.6396
 5910TIP3    H217737   3.051   5.040   2.905  0.8271  1.1096  0.5098
 5911TIP3   OH217738   5.872   1.439   0.900  0.3973  0.5619  0.3959
 5911TIP3    H117739   5.911   1.524   0.920  1.4611  0.4289 -0.9222
 5911TIP3    H217740   5.916   1.411   0.819  0.7629 -1.6490  1.2686
 5912TIP3   OH217741   5.945   5.115   4.263  0.6728  0.3857  0.3031
 5912TIP3    H117742   5.962   5.149   4.351 -1.2983  2.2784  0.0275
 5912TIP3    H217743   6.021   5.142   4.212  0.5723  1.7146  0.8157
 5913TIP3   OH217744   5.147   3.505   0.212 -0.0799 -0.1078 -0.4058
 5913TIP3    H117745   5.098   3.564   0.269  0.6167 -0.2674  0.3794
 5913TIP3    H217746   5.080   3.451   0.170 -0.6633  0.6319 -0.4478
 5914TIP3   OH217747   3.310   3.697   4.871  0.4058 -0.4098  0.8337
 5914TIP3    H117748   3.277   3.614   4.904  0.7910  0.3820  3.4784
 5914TIP3    H217749   3.255   3.763   4.914 -0.8159  0.7504 -2.2499
 5915TIP3   OH217750   4.095   2.838   4.815  0.2211  0.6842  0.0977
 5915TIP3    H117751   4.152   2.824   4.739  2.6203  2.8175  1.3244
 5915TIP3    H217752   4.026   2.896   4.783 -0.6882 -0.9921 -1.1429
 5916TIP3   OH217753   5.257   1.975   3.914 -0.2561  0.1732 -0.8632
 5916TIP3    H117754   5.244   2.008   4.003 -1.5261 -2.9245  0.2103
 5916TIP3    H217755   5.175   1.996   3.869 -0.0747  0.6842 -0.9634
 5917TIP3   OH217756   2.376   4.553   1.919 -0.2324  0.1051 -0.3731
 5917TIP3    H117757   2.344   4.604   1.993 -0.0075  0.3029 -0.4116
 5917TIP3    H217758   2.305   4.493   1.899 -0.4518  0.3245 -0.2523
 5918TIP3   OH217759   2.029   2.798   2.524  0.2636 -0.0622  0.4887
 5918TIP3    H117760   2.103   2.780   2.583  0.4345  0.7497  0.5321
 5918TIP3    H217761   2.048   2.746   2.446  1.3369  0.7993  0.1549
 5919TIP3   OH217762   3.200   2.666   0.437 -0.7782 -0.9111  0.7495
 5919TIP3    H117763   3.214   2.603   0.508  0.3211 -2.5405 -0.8012
 5919TIP3    H217764   3.120   2.637   0.394  0.8088 -2.6816 -1.2472
 5920TIP3   OH217765   3.335   3.043   1.416  0.2115  0.1142  0.0085
 5920TIP3    H117766   3.335   2.948   1.425  2.4350 -0.0219 -0.8045
 5920TIP3    H217767   3.338   3.058   1.321 -0.6209  1.0110  0.1116
 5921TIP3   OH217768   3.523   0.427   3.188  0.8833 -0.0024  0.0520
 5921TIP3    H117769   3.591   0.413   3.254  0.4907 -0.3348  0.3935
 5921TIP3    H217770   3.463   0.490   3.228  1.3883  0.8963 -0.5549
 5922TIP3   OH217771   1.437   5.487   5.052 -0.5032  0.3089  0.3000
 5922TIP3    H117772   1.346   5.503   5.030 -0.1394  1.2983 -0.5925
 5922TIP3    H217773   1.483   5.564   5.021  0.9597 -1.1534 -1.3841
 5923TIP3   OH217774   2.433   4.678   3.068 -0.6349  0.0812  0.8122
 5923TIP3    H117775   2.493   4.751   3.076 -0.3476 -0.0579  0.0092
 5923TIP3    H217776   2.347   4.718   3.055 -0.5003  0.2754  0.5296
 5924TIP3   OH217777   3.511   2.343   4.073 -0.4683 -0.0155 -0.1689
 5924TIP3    H117778   3.480   2.273   4.015 -0.5716  0.7397 -1.0613
 5924TIP3    H217779   3.431   2.376   4.115 -0.4567 -0.2509  0.0351
 5925TIP3   OH217780   0.592   4.614   1.632 -0.6439  0.2629 -0.2443
 5925TIP3    H117781   0.585   4.678   1.561  1.6216  1.0927  0.1708
 5925TIP3    H217782   0.621   4.666   1.707 -2.0136 -0.7608  1.0545
 5926TIP3   OH217783   3.754   0.661   0.030 -0.3869  0.0365 -0.1357
 5926TIP3    H117784   3.792   0.748   0.044 -0.0625  0.2338 -1.9821
 5926TIP3    H217785   3.808   0.623  -0.039  1.0041 -2.6269  2.2017
 5927TIP3   OH217786   0.055   3.500   4.083  0.4087  0.0798 -0.5665
 5927TIP3    H117787   0.131   3.494   4.025  0.0157  0.3921 -1.1222
 5927TIP3    H217788   0.093   3.515   4.170  1.0810 -2.4190 -0.3681
 5928TIP3   OH217789   5.943   0.499   3.252  0.2050 -0.4000  0.4723
 5928TIP3    H117790   5.965   0.520   3.161  1.1458  1.2184  1.0380
 5928TIP3    H217791   6.028   0.492   3.296 -0.2408  1.8712  1.8350
 5929TIP3   OH217792   4.146   0.474   2.104  0.3860 -0.4298 -0.2486
 5929TIP3    H117793   4.059   0.459   2.066 -0.2454  1.3788  0.4009
 5929TIP3    H217794   4.166   0.393   2.149 -0.1845 -1.5227 -1.8425
 5930TIP3   OH217795   2.189   0.044   1.651  0.6960  0.0180 -0.1778
 5930TIP3    H117796   2.166  -0.049   1.653  0.3168  0.1132 -0.0971
 5930TIP3    H217797   2.274   0.048   1.695 -0.0057 -0.0890  1.2552
 5931TIP3   OH217798   2.089   5.985   0.200  0.1344 -0.6921  0.0861
 5931TIP3    H117799   2.117   5.895   0.215  1.6018 -0.1039  1.2286
 5931TIP3    H217800   2.157   6.022   0.144  0.4365  0.1269  0.9584
 5932TIP3   OH217801   3.053   3.965   0.858  0.2838 -0.3077 -0.1424
 5932TIP3    H117802   3.055   3.878   0.818  0.9421  0.4738 -1.9270
 5932TIP3    H217803   2.990   3.958   0.929  0.2985 -2.2226 -0.2818
 5933TIP3   OH217804   6.199   1.103   4.772  1.2029  0.5767  0.0299
 5933TIP3    H117805   6.285   1.127   4.804  1.3651  0.1750 -0.0943
 5933TIP3    H217806   6.164   1.183   4.733  0.7953  1.2152  1.6190
 5934TIP3   OH217807   4.678   0.127   3.731 -0.0480  0.2983 -0.0476
 5934TIP3    H117808   4.743   0.089   3.790 -0.4385  1.6518  1.3254
 5934TIP3    H217809   4.655   0.056   3.672  0.5734 -1.0497  1.2559
 5935TIP3   OH217810   1.199   5.307   4.017 -0.4176 -0.5666  0.1784
 5935TIP3    H117811   1.283   5.316   4.061 -0.0054  2.3609 -0.9949
 5935TIP3    H217812   1.136   5.349   4.077 -0.5637 -0.3717 -0.1054
 5936TIP3   OH217813   4.615   4.081   1.250  0.1375 -0.0735  0.2639
 5936TIP3    H117814   4.571   3.997   1.238 -0.7330  0.3254  0.5673
 5936TIP3    H217815   4.549   4.146   1.225  1.0579  0.5048 -0.7454
 5937TIP3   OH217816   3.178   0.796   2.888  0.0269  0.1547  0.1474
 5937TIP3    H117817   3.193   0.886   2.856 -2.8396  0.7724  0.2448
 5937TIP3    H217818   3.174   0.743   2.808  0.1512  0.3911 -0.0173
 5938TIP3   OH217819   0.229   0.178   3.076 -0.1058  0.0980 -0.7627
 5938TIP3    H117820   0.144   0.188   3.118 -0.2549 -0.3866 -0.9329
 5938TIP3    H217821   0.280   0.252   3.106  0.1241 -0.7375  1.0524
 5939TIP3   OH217822   1.937   5.448   4.372  0.7229 -0.0551 -0.0755
 5939TIP3    H117823   1.997   5.509   4.328  0.5702  0.3950  0.3303
 5939TIP3    H217824   1.893   5.502   4.438  1.0262 -0.7482  0.7031
 5940TIP3   OH217825   5.922   3.137   2.620 -0.7257 -0.0878 -0.5067
 5940TIP3    H117826   5.886   3.070   2.679 -1.8314 -0.0918 -1.1534
 5940TIP3    H217827   5.977   3.191   2.675 -2.2204  0.2784  0.6771
 5941TIP3   OH217828   4.888   3.718   2.990 -0.3998 -0.1627  0.5461
 5941TIP3    H117829   4.982   3.700   2.985 -0.5369 -0.9393  0.7145
 5941TIP3    H217830   4.846   3.636   2.964 -1.0463  0.7486 -1.5125
 5942TIP3   OH217831   1.629   5.328   4.877  0.2429  0.2221  0.5007
 5942TIP3    H117832   1.571   5.359   4.808  0.0292  0.5879  0.8461
 5942TIP3    H217833   1.614   5.387   4.950  0.1638 -0.4096  1.0078
 5943TIP3   OH217834   0.905   2.701   5.016  0.0679 -0.4533  0.4791
 5943TIP3    H117835   0.929   2.609   5.024 -1.5808 -0.9689 -0.1920
 5943TIP3    H217836   0.864   2.722   5.100  1.8663  0.1565  1.2521
 5944TIP3   OH217837   5.771   1.680   2.617 -0.8951 -0.2035 -0.1183
 5944TIP3    H117838   5.825   1.724   2.550 -1.0134  0.5631  0.2730
 5944TIP3    H217839   5.690   1.731   2.618 -0.0870  1.2068  2.1267
 5945TIP3   OH217840   1.940   2.856   2.203  0.5653 -0.1006 -0.3756
 5945TIP3    H117841   1.962   2.819   2.117 -0.8078  0.7790 -1.1375
 5945TIP3    H217842   2.017   2.909   2.227  0.8102 -0.0601 -1.2324
 5946TIP3   OH217843   2.722   4.367   1.938  0.2076  0.2790 -0.8135
 5946TIP3    H117844   2.725   4.440   1.876  0.9376  0.2527 -0.8078
 5946TIP3    H217845   2.688   4.293   1.886  1.4352  0.0815 -1.3719
 5947TIP3   OH217846   5.361   2.436   3.500 -0.5364 -0.0656  0.4511
 5947TIP3    H117847   5.313   2.516   3.520 -0.1681  1.5270 -3.9458
 5947TIP3    H217848   5.453   2.459   3.515 -0.5636 -0.6028  1.5915
 5948TIP3   OH217849   2.500   3.494   1.744  0.4847  0.5088  0.3846
 5948TIP3    H117850   2.580   3.536   1.713  0.8114  1.5891  2.4942
 5948TIP3    H217851   2.491   3.524   1.834 -1.0462 -1.4465  0.9521
 5949TIP3   OH217852   2.316   1.241   2.067  0.2768  0.1839  0.5435
 5949TIP3    H117853   2.376   1.225   1.993  0.5503  0.6410  0.6628
 5949TIP3    H217854   2.371   1.230   2.145 -0.1051 -0.7089  0.6998
 5950TIP3   OH217855   5.173   4.707   2.205  0.8106 -0.1930 -0.5578
 5950TIP3    H117856   5.162   4.788   2.154 -1.1837 -0.2404 -0.2734
 5950TIP3    H217857   5.131   4.726   2.289  0.8274 -1.3403 -0.2731
 5951TIP3   OH217858   5.787   5.319   1.102  0.8149  0.2080 -0.1341
 5951TIP3    H117859   5.853   5.261   1.141  4.1265  2.9667 -1.1535
 5951TIP3    H217860   5.774   5.285   1.014  0.3602 -0.6998  0.2700
 5952TIP3   OH217861   0.821   0.399   1.810 -0.4472  0.2149 -0.5476
 5952TIP3    H117862   0.897   0.359   1.852  0.5425  1.7968 -0.7859
 5952TIP3    H217863   0.837   0.493   1.813 -2.5092  0.6194 -0.4110
 5953TIP3   OH217864   4.813   2.172   0.941 -0.0295 -0.2343  0.0075
 5953TIP3    H117865   4.829   2.214   1.026  1.0314 -1.3003  0.3682
 5953TIP3    H217866   4.896   2.129   0.919 -0.5232 -0.6169 -1.2041
 5954TIP3   OH217867   1.555   3.815   1.695  0.2362  0.6352 -0.2310
 5954TIP3    H117868   1.474   3.766   1.680 -0.4552  1.3394  1.0659
 5954TIP3    H217869   1.618   3.775   1.635 -0.1669 -2.1802  1.0208
 5955TIP3   OH217870   0.088   3.861   0.183  0.0278 -0.0408 -0.7007
 5955TIP3    H117871   0.083   3.897   0.094 -0.9473 -0.3291 -0.7748
 5955TIP3    H217872   0.039   3.923   0.237  2.4334  1.3083  0.0636
 5956TIP3   OH217873   6.275   0.243   3.080  0.4025 -0.4340 -0.0353
 5956TIP3    H117874   6.249   0.327   3.119  0.1735 -0.2740 -0.5227
 5956TIP3    H217875   6.192   0.200   3.060  0.5148 -0.4692 -0.4327
 5957TIP3   OH217876   1.520   4.310   3.050 -0.2609 -0.3170 -0.2528
 5957TIP3    H117877   1.545   4.347   3.135  0.0312 -0.3667 -0.3156
 5957TIP3    H217878   1.566   4.226   3.046 -2.2967 -1.5624  0.6691
 5958TIP3   OH217879   2.656   3.935   5.027 -0.0241 -0.4948 -0.0129
 5958TIP3    H117880   2.565   3.944   4.997  0.0163  0.3370  0.0832
 5958TIP3    H217881   2.679   3.844   5.007 -0.9544 -0.7861  0.1813
 5959TIP3   OH217882   0.183   5.499   4.057 -0.4435 -0.0439  0.0001
 5959TIP3    H117883   0.237   5.573   4.086  1.8905 -1.5982 -0.0607
 5959TIP3    H217884   0.175   5.509   3.963  0.7153 -0.3297 -0.1481
 5960TIP3   OH217885   0.790   2.791   2.379  0.0005 -0.1029  0.2380
 5960TIP3    H117886   0.833   2.766   2.298 -0.6755 -0.3822 -0.0433
 5960TIP3    H217887   0.708   2.741   2.380 -0.2367  0.2771  0.8437
 5961TIP3   OH217888   6.096   0.498   3.817 -0.6479  0.0559 -0.3138
 5961TIP3    H117889   6.091   0.487   3.912 -1.1952 -1.4892 -0.4947
 5961TIP3    H217890   6.111   0.592   3.805 -0.3228  0.2497  1.2991
 5962TIP3   OH217891   5.212   2.626   3.290 -0.0946  0.1448  0.1100
 5962TIP3    H117892   5.145   2.624   3.223  0.5827  1.5449 -0.6467
 5962TIP3    H217893   5.276   2.560   3.263 -1.0572 -1.1167  0.7788
 5963TIP3   OH217894   5.793   4.837   3.803  0.3080  0.2575 -0.3666
 5963TIP3    H117895   5.870   4.864   3.753  0.3545  2.2350  0.7014
 5963TIP3    H217896   5.805   4.875   3.890 -1.0511 -0.8716  0.3604
 5964TIP3   OH217897   1.754   5.419   4.032 -0.2400 -0.2720 -0.0958
 5964TIP3    H117898   1.842   5.380   4.035  0.6799  1.7347  0.3797
 5964TIP3    H217899   1.700   5.351   3.992  0.9705 -2.5442  1.8503
 5965TIP3   OH217900   0.116   1.010   3.059 -0.4290  0.1293 -0.1375
 5965TIP3    H117901   0.200   0.971   3.081  0.2413  0.4212 -2.0170
 5965TIP3    H217902   0.116   1.095   3.102  0.3700  0.2524 -0.3777
 5966TIP3   OH217903   2.283   1.739   2.802 -0.4532 -0.6918  0.7224
 5966TIP3    H117904   2.310   1.738   2.894  0.1255 -0.1725  0.5622
 5966TIP3    H217905   2.237   1.656   2.790 -0.2478 -0.9121  1.3945
 5967TIP3   OH217906   3.825   3.410   3.636 -0.2674 -0.1489 -0.0792
 5967TIP3    H117907   3.899   3.427   3.579 -1.8378  2.4546 -1.5529
 5967TIP3    H217908   3.808   3.494   3.679 -1.0130 -1.2670  1.9705
 5968TIP3   OH217909   1.555   5.721   4.952  0.1557 -0.0460 -0.0529
 5968TIP3    H117910   1.487   5.773   4.996 -1.0913 -0.7230 -1.1112
 5968TIP3    H217911   1.637   5.757   4.985 -0.6986  0.9505  1.1083
 5969TIP3   OH217912   5.350   3.846   3.557 -0.5454 -0.1001 -0.4062
 5969TIP3    H117913   5.322   3.796   3.634  0.6879  1.3315  1.0503
 5969TIP3    H217914   5.412   3.910   3.592  0.0998  0.5608 -2.6279
 5970TIP3   OH217915   2.112   1.013   4.078  0.0488  0.0506  0.5768
 5970TIP3    H117916   2.151   0.974   4.156 -1.0184 -0.7494  0.7208
 5970TIP3    H217917   2.135   0.953   4.007  1.7065  1.1834  0.0933
 5971TIP3   OH217918   4.453   0.247   4.261 -0.0996 -0.2881 -0.0245
 5971TIP3    H117919   4.384   0.182   4.275 -0.3509  0.2177  1.1868
 5971TIP3    H217920   4.460   0.255   4.166 -0.6906 -1.4189 -0.1743
 5972TIP3   OH217921   3.606   2.117   4.250 -0.0326 -0.1001  0.1516
 5972TIP3    H117922   3.561   2.199   4.229  0.7760  0.9787  2.3111
 5972TIP3    H217923   3.645   2.089   4.167 -3.7160 -0.6007 -1.6548
 5973TIP3   OH217924   5.088   1.819   4.171 -0.8236  0.0315  0.1524
 5973TIP3    H117925   4.995   1.840   4.178 -0.8425 -0.4563  1.7496
 5973TIP3    H217926   5.125   1.891   4.119 -1.7498  1.3236  1.2107
 5974TIP3   OH217927   5.595   5.816   1.428 -0.4757 -0.3419 -0.5511
 5974TIP3    H117928   5.638   5.884   1.479  0.5259 -1.2166 -0.2073
 5974TIP3    H217929   5.523   5.862   1.384  1.0814  1.2753 -1.5485
 5975TIP3   OH217930   0.906   2.617   2.162 -0.0587 -0.0446  0.1465
 5975TIP3    H117931   0.997   2.637   2.139  0.1665 -0.7720  0.3652
 5975TIP3    H217932   0.899   2.522   2.151 -0.4841 -0.1485  1.1572
 5976TIP3   OH217933   3.535   4.391   0.399  0.0883 -0.3277 -0.5103
 5976TIP3    H117934   3.472   4.463   0.387  0.3238  0.3425  1.7057
 5976TIP3    H217935   3.493   4.334   0.464  1.8625  0.3510  1.3233
 5977TIP3   OH217936   0.599   5.736   2.842  0.2841  0.3435  0.1540
 5977TIP3    H117937   0.552   5.657   2.868 -3.3308  1.4828 -2.1819
 5977TIP3    H217938   0.553   5.807   2.886  0.2804  1.4721 -1.5883
 5978TIP3   OH217939   5.322   0.334   3.723  0.0225 -0.2286  0.5322
 5978TIP3    H117940   5.401   0.363   3.769  0.5194  0.3284 -0.6261
 5978TIP3    H217941   5.305   0.247   3.757 -0.3601  0.6130  2.6743
 5979TIP3   OH217942   5.722   4.290   1.533 -0.5412  0.2188  0.3961
 5979TIP3    H117943   5.724   4.217   1.595  0.1204 -0.1876 -0.0846
 5979TIP3    H217944   5.648   4.344   1.561 -0.4863 -0.1621  1.2980
 5980TIP3   OH217945   2.451   4.920   1.494  0.5382  0.5178 -0.7316
 5980TIP3    H117946   2.382   4.871   1.448  1.7112  0.9724 -3.1508
 5980TIP3    H217947   2.510   4.949   1.424  3.2477  0.0829  1.2041
 5981TIP3   OH217948   3.923   5.005   0.340  0.2163  0.3915  0.0656
 5981TIP3    H117949   3.910   5.099   0.350  0.3775  0.2712  1.6975
 5981TIP3    H217950   4.013   4.990   0.367  1.2004  0.1071 -3.0245
 5982TIP3   OH217951   3.720   4.446   1.849  0.2762 -0.4147  1.1422
 5982TIP3    H117952   3.638   4.490   1.871  0.6271  1.0145 -0.2297
 5982TIP3    H217953   3.783   4.479   1.913 -0.0737 -1.0923  1.8520
 5983TIP3   OH217954   2.063   2.017   2.399 -0.7303  0.0970  0.2119
 5983TIP3    H117955   2.146   1.987   2.435 -1.0477 -0.7028  0.2884
 5983TIP3    H217956   2.000   1.950   2.425 -1.5477  1.0577  0.8007
 5984TIP3   OH217957   5.238   5.590   3.630  0.4069 -0.3954 -0.0900
 5984TIP3    H117958   5.169   5.613   3.567  0.7434 -3.8016 -1.9043
 5984TIP3    H217959   5.242   5.666   3.689 -1.4672  2.0425 -2.8021
 5985TIP3   OH217960   2.941   1.392   1.361 -0.2530  0.1630 -0.3236
 5985TIP3    H117961   2.971   1.390   1.271 -0.5786  2.3237 -0.5250
 5985TIP3    H217962   2.845   1.393   1.355 -0.3008  2.4730 -0.1109
 5986TIP3   OH217963   4.319   3.219   2.066  0.1076 -0.6002  0.4090
 5986TIP3    H117964   4.244   3.208   2.008  1.3676 -1.7910 -1.0803
 5986TIP3    H217965   4.355   3.131   2.075  1.1589 -0.0997  1.3315
 5987TIP3   OH217966   5.227   0.330   2.639 -0.0613  0.7332 -0.2669
 5987TIP3    H117967   5.311   0.375   2.644  0.5550 -0.3078 -0.8328
 5987TIP3    H217968   5.229   0.267   2.711 -0.4246  0.8038 -0.1919
 5988TIP3   OH217969   2.420   1.444   4.989 -0.2582  0.0621 -0.5018
 5988TIP3    H117970   2.492   1.502   4.962 -0.0774  0.8654  1.5398
 5988TIP3    H217971   2.445   1.358   4.954  0.7648  0.6884 -1.3872
 5989TIP3   OH217972   4.715   1.209   4.551 -0.2616  0.1762 -0.2176
 5989TIP3    H117973   4.749   1.228   4.464 -2.6486  1.9837 -0.8505
 5989TIP3    H217974   4.714   1.294   4.596 -3.1015  0.1300 -0.0082
 5990TIP3   OH217975   3.400   4.819   0.109  0.3196 -0.3477 -0.4996
 5990TIP3    H117976   3.306   4.801   0.099  0.0735 -0.3840  1.4573
 5990TIP3    H217977   3.410   4.910   0.083 -0.7158  0.3618  1.3886
 5991TIP3   OH217978   4.111   2.383   0.249  0.0041  0.2918  0.2410
 5991TIP3    H117979   4.153   2.438   0.182  2.8757 -0.9157  0.8808
 5991TIP3    H217980   4.171   2.388   0.323 -1.7353 -0.5558  1.7602
 5992TIP3   OH217981   0.500   1.240   0.008  0.0574  0.2537 -0.2344
 5992TIP3    H117982   0.406   1.257   0.012  0.3081  1.5938  1.0799
 5992TIP3    H217983   0.511   1.154   0.048 -0.5699  0.2942  0.0358
 5993TIP3   OH217984   1.514   3.573   1.348  0.0444  0.2056  0.2537
 5993TIP3    H117985   1.597   3.605   1.385  0.0524 -1.3705  1.7432
 5993TIP3    H217986   1.518   3.478   1.359 -0.2825 -0.3576 -3.3020
 5994TIP3   OH217987   3.165   0.853   3.292  0.3604 -0.0697 -0.0964
 5994TIP3    H117988   3.216   0.831   3.214  1.6896  0.5977  0.5575
 5994TIP3    H217989   3.199   0.937   3.320  0.2637 -0.5386  1.5128
 5995TIP3   OH217990   4.236   3.517   1.776 -0.3403  0.2416 -0.4272
 5995TIP3    H117991   4.225   3.422   1.788 -1.5117  0.6576  3.0798
 5995TIP3    H217992   4.309   3.539   1.835 -2.2857  1.8898  1.4985
 5996TIP3   OH217993   3.354   4.268   1.304 -0.2811  0.2672  0.2792
 5996TIP3    H117994   3.302   4.272   1.224  2.0437 -0.4334 -1.3734
 5996TIP3    H217995   3.426   4.208   1.283  0.2245 -0.2044  3.0237
 5997TIP3   OH217996   5.990   2.033   0.364  0.7697 -0.5827 -0.1532
 5997TIP3    H117997   6.076   2.072   0.348  0.5026  0.7291  1.3497
 5997TIP3    H217998   5.942   2.100   0.412 -1.5188 -0.8404 -1.8875
 5998TIP3   OH217999   4.875   2.607   3.827  0.8668 -0.0003  0.0487
 5998TIP3    H118000   4.911   2.614   3.738 -1.2559  0.9979 -0.7888
 5998TIP3    H218001   4.839   2.518   3.831 -0.1508  0.3758 -0.5520
 5999TIP3   OH218002   4.070   3.887   3.044  0.4913 -0.3170 -0.0794
 5999TIP3    H118003   4.049   3.876   2.952 -0.6549 -0.4444  0.1878
 5999TIP3    H218004   4.055   3.980   3.061 -1.5303 -0.7113  0.4975
 6000TIP3   OH218005   1.278   4.550   3.452  0.1930  0.0236  0.4056
 6000TIP3    H118006   1.301   4.519   3.364  0.0962 -0.1307  0.4328
 6000TIP3    H218007   1.252   4.641   3.439 -2.6785 -0.7821 -0.2308
 6001TIP3   OH218008   2.381   0.176   3.163 -0.2188  0.3187 -0.0622
 6001TIP3    H118009   2.287   0.178   3.183 -0.2817  1.1487 -0.3997
 6001TIP3    H218010   2.394   0.248   3.101  0.4595 -0.4418 -0.8296
 6002TIP3   OH218011   2.122   5.712   0.108  0.8124  0.7472 -0.1534
 6002TIP3    H118012   2.117   5.754   0.023  0.6451  1.7024  0.3129
 6002TIP3    H218013   2.031   5.689   0.130  0.8094  0.8445 -0.0639
 6003TIP3   OH218014   3.410   1.925   2.561  0.0091  0.3292  0.1732
 6003TIP3    H118015   3.473   1.856   2.540  0.2973  0.7817 -0.4750
 6003TIP3    H218016   3.447   1.969   2.637  0.5589  0.6992 -0.3060
 6004TIP3   OH218017   2.651   0.362   0.867 -0.5519 -0.3768  0.3849
 6004TIP3    H118018   2.742   0.366   0.836 -0.7704 -0.7299 -0.3281
 6004TIP3    H218019   2.657   0.322   0.954  0.2526  2.2103  1.6165
 6005TIP3   OH218020   6.143   0.204   3.951  0.0195  0.5358 -0.4261
 6005TIP3    H118021   6.166   0.285   3.996 -0.9403  1.4759 -1.5699
 6005TIP3    H218022   6.052   0.189   3.974  0.3841 -0.6236  0.3344
 6006TIP3   OH218023   1.077   1.431   4.795  0.0112 -0.3472 -0.4770
 6006TIP3    H118024   1.057   1.498   4.860 -2.1457 -0.9490 -0.4370
 6006TIP3    H218025   1.080   1.478   4.712 -1.3064 -0.1377 -0.4261
 6007TIP3   OH218026   0.087   5.007   0.111 -0.1895 -0.7752  0.1810
 6007TIP3    H118027   0.041   5.048   0.038  0.1982 -3.1696 -1.5252
 6007TIP3    H218028   0.149   5.074   0.140 -1.1974  0.6842 -0.8673
 6008TIP3   OH218029   3.638   5.297   4.347 -0.1431  0.2920 -0.4255
 6008TIP3    H118030   3.718   5.346   4.327 -0.1965  0.9978  0.9953
 6008TIP3    H218031   3.573   5.331   4.286  0.5591 -0.1219 -1.4389
 6009TIP3   OH218032   4.341   0.414   1.871 -0.3344 -0.1555 -0.4646
 6009TIP3    H118033   4.407   0.346   1.885 -0.1759 -0.3570 -1.9799
 6009TIP3    H218034   4.299   0.425   1.956  0.3409 -1.4135  0.0635
 6010TIP3   OH218035   2.913   4.917   1.680 -0.1955 -0.3910  0.3914
 6010TIP3    H118036   2.864   4.974   1.621 -1.0008 -1.9955 -0.5295
 6010TIP3    H218037   2.847   4.883   1.741  0.2824 -0.3427  0.9445
 6011TIP3   OH218038   1.537   5.633   0.064  0.8310 -0.1079 -0.1069
 6011TIP3    H118039   1.448   5.617   0.094  0.7323 -1.3976 -0.9945
 6011TIP3    H218040   1.587   5.651   0.144 -0.3145  1.2734  0.3494
 6012TIP3   OH218041   2.066   2.982   1.649 -0.0936  0.5578  0.3098
 6012TIP3    H118042   2.157   2.961   1.628 -0.1198  1.4499 -0.7438
 6012TIP3    H218043   2.055   3.073   1.622 -0.9941  0.8193  1.4693
 6013TIP3   OH218044   6.140   3.888   1.419  0.4380  0.0402  0.0477
 6013TIP3    H118045   6.182   3.909   1.503 -0.1700  1.2933  0.0706
 6013TIP3    H218046   6.207   3.909   1.354  0.5635  0.0359  0.1732
 6014TIP3   OH218047   1.160   2.592   4.104 -0.5813  0.4074  0.2446
 6014TIP3    H118048   1.148   2.520   4.041  2.5063 -2.0344  2.1033
 6014TIP3    H218049   1.118   2.561   4.184  2.2312 -0.2931  1.5776
 6015TIP3   OH218050   0.385   4.626   4.403 -0.0607 -0.0080  0.0699
 6015TIP3    H118051   0.339   4.694   4.453 -0.1306 -0.0586  0.0749
 6015TIP3    H218052   0.403   4.557   4.467  3.2372  1.5083  0.9677
 6016TIP3   OH218053   0.750   3.189   1.201 -0.2448 -0.4297  0.0332
 6016TIP3    H118054   0.715   3.194   1.112  1.4975 -0.3500 -0.6834
 6016TIP3    H218055   0.673   3.193   1.258 -1.3721 -0.2991 -1.4636
 6017TIP3   OH218056   3.281   3.938   1.098 -0.0155  0.5104 -0.1887
 6017TIP3    H118057   3.288   4.026   1.062 -1.2421  0.4820 -0.5273
 6017TIP3    H218058   3.284   3.950   1.193 -1.8022  1.0976 -0.1764
 6018TIP3   OH218059   2.877   3.644   4.045 -0.2950  0.0458 -0.6053
 6018TIP3    H118060   2.791   3.657   4.004 -0.7078 -1.8174 -0.4023
 6018TIP3    H218061   2.860   3.647   4.139  0.0413  0.6503 -0.5584
 6019TIP3   OH218062   4.054   0.719   0.523 -0.2265 -0.2715  0.3045
 6019TIP3    H118063   4.006   0.677   0.452 -1.3720  0.4660  0.6137
 6019TIP3    H218064   4.015   0.683   0.603 -0.8435  0.9202  0.5647
 6020TIP3   OH218065   4.697   4.986   3.236 -0.2279  0.4117  0.4999
 6020TIP3    H118066   4.634   4.965   3.305  0.1018  1.7809  1.2504
 6020TIP3    H218067   4.781   4.996   3.282  0.5868 -1.3470 -0.4835
 6021TIP3   OH218068   5.022   1.324   0.801  0.6517  0.5192  0.1191
 6021TIP3    H118069   5.103   1.338   0.849  0.8950  0.1709 -0.1871
 6021TIP3    H218070   4.984   1.411   0.791  2.3809  1.0683 -2.2314
 6022TIP3   OH218071   3.536   5.120   1.181  0.0511  0.1970 -0.3906
 6022TIP3    H118072   3.502   5.118   1.270 -0.3828  4.0471 -0.2668
 6022TIP3    H218073   3.458   5.110   1.126 -0.5261  2.6551 -0.1614
 6023TIP3   OH218074   5.117   2.106   3.651  0.2574 -0.0496  0.1899
 6023TIP3    H118075   5.058   2.085   3.724  0.0383 -1.5595 -0.3911
 6023TIP3    H218076   5.079   2.061   3.576  1.0096  0.7085 -0.6558
 6024TIP3   OH218077   3.247   5.950   4.962  0.2128  1.0990 -0.0172
 6024TIP3    H118078   3.195   6.031   4.962  1.2641  1.8081  1.1516
 6024TIP3    H218079   3.184   5.881   4.984 -0.3105  1.8910  1.0623
 6025TIP3   OH218080   4.849   3.809   2.660  0.0806  0.5258  0.0064
 6025TIP3    H118081   4.919   3.753   2.625  2.7500  3.2340  0.6717
 6025TIP3    H218082   4.818   3.859   2.584  0.1661  0.6668  0.0655
 6026TIP3   OH218083   3.895   2.601   0.065 -0.0938  0.0412 -0.2534
 6026TIP3    H118084   3.879   2.604  -0.030  0.5986 -0.4374 -0.3916
 6026TIP3    H218085   3.861   2.515   0.092 -1.3737  0.6540  0.1486
 6027TIP3   OH218086   5.795   0.689   2.947  0.1848  0.0947 -0.4297
 6027TIP3    H118087   5.776   0.610   2.897  1.9016  0.5397 -1.9246
 6027TIP3    H218088   5.738   0.756   2.910 -0.2742 -0.1223 -0.1178
 6028TIP3   OH218089   3.906   3.540   1.912  0.5659 -0.5242  0.1013
 6028TIP3    H118090   3.849   3.475   1.953  1.2915 -0.8120  0.6621
 6028TIP3    H218091   3.853   3.575   1.839  0.0008 -1.4017  0.0728
 6029TIP3   OH218092   5.977   3.561   2.399 -0.3434  0.7248  0.1411
 6029TIP3    H118093   5.929   3.482   2.425 -0.9989  0.9869 -0.2334
 6029TIP3    H218094   6.044   3.571   2.466 -0.7575  0.2896  0.6356
 6030TIP3   OH218095   2.687   1.267   3.459 -0.0303  0.0356  0.3055
 6030TIP3    H118096   2.734   1.215   3.393  0.2256 -0.0371  0.5394
 6030TIP3    H218097   2.670   1.205   3.530 -0.3281  0.1071  0.2985
 6031TIP3   OH218098   5.603   1.863   1.651 -0.6377  0.0394 -0.3116
 6031TIP3    H118099   5.640   1.872   1.739  0.7923  0.8429 -0.9495
 6031TIP3    H218100   5.658   1.796   1.609 -0.0966  0.9870 -1.1654
 6032TIP3   OH218101   5.864   3.262   4.248  0.1119  0.4656  0.4509
 6032TIP3    H118102   5.946   3.223   4.279  1.2077  1.1072 -1.4855
 6032TIP3    H218103   5.861   3.241   4.155 -3.2084 -1.6910  0.8582
 6033TIP3   OH218104   4.804   0.971   4.696  0.8913  0.1295  0.3373
 6033TIP3    H118105   4.782   1.052   4.650 -2.5184 -0.8950 -0.1103
 6033TIP3    H218106   4.861   0.923   4.636  0.2313  0.7885 -0.8395
 6034TIP3   OH218107   1.307   3.493   3.827 -0.0600  0.1050  0.4535
 6034TIP3    H118108   1.251   3.569   3.843 -0.7611  0.2991 -2.3570
 6034TIP3    H218109   1.252   3.418   3.849 -0.0721  0.3515  1.3001
 6035TIP3   OH218110   2.184   4.718   1.777 -0.5105 -0.5448  0.1039
 6035TIP3    H118111   2.204   4.811   1.791 -1.5480 -0.0030 -1.5856
 6035TIP3    H218112   2.267   4.673   1.788  0.0504  0.6195  0.7682
 6036TIP3   OH218113   1.949   2.281   1.096 -0.2668 -0.9528  0.2594
 6036TIP3    H118114   1.870   2.314   1.052 -0.5414 -1.5045  0.3267
 6036TIP3    H218115   1.928   2.189   1.116  0.4151 -1.1200  0.2253
 6037TIP3   OH218116   3.520   4.802   0.489  0.5639 -0.6799 -0.3347
 6037TIP3    H118117   3.447   4.833   0.436  1.6463  0.5566 -1.1877
 6037TIP3    H218118   3.558   4.730   0.438  2.0978  1.0292 -1.7573
 6038TIP3   OH218119   1.187   2.361   2.824  0.6291 -0.0982  0.4059
 6038TIP3    H118120   1.185   2.265   2.817  0.5369 -0.1694  1.2636
 6038TIP3    H218121   1.105   2.383   2.870  1.2374  0.2771  1.3442
 6039TIP3   OH218122   0.261   1.000   1.925  0.0145 -0.7076 -0.2414
 6039TIP3    H118123   0.347   0.960   1.907  0.0026 -0.3777 -1.0701
 6039TIP3    H218124   0.258   1.006   2.020  0.6325 -1.3387 -0.1667
 6040TIP3   OH218125   1.517   0.229   1.802  0.2324 -0.3283  0.0699
 6040TIP3    H118126   1.556   0.308   1.765  1.5815 -0.9671  0.1070
 6040TIP3    H218127   1.579   0.201   1.869 -1.1627 -0.3546  1.3994
 6041TIP3   OH218128   3.787   1.227   2.430  0.0170  0.1385 -0.3819
 6041TIP3    H118129   3.861   1.217   2.370  1.4743 -2.6532  1.6220
 6041TIP3    H218130   3.712   1.194   2.381  0.6454  0.3276 -1.5072
 6042TIP3   OH218131   4.651   1.533   4.878 -0.1446  0.4308 -0.3005
 6042TIP3    H118132   4.599   1.599   4.922  0.6748  0.5121  0.5797
 6042TIP3    H218133   4.697   1.487   4.948  0.2459 -0.2564 -0.9824
 6043TIP3   OH218134   3.281   5.130   1.347 -0.4227 -0.0901  0.2614
 6043TIP3    H118135   3.233   5.048   1.331 -0.3832 -0.1420  0.4088
 6043TIP3    H218136   3.234   5.172   1.419 -2.3079  1.4878 -1.7207
 6044TIP3   OH218137   6.090   1.664   5.126 -0.1098 -0.7755  0.2618
 6044TIP3    H118138   6.161   1.599   5.133  0.3281 -0.1890  1.5137
 6044TIP3    H218139   6.017   1.623   5.172 -0.0370 -0.6512  0.4878
 6045TIP3   OH218140   2.527   5.711   0.390 -0.0255 -0.2681 -0.2877
 6045TIP3    H118141   2.506   5.797   0.426 -0.6918 -0.5153 -0.0603
 6045TIP3    H218142   2.494   5.713   0.301  0.2499 -0.1813 -0.3894
 6046TIP3   OH218143   2.637   4.847   3.089 -0.7611  0.4883 -0.2415
 6046TIP3    H118144   2.728   4.829   3.112 -1.1082 -0.7462  0.2998
 6046TIP3    H218145   2.629   4.942   3.091 -0.1979  0.5715  2.6271
 6047TIP3   OH218146   3.145   3.718   0.795 -0.2877  0.7616 -0.2772
 6047TIP3    H118147   3.235   3.739   0.772  0.1277 -0.7445 -0.1222
 6047TIP3    H218148   3.126   3.638   0.746 -1.4050  0.8469 -0.0038
 6048TIP3   OH218149   1.590   2.943   2.911  0.7321 -0.3995 -0.6086
 6048TIP3    H118150   1.561   2.873   2.970  0.6355  1.2022  1.3528
 6048TIP3    H218151   1.531   2.936   2.836 -0.3803 -1.3639  0.3098
 6049TIP3   OH218152   0.817   2.267   1.547 -0.3917  0.0710 -0.5453
 6049TIP3    H118153   0.805   2.218   1.629  0.8948 -0.4884 -0.6638
 6049TIP3    H218154   0.738   2.321   1.540 -0.5909  0.0494  0.9994
 6050TIP3   OH218155   3.096   1.924   4.893 -0.2852  0.6629  0.4422
 6050TIP3    H118156   3.108   2.008   4.848  0.6470  0.9784  1.2218
 6050TIP3    H218157   3.183   1.903   4.927 -0.4879 -0.6899  0.1585
 6051TIP3   OH218158   4.829   1.928   0.274  0.4454  0.4912 -0.1086
 6051TIP3    H118159   4.920   1.953   0.257 -0.0074  1.6044 -1.0309
 6051TIP3    H218160   4.785   2.011   0.294 -0.6527  0.1497 -1.0403
 6052TIP3   OH218161   1.214   3.829   2.020  0.0413 -0.2118 -0.1093
 6052TIP3    H118162   1.194   3.922   2.035  0.5962 -0.2668  1.0561
 6052TIP3    H218163   1.268   3.804   2.095 -0.7913 -1.6938  0.0187
 6053TIP3   OH218164   3.079   0.259   0.465  1.0164  0.1412 -0.4775
 6053TIP3    H118165   3.044   0.335   0.418  0.1736  0.4505  0.6052
 6053TIP3    H218166   3.109   0.200   0.396  0.7307  1.0053 -1.3667
 6054TIP3   OH218167   2.807   2.525   1.282  0.3046 -0.3387  0.6362
 6054TIP3    H118168   2.819   2.537   1.376 -2.3849  1.0068  0.9031
 6054TIP3    H218169   2.717   2.494   1.273 -0.1870  1.4615 -1.5882
 6055TIP3   OH218170   6.256   4.222   3.447 -0.0857  0.1950  0.1054
 6055TIP3    H118171   6.285   4.198   3.535  1.4458 -0.1180 -0.4557
 6055TIP3    H218172   6.161   4.211   3.449 -0.4601  2.8358  2.5089
 6056TIP3   OH218173   5.122   2.523   2.280 -0.1331 -0.3847 -0.0462
 6056TIP3    H118174   5.040   2.492   2.318 -0.8078  0.4689 -0.7538
 6056TIP3    H218175   5.096   2.592   2.220  0.9715 -1.1464 -1.4649
 6057TIP3   OH218176   0.297   5.152   3.931  0.7044 -0.0008 -0.4661
 6057TIP3    H118177   0.304   5.179   3.840  2.0348 -0.0907 -0.4049
 6057TIP3    H218178   0.203   5.157   3.950  0.3964 -0.0656 -1.8523
 6058TIP3   OH218179   5.269   2.153   2.622 -0.3327 -0.0607  0.1958
 6058TIP3    H118180   5.271   2.102   2.541 -2.0851 -2.2380  1.4030
 6058TIP3    H218181   5.205   2.222   2.605 -0.1974 -0.0935 -0.4772
 6059TIP3   OH218182   2.702   4.416   4.635 -0.3131 -0.1679  0.1154
 6059TIP3    H118183   2.619   4.371   4.619 -0.8025  1.3695 -2.2625
 6059TIP3    H218184   2.680   4.486   4.696 -0.1156 -1.4406  1.6995
 6060TIP3   OH218185   5.516   5.652   0.837  0.1212  0.1204  0.2546
 6060TIP3    H118186   5.549   5.717   0.775 -1.4026  1.3242  0.6381
 6060TIP3    H218187   5.531   5.691   0.923 -1.3347  0.2804  0.4695
 6061TIP3   OH218188   2.472   4.131   0.786 -0.1549 -0.1159 -0.1527
 6061TIP3    H118189   2.500   4.215   0.749  0.0112 -0.5501 -1.0613
 6061TIP3    H218190   2.550   4.076   0.780 -0.7451 -0.8757 -1.2762
 6062TIP3   OH218191   4.825   3.471   1.246  0.0740 -0.1399 -0.1909
 6062TIP3    H118192   4.832   3.467   1.150  0.1832 -1.0618 -0.1515
 6062TIP3    H218193   4.906   3.432   1.278  0.6160  1.3189  0.2962
 6063TIP3   OH218194   2.396   4.620   3.324  0.7449  0.9637 -0.1311
 6063TIP3    H118195   2.381   4.526   3.335 -0.7861  1.2976  0.9362
 6063TIP3    H218196   2.394   4.634   3.230  2.3574 -0.2569 -0.3937
 6064TIP3   OH218197   0.255   1.927   1.130 -0.3955 -0.7504 -0.4657
 6064TIP3    H118198   0.245   1.940   1.224  0.1074 -0.7970 -0.4036
 6064TIP3    H218199   0.180   1.872   1.105 -1.4809  0.6281 -0.3997
 6065TIP3   OH218200   4.610   0.547   3.850 -0.2980 -0.0477  0.2308
 6065TIP3    H118201   4.524   0.544   3.808 -0.1085  1.9269 -0.3873
 6065TIP3    H218202   4.609   0.626   3.903  1.1107 -0.0176  0.2572
 6066TIP3   OH218203   4.929   5.228   1.165  0.0797  0.2177  0.0772
 6066TIP3    H118204   4.920   5.317   1.129 -1.3316  0.2588  0.5046
 6066TIP3    H218205   4.860   5.221   1.230  0.8118 -0.8667  0.7703
 6067TIP3   OH218206   0.224   0.518   5.053 -0.2158  0.7882 -0.5010
 6067TIP3    H118207   0.273   0.578   5.109  0.8663  0.6584 -1.2678
 6067TIP3    H218208   0.290   0.484   4.992 -1.5122  1.7617 -2.5648
 6068TIP3   OH218209   2.164   1.626   3.204 -0.0503 -0.0989  0.3035
 6068TIP3    H118210   2.076   1.616   3.166  0.5007  0.9219 -1.3785
 6068TIP3    H218211   2.151   1.616   3.298 -2.3023  1.9742  0.3164
 6069TIP3   OH218212   3.376   4.374   2.535 -0.2581 -0.0920  0.3593
 6069TIP3    H118213   3.374   4.279   2.544 -1.0746 -0.0853  0.3625
 6069TIP3    H218214   3.354   4.389   2.443  0.3169  0.0838  0.2465
 6070TIP3   OH218215   4.424   5.497   4.150  0.3769 -0.0265 -0.3484
 6070TIP3    H118216   4.334   5.521   4.131  0.3846  2.9256  2.4236
 6070TIP3    H218217   4.417   5.431   4.219  0.3816 -0.9819 -1.2415
 6071TIP3   OH218218   3.450   0.622   1.619  0.2675  0.2364 -0.2848
 6071TIP3    H118219   3.405   0.707   1.622 -0.2839 -0.0508 -0.4369
 6071TIP3    H218220   3.525   0.637   1.561 -0.5319  0.2805 -1.3219
 6072TIP3   OH218221   3.676   3.551   0.311  0.2603  0.3995  0.1015
 6072TIP3    H118222   3.595   3.501   0.308  1.1757 -1.1872  0.7809
 6072TIP3    H218223   3.745   3.487   0.296  1.5149  1.3513  1.4608
 6073TIP3   OH218224   6.017   5.653   2.165  0.4702 -0.3611  0.0686
 6073TIP3    H118225   6.026   5.744   2.193 -2.7700  0.4804 -1.1212
 6073TIP3    H218226   6.106   5.617   2.168  1.4209  1.8711  3.5511
 6074TIP3   OH218227   1.941   3.973   1.285 -0.3839  0.3433 -0.4628
 6074TIP3    H118228   1.863   3.970   1.230 -0.0639  0.4163 -0.9267
 6074TIP3    H218229   1.909   3.949   1.372 -0.7306 -0.7580 -0.8658
 6075TIP3   OH218230   0.845   2.673   4.758  0.1442  0.1330  0.5939
 6075TIP3    H118231   0.761   2.643   4.791  1.2986 -0.8822  2.7685
 6075TIP3    H218232   0.898   2.691   4.836  2.0566  0.4421 -0.6879
 6076TIP3   OH218233   2.298   4.620   4.742  0.2807  0.2603 -0.4290
 6076TIP3    H118234   2.348   4.581   4.670 -1.8654  1.3026 -2.6187
 6076TIP3    H218235   2.311   4.715   4.732 -2.5145  0.6375 -1.5363
 6077TIP3   OH218236   4.405   4.696   4.071 -0.1913  0.9307  0.5152
 6077TIP3    H118237   4.343   4.623   4.067 -0.2042  0.8158  2.1569
 6077TIP3    H218238   4.474   4.665   4.129  0.1654  1.9652  0.6621
 6078TIP3   OH218239   0.213   3.340   1.047  0.3664 -0.2221  0.0626
 6078TIP3    H118240   0.175   3.343   1.135  0.2861 -0.0727  0.0225
 6078TIP3    H218241   0.138   3.349   0.988  0.5955  1.6499 -0.0103
 6079TIP3   OH218242   3.059   5.929   1.023  0.4956 -0.6786 -0.3950
 6079TIP3    H118243   3.009   5.976   0.957  1.9887  0.4821 -0.7500
 6079TIP3    H218244   3.125   5.881   0.973  0.3702 -1.4157  0.1254
 6080TIP3   OH218245   1.605   5.648   1.214 -0.0258 -1.1969  0.1149
 6080TIP3    H118246   1.593   5.728   1.163 -1.4444 -1.1465  0.4977
 6080TIP3    H218247   1.573   5.578   1.158 -1.4392 -1.1585  0.8433
 6081TIP3   OH218248   0.271   5.615   2.507  0.1397 -0.2934  0.0466
 6081TIP3    H118249   0.360   5.590   2.531  0.7409  1.4395 -0.2644
 6081TIP3    H218250   0.274   5.626   2.412 -0.7114 -1.2639 -0.1192
 6082TIP3   OH218251   4.810   1.488   3.906  0.5600 -0.5090  0.0834
 6082TIP3    H118252   4.757   1.454   3.978  1.2639  0.3274  1.0306
 6082TIP3    H218253   4.831   1.411   3.853 -1.0565 -0.9381  0.0315
 6083TIP3   OH218254   0.631   4.020   3.025 -0.0787  1.0329  0.4631
 6083TIP3    H118255   0.585   3.968   3.092  1.8810 -0.2117  0.9388
 6083TIP3    H218256   0.602   3.983   2.942  0.3870 -0.0690  0.7703
 6084TIP3   OH218257   6.093   4.974   2.346 -0.3193 -1.0750  0.1875
 6084TIP3    H118258   6.158   5.044   2.344 -0.8985 -0.5472 -0.9395
 6084TIP3    H218259   6.067   4.969   2.438 -1.1842  1.0660  0.1100
 6085TIP3   OH218260   5.967   4.840   1.917 -0.5990  0.0694 -0.4841
 6085TIP3    H118261   5.980   4.863   2.010  0.8155  2.7191 -1.2145
 6085TIP3    H218262   5.872   4.833   1.908 -0.8246  0.6335  1.0160
 6086TIP3   OH218263   2.947   5.290   4.776  0.0235 -0.2693 -0.0065
 6086TIP3    H118264   2.904   5.209   4.803 -1.0062  0.3362  0.2138
 6086TIP3    H218265   3.041   5.270   4.780 -0.2220 -1.8877 -1.3457
 6087TIP3   OH218266   0.794   0.407   4.424 -0.4539 -0.4602 -0.8791
 6087TIP3    H118267   0.731   0.411   4.353 -0.7970 -1.1692 -0.6164
 6087TIP3    H218268   0.748   0.362   4.495  0.8061 -2.3159 -1.1787
 6088TIP3   OH218269   2.874   0.254   2.688  0.3781 -0.4216  0.1491
 6088TIP3    H118270   2.857   0.309   2.612  0.5880 -2.1369 -1.2080
 6088TIP3    H218271   2.886   0.316   2.760 -0.9821  1.2111 -0.9539
 6089TIP3   OH218272   5.017   4.078   3.215 -0.3437 -0.1813 -0.2318
 6089TIP3    H118273   4.964   4.021   3.270  1.1334 -0.6362  0.7740
 6089TIP3    H218274   5.099   4.029   3.202  0.7092  1.4205  0.1373
 6090TIP3   OH218275   4.619   5.247   1.874 -0.0509  0.2421  0.4941
 6090TIP3    H118276   4.600   5.173   1.932 -0.1904 -0.1656 -0.0678
 6090TIP3    H218277   4.534   5.288   1.859  0.0534  0.6316  0.9563
 6091TIP3   OH218278   2.990   3.397   1.790 -0.4535 -0.2392 -0.2692
 6091TIP3    H118279   3.000   3.472   1.731  1.3414  0.8929  1.3457
 6091TIP3    H218280   2.913   3.419   1.843 -0.3386  0.1548 -0.2581
 6092TIP3   OH218281   3.632   1.208   4.329  0.1505  0.7389 -0.8672
 6092TIP3    H118282   3.636   1.190   4.423  0.2271  0.3228 -0.9488
 6092TIP3    H218283   3.709   1.261   4.312  0.6011  0.1028 -0.8446
 6093TIP3   OH218284   5.284   0.231   3.464  0.3105  0.1125 -0.4150
 6093TIP3    H118285   5.306   0.144   3.497  0.1798  0.8218  1.6596
 6093TIP3    H218286   5.264   0.282   3.542 -0.3809  1.8094 -1.6457
 6094TIP3   OH218287   0.919   4.966   3.170 -0.3790  0.2243  0.2152
 6094TIP3    H118288   0.944   5.044   3.121  0.7658  0.3320  0.9313
 6094TIP3    H218289   0.826   4.956   3.153  0.0558 -0.0724 -2.4273
 6095TIP3   OH218290   3.445   1.963   3.649 -0.1111  0.0510 -0.3178
 6095TIP3    H118291   3.379   1.894   3.644  0.6929 -0.7783  0.1754
 6095TIP3    H218292   3.483   1.954   3.737 -0.2564  1.3739 -0.0990
 6096TIP3   OH218293   5.049   1.975   1.084  0.1789  0.0658  0.1055
 6096TIP3    H118294   5.127   1.967   1.139 -0.1819 -0.3913  0.5640
 6096TIP3    H218295   4.976   1.955   1.143 -0.1731 -1.0915 -0.6923
 6097TIP3   OH218296   1.018   1.017   2.401 -0.1591 -0.2043 -0.2597
 6097TIP3    H118297   1.071   0.939   2.415 -0.7348 -0.2648  2.0198
 6097TIP3    H218298   1.070   1.071   2.342  1.2126 -1.3971 -0.2040
 6098TIP3   OH218299   5.098   5.688   3.424 -0.7029 -0.4611 -0.3593
 6098TIP3    H118300   5.129   5.775   3.397  0.6056 -0.4202  1.1199
 6098TIP3    H218301   5.070   5.646   3.342  3.4302 -0.5382 -1.9685
 6099TIP3   OH218302   6.299   2.365   2.808  0.3040 -0.3009  0.1260
 6099TIP3    H118303   6.352   2.393   2.733 -1.2309 -1.0987 -1.3266
 6099TIP3    H218304   6.346   2.289   2.843 -0.4305 -1.7921 -1.9206
 6100TIP3   OH218305   4.308   2.302   2.930  0.2452  0.1595  0.0767
 6100TIP3    H118306   4.334   2.279   3.019  2.3606 -0.1778 -0.5758
 6100TIP3    H218307   4.318   2.220   2.880 -0.2765  0.5045 -0.6132
 6101TIP3   OH218308   5.342   4.955   3.537  0.3556 -0.2416 -0.0962
 6101TIP3    H118309   5.374   5.027   3.590 -0.9678 -0.7924  1.5694
 6101TIP3    H218310   5.250   4.975   3.521  0.4271 -0.6836 -1.1953
 6102TIP3   OH218311   3.685   1.024   3.299 -0.0306 -0.3562 -0.5459
 6102TIP3    H118312   3.747   0.957   3.271 -1.1936 -1.2089 -1.1801
 6102TIP3    H218313   3.659   0.996   3.387  2.4020  1.4442  0.8810
 6103TIP3   OH218314   1.023   4.416   0.534 -0.3597  0.0798 -0.3422
 6103TIP3    H118315   1.075   4.434   0.455 -1.8024  0.0671 -1.3316
 6103TIP3    H218316   0.964   4.346   0.508  0.4739 -1.3283  1.3860
 6104TIP3   OH218317   5.510   3.785   0.590 -0.1972 -0.4180 -0.8295
 6104TIP3    H118318   5.576   3.785   0.659 -0.0468 -0.0024 -0.9703
 6104TIP3    H218319   5.444   3.848   0.619  1.1419  1.7926 -2.2397
 6105TIP3   OH218320   4.902   4.338   1.526 -0.1391 -0.4658  0.2383
 6105TIP3    H118321   4.955   4.264   1.556  0.8439  0.5005  0.9439
 6105TIP3    H218322   4.881   4.387   1.605 -0.3237  0.2971 -0.2700
 6106TIP3   OH218323   4.261   5.992   4.507 -0.9419 -0.1470 -0.4494
 6106TIP3    H118324   4.192   5.955   4.562 -0.9637 -0.6097 -0.7850
 6106TIP3    H218325   4.332   5.928   4.511 -0.5697  0.2738 -0.1946
 6107TIP3   OH218326   1.334   1.509   2.195  0.4912 -0.3721 -0.2094
 6107TIP3    H118327   1.285   1.454   2.134 -0.4462 -0.8718  0.9403
 6107TIP3    H218328   1.334   1.596   2.155  0.5033 -0.8343 -1.2389
 6108TIP3   OH218329   3.351   0.220   4.066 -0.1324 -0.4451 -0.1986
 6108TIP3    H118330   3.333   0.314   4.056  1.9770 -0.0429 -0.6442
 6108TIP3    H218331   3.441   0.216   4.097  0.2130 -2.3667 -1.3100
 6109TIP3   OH218332   6.081   5.782   3.245 -0.1283  0.7739  0.1396
 6109TIP3    H118333   6.056   5.800   3.155  0.6109  0.3906 -0.1499
 6109TIP3    H218334   6.000   5.789   3.295 -0.6591  0.3699 -0.6501
 6110TIP3   OH218335   5.662   0.726   3.195 -0.3688  0.3010  0.0165
 6110TIP3    H118336   5.735   0.708   3.136  0.7864  1.6163  1.0034
 6110TIP3    H218337   5.585   0.728   3.138  0.3601 -0.9337 -1.0617
 6111TIP3   OH218338   3.973   0.165   0.701  0.8862  0.1118  0.6858
 6111TIP3    H118339   3.915   0.107   0.651  1.8591  1.3831 -2.1046
 6111TIP3    H218340   3.918   0.198   0.772 -1.4736  0.3379 -1.1217
 6112TIP3   OH218341   4.003   3.144   3.745 -0.9739  0.2024 -0.3848
 6112TIP3    H118342   4.017   3.054   3.718 -0.6334 -0.2166  1.0934
 6112TIP3    H218343   4.075   3.193   3.704 -1.8599  0.0618 -2.2083
 6113TIP3   OH218344   1.094   3.894   2.964  0.1455 -0.4542 -0.6305
 6113TIP3    H118345   1.098   3.956   2.891 -2.5185  0.6639  0.0402
 6113TIP3    H218346   1.030   3.828   2.935 -1.4272  0.3475  0.8711
 6114TIP3   OH218347   6.316   2.900   4.272 -0.0064  0.6972  0.2320
 6114TIP3    H118348   6.307   2.968   4.205  0.5815 -0.0219 -0.5925
 6114TIP3    H218349   6.329   2.949   4.353 -3.7652  1.6817  0.4127
 6115TIP3   OH218350   2.713   1.207   5.119  0.3954  0.0796 -0.3950
 6115TIP3    H118351   2.672   1.236   5.037 -0.6995 -0.3824 -0.0334
 6115TIP3    H218352   2.711   1.111   5.114  1.0238  0.0556 -0.1668
 6116TIP3   OH218353   2.507   1.430   1.491  0.3413  0.5380 -0.0996
 6116TIP3    H118354   2.518   1.432   1.586  1.9207  1.2053 -0.2508
 6116TIP3    H218355   2.543   1.346   1.465 -0.6175  0.1121 -0.0637
 6117TIP3   OH218356   0.129   0.222   2.799  0.2080  0.5472  0.1309
 6117TIP3    H118357   0.108   0.198   2.889  1.0490 -2.3276 -0.3190
 6117TIP3    H218358   0.201   0.284   2.807  0.8452 -0.3101  1.4707
 6118TIP3   OH218359   3.154   1.492   1.591  0.0309 -0.0220  0.4249
 6118TIP3    H118360   3.091   1.447   1.647 -0.1620 -0.9153 -0.4711
 6118TIP3    H218361   3.134   1.461   1.503  1.9619 -0.6766  0.1475
 6119TIP3   OH218362   2.910   2.563   0.696  0.2868  0.1747 -0.0962
 6119TIP3    H118363   2.881   2.503   0.764 -0.0965 -0.4852 -0.8383
 6119TIP3    H218364   2.997   2.531   0.670  0.5150  0.5375  0.2065
 6120TIP3   OH218365   1.033   0.556   4.410  0.2426 -0.1667 -0.2362
 6120TIP3    H118366   0.942   0.532   4.391 -0.3291 -1.3019  3.1976
 6120TIP3    H218367   1.027   0.616   4.484  2.2906 -0.7944  0.5109
 6121TIP3   OH218368   5.869   4.573   2.374 -0.1749 -0.5939 -0.1899
 6121TIP3    H118369   5.810   4.508   2.413  1.6713 -2.0345  0.3776
 6121TIP3    H218370   5.883   4.541   2.285 -0.8664  0.2054 -0.5971
 6122TIP3   OH218371   2.271   2.244   4.157 -0.1467  0.4611 -0.0851
 6122TIP3    H118372   2.193   2.191   4.142  0.6144 -0.0521 -2.6082
 6122TIP3    H218373   2.330   2.187   4.207 -0.4799 -0.0075 -0.2250
 6123TIP3   OH218374   0.052   4.099   2.316  0.6615  0.3121  0.0563
 6123TIP3    H118375   0.042   4.151   2.396 -0.1830  0.4210 -0.1107
 6123TIP3    H218376  -0.036   4.066   2.298  1.0926 -0.8104 -0.0945
 6124TIP3   OH218377   2.770   1.250   2.727 -0.5360  1.0819 -0.9893
 6124TIP3    H118378   2.690   1.197   2.725 -0.0288  0.1938  0.2743
 6124TIP3    H218379   2.818   1.223   2.649 -0.5000 -0.0190 -0.6140
 6125TIP3   OH218380   6.186   2.454   0.809 -0.6883 -0.2438  0.4546
 6125TIP3    H118381   6.224   2.367   0.797  1.6252  0.4311  2.2034
 6125TIP3    H218382   6.224   2.507   0.739 -1.1537 -0.3395  0.1226
 6126TIP3   OH218383   1.963   0.433   2.770  0.3205  0.1401 -0.1882
 6126TIP3    H118384   1.925   0.463   2.853 -2.4014 -0.1042 -1.2739
 6126TIP3    H218385   1.972   0.513   2.718  2.3450  0.3423  0.3754
 6127TIP3   OH218386   1.193   4.347   2.815 -1.2938 -0.0541 -0.0592
 6127TIP3    H118387   1.147   4.304   2.887 -3.7804  0.2173 -1.3670
 6127TIP3    H218388   1.143   4.324   2.737 -0.0504  1.5128 -1.4071
 6128TIP3   OH218389   4.563   5.747   4.072  0.4025 -0.3530 -0.2208
 6128TIP3    H118390   4.605   5.694   4.004 -0.8039 -0.4407 -0.9337
 6128TIP3    H218391   4.503   5.687   4.116 -0.3336  0.1785 -0.4589
 6129TIP3   OH218392   4.919   0.022   1.604 -0.1721  0.2784 -0.1921
 6129TIP3    H118393   4.954   0.045   1.690  0.5782 -0.2469 -0.3381
 6129TIP3    H218394   4.994   0.031   1.545 -0.6175  0.3891 -0.7476
 6130TIP3   OH218395   4.582   1.465   3.575  0.2320 -0.4456 -0.4135
 6130TIP3    H118396   4.564   1.500   3.488  0.3433 -1.2161 -0.7548
 6130TIP3    H218397   4.602   1.542   3.628  0.0865  0.0393 -1.0473
 6131TIP3   OH218398   1.299   1.768   4.391  0.9304 -0.6577  0.1711
 6131TIP3    H118399   1.336   1.855   4.404  2.8708 -1.6904  2.0160
 6131TIP3    H218400   1.287   1.762   4.296  2.5849  0.8966 -0.1894
 6132TIP3   OH218401   1.628   1.506   1.267  0.2948  0.2251 -0.0469
 6132TIP3    H118402   1.591   1.526   1.353  0.9088  1.1250  0.0197
 6132TIP3    H218403   1.701   1.447   1.286  0.9497  1.0812  0.1373
 6133TIP3   OH218404   3.187   0.683   2.573 -0.6778  0.2173  0.1789
 6133TIP3    H118405   3.123   0.664   2.504 -0.6663  0.8596 -0.0162
 6133TIP3    H218406   3.249   0.610   2.569 -0.6584  0.2627 -0.5091
 6134TIP3   OH218407   3.536   2.717   0.389 -0.0820 -0.3145 -0.2381
 6134TIP3    H118408   3.573   2.788   0.337 -1.3555  0.4192 -0.1862
 6134TIP3    H218409   3.507   2.652   0.324  0.1720 -0.3324 -0.3346
 6135TIP3   OH218410   5.471   5.944   3.911 -0.1872 -0.5930 -0.2245
 6135TIP3    H118411   5.520   5.887   3.972 -0.1325 -0.7343 -0.3989
 6135TIP3    H218412   5.480   6.032   3.948  0.0037 -0.6518 -0.1286
 6136TIP3   OH218413   5.819   3.503   4.465  0.5221 -0.2743  0.2492
 6136TIP3    H118414   5.886   3.499   4.533 -0.0554 -0.3359  0.8273
 6136TIP3    H218415   5.868   3.518   4.384  1.1396  1.1984  0.8449
 6137TIP3   OH218416   2.597   1.060   0.794 -0.8471  0.6718 -0.4269
 6137TIP3    H118417   2.597   1.003   0.718  1.0633 -0.5934  0.4335
 6137TIP3    H218418   2.649   1.013   0.859 -0.0639  2.9268  0.6918
 6138TIP3   OH218419   4.256   1.015   0.046 -0.1537 -0.4005  0.2994
 6138TIP3    H118420   4.184   1.028   0.108  0.7585  0.4412  1.2186
 6138TIP3    H218421   4.225   1.055  -0.035 -1.4081 -1.6043  0.1308
 6139TIP3   OH218422   4.830   3.859   5.117  0.0837 -0.7382  0.7488
 6139TIP3    H118423   4.890   3.793   5.084 -0.9668 -0.6819 -1.4639
 6139TIP3    H218424   4.886   3.929   5.149  1.3139 -0.2002 -2.2424
 6140TIP3   OH218425   0.543   3.572   2.241  0.0434 -0.3519 -0.0986
 6140TIP3    H118426   0.560   3.514   2.314  0.1063 -0.4041 -0.1547
 6140TIP3    H218427   0.594   3.536   2.169  1.1292  0.5108  0.2167
 6141TIP3   OH218428   6.232   2.534   1.094 -0.6165 -0.3060  0.6745
 6141TIP3    H118429   6.316   2.550   1.137 -0.3513 -1.2380  0.5320
 6141TIP3    H218430   6.230   2.594   1.020  0.1539 -0.6316  0.3849
 6142TIP3   OH218431   0.246   4.153   3.335  0.3253  0.2519 -0.0118
 6142TIP3    H118432   0.205   4.083   3.387 -1.0469  0.3204 -0.9495
 6142TIP3    H218433   0.191   4.229   3.350  2.4158  1.5137  1.8595
 6143TIP3   OH218434   0.322   2.305   0.587 -0.9349 -0.3044 -0.5446
 6143TIP3    H118435   0.294   2.273   0.501 -0.3180 -0.6694 -0.6130
 6143TIP3    H218436   0.297   2.236   0.648  2.1087 -1.9090 -0.9195
 6144TIP3   OH218437   1.373   3.746   2.238 -0.0030  1.3697 -0.3502
 6144TIP3    H118438   1.447   3.785   2.283  1.3266 -1.5926  0.3136
 6144TIP3    H218439   1.412   3.688   2.173 -1.6922 -0.3732  0.0819
 6145TIP3   OH218440   1.517   5.290   1.978  0.4446 -0.6142 -0.7023
 6145TIP3    H118441   1.500   5.227   1.909  1.8401  0.8173 -2.4758
 6145TIP3    H218442   1.488   5.374   1.942  0.6134  0.0965  0.7140
 6146TIP3   OH218443   0.551   0.263   2.918 -0.5585 -0.1570  0.0732
 6146TIP3    H118444   0.513   0.293   2.836 -0.2070 -0.7706 -0.3177
 6146TIP3    H218445   0.511   0.178   2.933 -1.1487  0.2506  0.9045
 6147TIP3   OH218446   1.061   2.698   1.196  0.4312 -0.1474 -0.2587
 6147TIP3    H118447   1.019   2.691   1.282  1.0280  0.2535  0.0719
 6147TIP3    H218448   0.988   2.706   1.134 -0.0284 -1.1140  0.1327
 6148TIP3   OH218449   2.580   0.334   4.385  0.0941  0.0202  0.7962
 6148TIP3    H118450   2.588   0.327   4.290  0.9022  0.5644  0.8134
 6148TIP3    H218451   2.489   0.311   4.403  0.3729 -1.7483  0.0682
 6149TIP3   OH218452   6.090   1.266   3.926 -0.2468 -0.2509 -0.1043
 6149TIP3    H118453   6.007   1.219   3.932  0.0583 -0.7337  0.3260
 6149TIP3    H218454   6.065   1.354   3.895 -1.0748  0.0634  1.3733
 6150TIP3   OH218455   4.436   4.655   0.567  0.3534 -0.1722  0.1453
 6150TIP3    H118456   4.399   4.633   0.482  0.6732 -0.5090  0.0889
 6150TIP3    H218457   4.361   4.659   0.626  0.1729 -0.3373 -0.0718
 6151TIP3   OH218458   3.353   2.855   4.798  0.0453 -0.2080 -0.3227
 6151TIP3    H118459   3.333   2.873   4.889 -0.0109  1.2407 -0.5969
 6151TIP3    H218460   3.408   2.776   4.800  0.5673  0.1743  0.9900
 6152TIP3   OH218461   4.100   4.946   3.169  0.0624 -0.4122 -0.8646
 6152TIP3    H118462   4.130   4.891   3.241  0.0777 -1.0600 -1.3517
 6152TIP3    H218463   4.180   4.991   3.139 -0.4343  2.3784  1.5458
 6153TIP3   OH218464   0.472   3.209   2.885  0.8111  0.0271  0.5418
 6153TIP3    H118465   0.424   3.147   2.941 -0.2210  2.8961  3.1185
 6153TIP3    H218466   0.415   3.222   2.809  0.5082 -1.2438  0.5269
 6154TIP3   OH218467   3.734   1.967   4.869  0.0891 -0.6753 -0.6377
 6154TIP3    H118468   3.780   1.915   4.802 -0.2074 -1.0729 -0.5358
 6154TIP3    H218469   3.641   1.953   4.850  0.0015 -1.0069  0.0222
 6155TIP3   OH218470   3.353   1.226   2.277 -0.1041  0.3622 -0.2237
 6155TIP3    H118471   3.335   1.240   2.370  2.0121  1.3002  0.1035
 6155TIP3    H218472   3.374   1.313   2.243  2.3221 -0.3756 -0.7964
 6156TIP3   OH218473   0.106   2.991   0.182  0.0448 -0.1478  0.3404
 6156TIP3    H118474   0.085   3.050   0.109  0.3680  0.7798  0.9788
 6156TIP3    H218475   0.121   3.049   0.256  0.3131 -1.0494  1.0103
 6157TIP3   OH218476   0.659   5.226   4.168  0.6937 -0.2613 -0.1629
 6157TIP3    H118477   0.601   5.300   4.189 -0.2349 -0.7136 -1.0160
 6157TIP3    H218478   0.604   5.167   4.117  2.3150 -0.0455 -2.2672
 6158TIP3   OH218479   5.001   5.270   2.423 -0.1831 -0.4962 -0.4300
 6158TIP3    H118480   5.038   5.242   2.507 -1.3839  1.7980  0.9759
 6158TIP3    H218481   5.077   5.283   2.367  0.9301  0.6173  1.2231
 6159TIP3   OH218482   2.765   0.047   3.870 -0.0199  0.0789 -0.3558
 6159TIP3    H118483   2.695  -0.018   3.877 -0.2878  0.4591  0.7123
 6159TIP3    H218484   2.743   0.098   3.792 -0.4622 -0.3489 -0.5141
 6160TIP3   OH218485   4.396   5.836   1.875 -0.3043  0.4879 -0.2066
 6160TIP3    H118486   4.394   5.874   1.963 -0.2587  0.7046 -0.3000
 6160TIP3    H218487   4.485   5.853   1.844 -0.4915  0.9178 -0.5202
 6161TIP3   OH218488   0.522   1.715   1.384 -0.4407  0.3853 -0.0622
 6161TIP3    H118489   0.492   1.761   1.462 -0.3214  1.3169 -0.5600
 6161TIP3    H218490   0.616   1.736   1.378 -0.3765  0.0497 -0.2720
 6162TIP3   OH218491   5.692   2.962   1.365 -0.6001  0.3484 -0.1297
 6162TIP3    H118492   5.697   3.055   1.344 -1.4711  0.5429  0.4505
 6162TIP3    H218493   5.761   2.948   1.429 -0.1082  0.4711 -0.6268
 6163TIP3   OH218494   1.218   3.095   0.884 -0.1678 -0.2924  0.1557
 6163TIP3    H118495   1.272   3.157   0.935  0.5741 -1.1513  0.4432
 6163TIP3    H218496   1.148   3.070   0.944 -0.5576  0.3817 -0.0138
 6164TIP3   OH218497   3.800   2.220   3.239 -0.5263  0.2879  0.3145
 6164TIP3    H118498   3.738   2.249   3.306 -0.1007  0.8564  0.4709
 6164TIP3    H218499   3.863   2.291   3.232 -0.7892  0.4154 -0.9854
 6165TIP3   OH218500   3.820   0.795   2.428 -0.0585 -0.2789 -0.3611
 6165TIP3    H118501   3.874   0.749   2.364  0.8260  2.0156 -1.3525
 6165TIP3    H218502   3.882   0.846   2.480 -1.0678  0.5767  0.0299
 6166TIP3   OH218503   3.927   2.688   4.029 -0.2339  0.8762  0.2239
 6166TIP3    H118504   3.878   2.610   4.055  1.0197  0.7368  2.4495
 6166TIP3    H218505   3.966   2.665   3.945 -0.0292 -0.8763  0.7455
 6167TIP3   OH218506   2.620   4.960   0.583 -0.1787 -0.3520  0.0635
 6167TIP3    H118507   2.604   4.877   0.539 -1.7272 -1.4027  2.3922
 6167TIP3    H218508   2.643   4.935   0.673 -0.6152  1.7043  0.8034
 6168TIP3   OH218509   3.220   5.614   1.507  0.0574  0.5064  0.6102
 6168TIP3    H118510   3.146   5.627   1.447  1.1876 -2.4388 -1.6272
 6168TIP3    H218511   3.181   5.578   1.586 -1.0905  0.9506  0.2650
 6169TIP3   OH218512   4.648   3.244   1.108 -0.0689 -0.0508 -0.4343
 6169TIP3    H118513   4.723   3.185   1.115 -0.0633  0.0350  0.2571
 6169TIP3    H218514   4.624   3.240   1.015  0.6584 -0.2379 -0.6252
 6170TIP3   OH218515   6.093   2.410   4.744  0.0912 -0.2114 -0.0149
 6170TIP3    H118516   6.042   2.406   4.663  0.7652 -0.6439 -0.4389
 6170TIP3    H218517   6.052   2.345   4.802 -1.2340  1.0600  0.5190
 6171TIP3   OH218518   4.622   0.962   1.600  0.2714 -0.0453  0.0976
 6171TIP3    H118519   4.606   1.044   1.647 -1.2037 -0.2808  0.0416
 6171TIP3    H218520   4.535   0.924   1.588  0.7211 -0.5504 -1.8384
 6172TIP3   OH218521   2.423   4.184   2.623 -0.5296  0.2131  0.2592
 6172TIP3    H118522   2.453   4.259   2.572 -1.5660 -0.1366 -0.9096
 6172TIP3    H218523   2.401   4.118   2.558  0.3117 -1.1089  1.2764
 6173TIP3   OH218524   3.116   4.516   0.405  0.5508 -0.1785  0.1207
 6173TIP3    H118525   3.020   4.520   0.409  0.5564  1.0930 -0.5657
 6173TIP3    H218526   3.135   4.435   0.358 -0.3093  0.9268 -2.3075
 6174TIP3   OH218527   0.261   5.807   3.690  0.0881  0.3924  0.6026
 6174TIP3    H118528   0.213   5.864   3.630 -1.0710 -0.4169  0.7394
 6174TIP3    H218529   0.256   5.851   3.774 -2.3040 -0.6897  1.0898
 6175TIP3   OH218530   1.707   1.918   2.742  0.1961  0.2889 -0.0003
 6175TIP3    H118531   1.616   1.893   2.754 -0.3359  1.5093 -1.1888
 6175TIP3    H218532   1.705   1.985   2.673  2.0683 -0.2439 -0.6490
 6176TIP3   OH218533   4.991   4.907   1.575 -0.5039 -0.4360 -0.0133
 6176TIP3    H118534   4.998   4.838   1.640 -2.1144 -0.8772 -0.2482
 6176TIP3    H218535   4.955   4.982   1.623 -0.8260 -0.4706 -0.1954
 6177TIP3   OH218536   2.316   5.505   0.180  0.3205 -0.2628 -0.0198
 6177TIP3    H118537   2.288   5.466   0.263  0.4036  0.2957  0.2720
 6177TIP3    H218538   2.247   5.569   0.159 -0.1468 -1.0052 -0.8215
 6178TIP3   OH218539   3.771   2.977   0.608  0.5429 -0.1357  0.2752
 6178TIP3    H118540   3.729   2.990   0.523  0.0051 -1.3935  0.3279
 6178TIP3    H218541   3.699   2.975   0.670  0.2989 -4.2913  0.1609
 6179TIP3   OH218542   2.786   2.643   4.454  0.1479  0.0496 -0.1193
 6179TIP3    H118543   2.767   2.550   4.461 -0.9120  0.2197 -0.5190
 6179TIP3    H218544   2.847   2.649   4.380 -1.5295 -0.1548 -1.6185
 6180TIP3   OH218545   1.437   3.705   4.973 -0.3269 -0.2206  0.1178
 6180TIP3    H118546   1.350   3.664   4.974 -0.9654  1.0828  1.6612
 6180TIP3    H218547   1.432   3.768   4.901  0.1691 -1.7386 -1.3095
 6181TIP3   OH218548   4.117   1.479   0.494  0.3225 -0.5569  0.0624
 6181TIP3    H118549   4.198   1.433   0.469  0.8100  0.7564 -0.8900
 6181TIP3    H218550   4.066   1.413   0.541  1.2622 -1.8903 -0.7090
 6182TIP3   OH218551   2.937   4.134   1.279 -0.4365  0.2611  0.3206
 6182TIP3    H118552   2.966   4.076   1.208 -0.0923  0.0949  0.5882
 6182TIP3    H218553   2.843   4.118   1.287 -0.4032 -0.0161  0.1673
 6183TIP3   OH218554   2.036   4.697   0.915  0.3252 -0.0119 -0.0300
 6183TIP3    H118555   1.978   4.743   0.975 -0.2634 -1.7814  0.8213
 6183TIP3    H218556   2.056   4.614   0.959  1.1336 -0.6926 -1.5944
 6184TIP3   OH218557   5.375   4.830   0.636 -1.0645 -0.4174 -0.3080
 6184TIP3    H118558   5.382   4.914   0.680 -1.0593 -0.5633 -0.0289
 6184TIP3    H218559   5.287   4.799   0.657 -0.8319 -0.7903  0.1518
 6185TIP3   OH218560   6.014   4.497   2.579 -0.2666 -0.2407  0.1775
 6185TIP3    H118561   6.054   4.411   2.577  0.0773 -0.0643 -0.8590
 6185TIP3    H218562   5.973   4.508   2.493 -0.5709  0.5038  0.4020
 6186TIP3   OH218563   4.943   0.348   0.770 -0.6892 -0.2429 -0.0288
 6186TIP3    H118564   4.922   0.424   0.824  0.1380  2.6487 -3.4053
 6186TIP3    H218565   5.038   0.339   0.776 -0.8698 -1.8172  1.1831
 6187TIP3   OH218566   2.273   2.211   0.049  0.9914  0.5482 -0.3369
 6187TIP3    H118567   2.294   2.180  -0.039 -0.4592 -0.1979 -0.4588
 6187TIP3    H218568   2.272   2.306   0.041  0.1097  0.4860 -1.3572
 6188TIP3   OH218569   2.697   0.205   0.569 -0.2289  0.1928 -0.1570
 6188TIP3    H118570   2.770   0.218   0.630 -0.5725  0.1067  0.2720
 6188TIP3    H218571   2.625   0.255   0.606 -0.6210 -0.3644 -0.1632
 6189TIP3   OH218572   5.544   1.829   2.610  0.2122  0.1817 -0.3953
 6189TIP3    H118573   5.529   1.909   2.660  1.3609 -0.4554  1.0505
 6189TIP3    H218574   5.541   1.856   2.519  0.9617  1.9490  0.0749
 6190TIP3   OH218575   0.688   5.331   0.552 -0.6725 -0.1857 -0.1053
 6190TIP3    H118576   0.719   5.271   0.484  0.6240 -0.0396  0.3215
 6190TIP3    H218577   0.736   5.304   0.631  0.2683  1.6290  0.0011
 6191TIP3   OH218578   0.868   4.807   1.791  0.6076  0.0106  0.1787
 6191TIP3    H118579   0.930   4.770   1.728  0.7322  0.8099 -0.1918
 6191TIP3    H218580   0.886   4.902   1.789  0.2515  0.1097  1.0250
 6192TIP3   OH218581   4.300   5.704   1.135  0.1536 -0.0118 -0.2683
 6192TIP3    H118582   4.326   5.732   1.223  0.9884 -0.3515 -0.3953
 6192TIP3    H218583   4.257   5.620   1.149 -2.1528  1.1496  0.0895
 6193TIP3   OH218584   5.731   1.699   4.318 -0.3652  0.2244  0.3348
 6193TIP3    H118585   5.697   1.659   4.398 -0.6398  0.3660  0.2918
 6193TIP3    H218586   5.809   1.648   4.297 -1.4645 -1.1915 -0.4824
 6194TIP3   OH218587   2.491   3.579   3.027  0.0153 -0.2155  0.0788
 6194TIP3    H118588   2.578   3.616   3.040 -0.1653  0.4194 -0.4392
 6194TIP3    H218589   2.455   3.568   3.115 -0.2089  1.5472  0.2440
 6195TIP3   OH218590   5.997   2.509   2.869  0.0643 -0.5221  0.2073
 6195TIP3    H118591   5.942   2.474   2.799 -0.9423 -0.3009  0.8816
 6195TIP3    H218592   6.033   2.590   2.832 -0.3658 -0.4653 -0.0975
 6196TIP3   OH218593   3.411   3.326   2.142  0.4281  0.4468  0.3105
 6196TIP3    H118594   3.383   3.236   2.125  0.0095  0.6866 -0.3075
 6196TIP3    H218595   3.383   3.375   2.065 -0.6191  1.3890  1.2618
 6197TIP3   OH218596   2.873   0.896   2.501  0.0685  0.1518 -0.2149
 6197TIP3    H118597   2.861   0.989   2.517 -1.1084  0.1871 -1.2071
 6197TIP3    H218598   2.791   0.866   2.463 -0.2647 -1.6866  1.6937
 6198TIP3   OH218599   4.063   5.837   1.174  0.4006  0.2762  0.2568
 6198TIP3    H118600   4.149   5.799   1.158  0.3435  1.0274 -2.3345
 6198TIP3    H218601   4.001   5.765   1.164  0.6113  0.0668  0.4663
 6199TIP3   OH218602   6.154   3.107   4.938  0.3903 -0.4223  0.4767
 6199TIP3    H118603   6.085   3.164   4.972  0.4384 -0.1156  0.0578
 6199TIP3    H218604   6.116   3.068   4.859  0.7741 -0.0759  0.1150
 6200TIP3   OH218605   5.103   0.579   2.588 -0.4157  0.0121 -0.0711
 6200TIP3    H118606   5.182   0.631   2.571  0.1935 -0.1095  2.0658
 6200TIP3    H218607   5.135   0.489   2.593 -0.6987 -0.0498  0.6695
 6201TIP3   OH218608   2.276   0.673   1.823  0.2271  0.1228 -0.3415
 6201TIP3    H118609   2.229   0.725   1.758 -0.8793 -1.6718 -1.0196
 6201TIP3    H218610   2.229   0.689   1.905  0.1175  0.4500 -0.4657
 6202TIP3   OH218611   4.618   4.071   3.736  0.2754  0.0602 -0.5006
 6202TIP3    H118612   4.611   4.081   3.831  0.1718 -2.1160 -0.2360
 6202TIP3    H218613   4.537   4.109   3.702 -0.7138 -1.0687  0.4836
 6203TIP3   OH218614   1.209   4.546   2.481 -0.1566  0.0802 -0.1182
 6203TIP3    H118615   1.288   4.586   2.518  1.9658 -3.0316 -0.9605
 6203TIP3    H218616   1.138   4.605   2.509  2.2976  2.6219  1.3218
 6204TIP3   OH218617   4.317   2.231   0.748  0.1139  0.8887  0.6671
 6204TIP3    H118618   4.401   2.251   0.789  0.6715  1.3264 -0.6474
 6204TIP3    H218619   4.333   2.152   0.697 -0.8237 -0.2063  1.9744
 6205TIP3   OH218620   5.731   3.805   2.636 -0.4987 -0.6725 -0.3452
 6205TIP3    H118621   5.671   3.866   2.594  0.2387 -0.5236 -1.2017
 6205TIP3    H218622   5.818   3.842   2.621 -0.1629 -0.9495  0.7658
 6206TIP3   OH218623   4.386   0.221   0.080  0.0632  0.9543 -0.5170
 6206TIP3    H118624   4.327   0.290   0.112 -1.0502  0.3933 -1.2715
 6206TIP3    H218625   4.367   0.216  -0.014  1.0425  0.4833 -0.6928
 6207TIP3   OH218626   5.449   2.364   1.763  1.0784 -0.6300 -0.0177
 6207TIP3    H118627   5.364   2.402   1.783  1.2942 -0.3463  0.3796
 6207TIP3    H218628   5.481   2.412   1.687  0.9136 -0.6943 -0.1280
 6208TIP3   OH218629   5.329   3.936   1.474 -0.0560  1.0563  0.1315
 6208TIP3    H118630   5.312   3.857   1.423 -1.8605  1.3472  0.2144
 6208TIP3    H218631   5.278   4.004   1.429 -1.6501  1.3409  2.2332
 6209TIP3   OH218632   0.645   2.016   0.094  0.4967 -0.0805 -0.0144
 6209TIP3    H118633   0.627   2.067   0.173  2.3015 -0.2010  0.5072
 6209TIP3    H218634   0.685   2.079   0.033 -1.8980  0.3026 -1.3411
 6210TIP3   OH218635   5.619   0.073   4.958 -0.2229 -0.5618 -0.3006
 6210TIP3    H118636   5.538   0.024   4.970  0.8645 -1.9558  2.1045
 6210TIP3    H218637   5.652   0.046   4.872 -1.8852 -0.5424 -0.9712
 6211TIP3   OH218638   3.108   4.642   0.133 -0.0821  0.5552 -0.1209
 6211TIP3    H118639   3.095   4.638   0.228 -1.1088 -2.0615 -0.2977
 6211TIP3    H218640   3.033   4.692   0.100 -0.0954  0.8700  0.3826
 6212TIP3   OH218641   4.134   1.666   5.093 -0.4360 -0.3040 -0.2397
 6212TIP3    H118642   4.169   1.677   5.005 -0.6020  0.2825 -0.2350
 6212TIP3    H218643   4.079   1.588   5.088  0.4188 -0.9128 -0.3823
 6213TIP3   OH218644   0.148   2.742   4.151 -0.6053  0.4488  0.0543
 6213TIP3    H118645   0.098   2.791   4.216 -2.4711 -1.0812 -0.1232
 6213TIP3    H218646   0.081   2.706   4.093  1.0019  2.0021 -2.9577
 6214TIP3   OH218647   4.972   2.053   4.336  0.5160 -0.2497  0.4423
 6214TIP3    H118648   4.921   1.978   4.367 -3.7886  2.3771  0.6424
 6214TIP3    H218649   4.970   2.115   4.409  1.1297  1.2599 -0.7627
 6215TIP3   OH218650   4.949   1.084   4.328 -0.0141  0.6154 -0.1557
 6215TIP3    H118651   5.005   1.059   4.254  0.2931 -1.4538  0.6962
 6215TIP3    H218652   4.892   1.008   4.341 -0.6270  1.2753  1.2199
 6216TIP3   OH218653   3.962   0.536   0.338  0.1381  0.0559  0.1113
 6216TIP3    H118654   3.868   0.551   0.335  0.1866  0.2254 -1.0656
 6216TIP3    H218655   3.972   0.447   0.372 -0.4428 -0.0319  0.0526
 6217TIP3   OH218656   1.558   2.538   2.866 -0.6441 -0.1768 -0.4236
 6217TIP3    H118657   1.469   2.518   2.841 -1.1913  2.0974 -0.5253
 6217TIP3    H218658   1.552   2.622   2.913  1.3513 -0.2440  0.0699
 6218TIP3   OH218659   0.612   3.529   3.265  0.6051 -0.0584  0.1577
 6218TIP3    H118660   0.679   3.552   3.329  0.1705  0.6247  0.3690
 6218TIP3    H218661   0.536   3.502   3.317 -0.0987  1.4830 -0.0344
 6219TIP3   OH218662   1.382   5.342   0.312  0.3639  0.2630  0.1755
 6219TIP3    H118663   1.467   5.314   0.279 -0.0916 -1.3665  0.2682
 6219TIP3    H218664   1.319   5.285   0.268 -0.8389  2.3166 -0.9102
 6220TIP3   OH218665   2.150   4.622   2.886 -0.0424 -0.1080 -0.0675
 6220TIP3    H118666   2.054   4.615   2.887 -0.2509  1.8105  1.9064
 6220TIP3    H218667   2.179   4.559   2.952  0.0308 -0.3641 -0.3422
 6221TIP3   OH218668   4.652   4.362   3.687  0.2423 -0.2871  0.2873
 6221TIP3    H118669   4.733   4.328   3.648 -0.5821 -0.9010 -0.9813
 6221TIP3    H218670   4.589   4.291   3.674 -0.9075  0.7947 -0.2133
 6222TIP3   OH218671   4.140   3.451   2.851 -0.1155 -0.1433 -0.1304
 6222TIP3    H118672   4.064   3.406   2.890 -0.5447  0.6020 -0.0988
 6222TIP3    H218673   4.192   3.380   2.813 -1.1479 -0.6079 -0.7107
 6223TIP3   OH218674   4.449   5.038   4.710  0.0175 -0.0025  0.9122
 6223TIP3    H118675   4.440   4.962   4.653 -0.4050  2.1962 -2.2291
 6223TIP3    H218676   4.543   5.060   4.706 -0.0843  0.4035  0.7233
 6224TIP3   OH218677   4.130   1.078   1.220 -0.9199 -0.4074 -0.4326
 6224TIP3    H118678   4.087   1.156   1.186 -1.2466 -0.6682 -0.6317
 6224TIP3    H218679   4.214   1.109   1.254 -0.8850 -0.0322 -0.8558
 6225TIP3   OH218680   0.083   2.377   4.088  0.3005  0.8151  0.2596
 6225TIP3    H118681   0.056   2.437   4.157  0.6349  1.7686 -0.4251
 6225TIP3    H218682   0.009   2.317   4.078  0.3111  0.5573  1.5463
 6226TIP3   OH218683   3.186   3.550   2.941 -0.7224  0.1089 -0.2617
 6226TIP3    H118684   3.248   3.512   2.879  0.5508  1.0441  0.3943
 6226TIP3    H218685   3.118   3.589   2.887 -0.3901 -0.3509 -1.0230
 6227TIP3   OH218686   2.078   0.301   1.947  0.1493  0.1847  0.3714
 6227TIP3    H118687   2.135   0.228   1.971  0.5960  0.5157  0.3221
 6227TIP3    H218688   2.060   0.346   2.030  0.3227  0.3377  0.3281
 6228TIP3   OH218689   1.024   0.395   4.824  0.1740 -0.3547 -0.4130
 6228TIP3    H118690   0.999   0.444   4.902  0.3744 -0.8349 -0.0424
 6228TIP3    H218691   1.084   0.453   4.777  1.0528 -0.5634  0.4274
 6229TIP3   OH218692   3.661   5.781   1.572 -0.2959 -0.3477  0.2630
 6229TIP3    H118693   3.594   5.759   1.637  0.6291 -0.2851  1.2459
 6229TIP3    H218694   3.621   5.756   1.488 -0.7517 -2.2883  0.9970
 6230TIP3   OH218695   1.583   4.702   1.311  0.0313 -0.8929  0.4064
 6230TIP3    H118696   1.668   4.727   1.349 -0.3261 -0.3101  0.8345
 6230TIP3    H218697   1.565   4.616   1.349 -1.1060  0.3617  2.9509
 6231TIP3   OH218698   4.413   3.310   3.445 -0.6913  0.1884 -0.3002
 6231TIP3    H118699   4.384   3.338   3.359  0.4309 -2.5784 -1.7038
 6231TIP3    H218700   4.508   3.298   3.436 -0.7020 -1.1504  0.9766
 6232TIP3   OH218701   0.739   0.145   2.614  0.6753  0.0052  0.9979
 6232TIP3    H118702   0.821   0.186   2.587 -0.5800  0.0624 -3.6664
 6232TIP3    H218703   0.673   0.187   2.559 -1.5926 -3.8756  0.4048
 6233TIP3   OH218704   2.833   0.674   2.046 -0.0887 -0.3845 -0.2659
 6233TIP3    H118705   2.870   0.651   1.961 -0.0827  1.5844 -0.8425
 6233TIP3    H218706   2.796   0.761   2.033  1.2158  0.6094  2.1347
 6234TIP3   OH218707   2.273   5.416   3.726  0.0683  0.1780  0.5760
 6234TIP3    H118708   2.332   5.348   3.693  1.2483  1.1300  0.6587
 6234TIP3    H218709   2.302   5.432   3.815 -0.2792  0.6975  0.6014
 6235TIP3   OH218710   2.039   0.749   3.922 -0.1022 -0.2980  0.2860
 6235TIP3    H118711   2.111   0.696   3.958 -0.8125 -0.7577  1.0711
 6235TIP3    H218712   1.960   0.713   3.963 -0.7675  0.3046 -0.4412
 6236TIP3   OH218713   2.932   1.208   4.780 -0.1936  0.2484 -0.5271
 6236TIP3    H118714   2.895   1.292   4.806 -1.8802 -0.7600  0.4700
 6236TIP3    H218715   2.959   1.167   4.862  1.1482  0.0343 -1.0523
 6237TIP3   OH218716   3.601   1.001   3.702 -0.1749  1.0450  0.0406
 6237TIP3    H118717   3.519   0.988   3.749 -0.5339  1.1850 -0.5357
 6237TIP3    H218718   3.586   1.080   3.649 -0.3163  0.0950 -1.4172
 6238TIP3   OH218719   5.258   1.155   1.775  0.4691 -0.9646  1.0899
 6238TIP3    H118720   5.247   1.076   1.827  0.5612 -1.7381 -0.0158
 6238TIP3    H218721   5.178   1.205   1.790 -0.6288 -2.3321  0.0926
 6239TIP3   OH218722   2.672   1.871   0.203 -0.1081 -0.2058  0.4997
 6239TIP3    H118723   2.684   1.952   0.253 -0.6151  0.3726 -0.2943
 6239TIP3    H218724   2.749   1.867   0.146 -0.2117 -0.1434  0.3544
 6240TIP3   OH218725   5.661   4.989   3.132  0.5328 -0.0270 -0.3963
 6240TIP3    H118726   5.680   5.082   3.116  0.0419  0.0884 -0.3414
 6240TIP3    H218727   5.730   4.942   3.085  0.3338  0.3476 -1.0849
 6241TIP3   OH218728   3.096   5.497   1.706  0.1912  0.0904  0.3216
 6241TIP3    H118729   3.003   5.508   1.726  0.1769 -0.7847  0.7806
 6241TIP3    H218730   3.136   5.476   1.791  0.2989 -2.6609 -0.3170
 6242TIP3   OH218731   6.021   0.072   3.702  0.4977  0.0996  0.9050
 6242TIP3    H118732   6.082   0.061   3.775 -0.0438  0.7210  1.4652
 6242TIP3    H218733   6.039  -0.002   3.644  2.2012  0.5955  0.7458
 6243TIP3   OH218734   1.925   4.027   0.933 -0.1029  0.1303 -0.0719
 6243TIP3    H118735   1.869   4.090   0.979 -1.0667  2.3838 -3.9322
 6243TIP3    H218736   2.006   4.027   0.983 -1.7336  0.6652  2.8069
 6244TIP3   OH218737   1.031   3.623   3.014 -0.1936  0.6323 -0.0989
 6244TIP3    H118738   1.014   3.556   2.947 -1.5693  0.2647  0.5785
 6244TIP3    H218739   0.944   3.657   3.037  0.3905  1.8582  0.3900
 6245TIP3   OH218740   5.395   5.761   3.490 -0.4145  0.3295  0.0692
 6245TIP3    H118741   5.348   5.689   3.532 -0.7298  1.8044  2.4460
 6245TIP3    H218742   5.339   5.785   3.415  0.1780 -2.3930 -1.4051
 6246TIP3   OH218743   3.972   4.560   1.203  0.3454 -0.1149 -1.0530
 6246TIP3    H118744   3.992   4.645   1.242  1.1139 -0.0299 -1.6122
 6246TIP3    H218745   3.990   4.496   1.272 -1.3584  0.2336 -0.2377
 6247TIP3   OH218746   0.228   2.765   2.528 -0.1287  0.6187 -0.1638
 6247TIP3    H118747   0.317   2.796   2.517  0.4003 -0.8999 -0.4478
 6247TIP3    H218748   0.224   2.684   2.477 -2.0262  1.2735 -1.1632
 6248TIP3   OH218749   5.835   2.004   2.704 -0.0185 -0.4049 -0.0855
 6248TIP3    H118750   5.785   2.005   2.622  0.8964  0.2817 -0.6726
 6248TIP3    H218751   5.801   2.078   2.754 -1.9891 -2.0214  1.0973
 6249TIP3   OH218752   3.360   5.550   0.708 -0.5914 -0.0904 -0.3806
 6249TIP3    H118753   3.390   5.509   0.789 -2.1800 -2.0671 -0.7120
 6249TIP3    H218754   3.431   5.537   0.646 -0.7635 -1.7951 -0.2692
 6250TIP3   OH218755   3.818   2.140   1.767 -0.3006  0.6420 -0.0821
 6250TIP3    H118756   3.836   2.099   1.682  0.2214  0.3991  0.1404
 6250TIP3    H218757   3.903   2.170   1.798 -0.8558  3.3508 -0.9439
 6251TIP3   OH218758   1.632   3.261   3.464  0.1215 -0.8865  0.0589
 6251TIP3    H118759   1.701   3.278   3.528 -0.2149 -0.0724  0.2295
 6251TIP3    H218760   1.577   3.194   3.505 -2.4086  2.3410  2.5826
 6252TIP3   OH218761   1.861   1.664   0.435  0.8969  0.0926  0.5321
 6252TIP3    H118762   1.879   1.756   0.454  0.7009 -0.0242  1.3076
 6252TIP3    H218763   1.772   1.664   0.401  0.8400  0.1725  0.6793
 6253TIP3   OH218764   5.777   0.300   2.486  0.1937 -0.0580 -0.4571
 6253TIP3    H118765   5.808   0.211   2.470  1.1462  0.1313  0.2319
 6253TIP3    H218766   5.835   0.355   2.433  0.8580  0.2747  0.5793
 6254TIP3   OH218767   1.997   4.113   3.262 -0.4822  0.3134  0.0184
 6254TIP3    H118768   1.940   4.042   3.231 -0.9690  1.2706 -1.4266
 6254TIP3    H218769   2.086   4.081   3.248 -0.6977 -0.3151  0.0978
 6255TIP3   OH218770   4.357   1.336   0.446  0.1775  0.4256 -0.2801
 6255TIP3    H118771   4.384   1.244   0.438 -0.5091  0.3288 -1.6717
 6255TIP3    H218772   4.420   1.373   0.508  0.7930 -0.8523 -0.0967
 6256TIP3   OH218773   1.743   2.141   2.534 -0.2669 -0.0626 -0.2520
 6256TIP3    H118774   1.786   2.143   2.448  0.9419 -0.1303  0.3322
 6256TIP3    H218775   1.753   2.230   2.568  0.9584 -0.5177  0.6196
 6257TIP3   OH218776   3.718   5.985   1.756  0.2550 -0.1380  0.0451
 6257TIP3    H118777   3.704   5.929   1.832 -0.1527 -1.4378 -0.9583
 6257TIP3    H218778   3.678   5.938   1.683  0.2860  1.2582 -0.9210
 6258TIP3   OH218779   4.897   4.142   1.773 -0.1205 -0.4660 -0.5142
 6258TIP3    H118780   4.926   4.208   1.836 -0.3582  0.3849 -1.2628
 6258TIP3    H218781   4.923   4.059   1.811 -0.8048 -0.0272  1.0046
 6259TIP3   OH218782   5.742   0.980   3.094 -0.3322 -0.1834 -0.1808
 6259TIP3    H118783   5.698   0.915   3.150 -0.8952 -0.8373 -1.3403
 6259TIP3    H218784   5.696   0.974   3.011  1.2330 -0.0667 -1.0930
 6260TIP3   OH218785   4.228   0.466   2.914  0.0087 -0.7170 -0.0220
 6260TIP3    H118786   4.140   0.502   2.928  0.5764  0.5323  0.5531
 6260TIP3    H218787   4.279   0.498   2.989  0.9190 -1.5617 -0.2548
 6261TIP3   OH218788   3.988   1.128   2.961 -0.1558  0.0038 -0.3078
 6261TIP3    H118789   3.932   1.065   2.914 -1.1815  0.9213 -0.3626
 6261TIP3    H218790   4.020   1.080   3.037 -0.6607 -0.6926 -0.5242
 6262TIP3   OH218791   0.323   1.059   2.179 -0.0863 -0.1278 -0.2710
 6262TIP3    H118792   0.342   1.055   2.272 -0.6070 -0.2657 -0.1634
 6262TIP3    H218793   0.408   1.073   2.137  0.1734 -0.2373  0.2097
 6263TIP3   OH218794   2.089   4.018   3.895  0.3065  0.1565  0.2472
 6263TIP3    H118795   2.140   3.937   3.886  0.9551  0.6232 -0.3361
 6263TIP3    H218796   2.146   4.087   3.862 -1.8348  0.3330 -3.7515
 6264TIP3   OH218797   5.850   5.864   0.727  0.3526 -0.5714 -0.4436
 6264TIP3    H118798   5.906   5.925   0.776  0.0946 -1.5597  1.1530
 6264TIP3    H218799   5.762   5.877   0.764 -0.2309 -0.0462 -1.9390
 6265TIP3   OH218800   2.497   2.862   0.381  0.7895 -0.2815  0.1220
 6265TIP3    H118801   2.587   2.876   0.354 -0.2656  2.0229 -2.6858
 6265TIP3    H218802   2.460   2.950   0.388 -1.4776 -1.1762  0.2904
 6266TIP3   OH218803   2.027   0.917   0.891  0.2457 -0.0294  0.0739
 6266TIP3    H118804   1.976   0.995   0.872  0.9941  0.6646  0.8100
 6266TIP3    H218805   2.078   0.940   0.969 -0.7336 -1.8057  1.3106
 6267TIP3   OH218806   0.804   5.036   0.130 -0.3041  0.4716  0.2020
 6267TIP3    H118807   0.720   5.059   0.090 -1.2861  0.7074  2.3098
 6267TIP3    H218808   0.838   4.966   0.074 -2.0893  0.0806 -0.4616
 6268TIP3   OH218809   2.861   5.541   3.265 -0.3005 -0.3092 -0.1867
 6268TIP3    H118810   2.793   5.505   3.209 -0.4300  0.6906 -0.6915
 6268TIP3    H218811   2.942   5.530   3.214 -0.5069  1.2142 -0.9076
 6269TIP3   OH218812   3.227   0.049   2.330  0.6482 -0.0481  0.2480
 6269TIP3    H118813   3.161   0.074   2.394 -0.0289 -1.0578 -0.0403
 6269TIP3    H218814   3.231  -0.046   2.334  2.9811  0.0123  1.1233
 6270TIP3   OH218815   5.799   1.039   1.853 -0.1085  0.3276  0.4835
 6270TIP3    H118816   5.735   1.062   1.921 -0.3860 -0.9231  0.6733
 6270TIP3    H218817   5.816   1.121   1.808  0.4184  1.3108  2.3386
 6271TIP3   OH218818   3.974   2.204   2.511  0.8163 -0.7312  0.2067
 6271TIP3    H118819   3.902   2.245   2.463  1.4588 -1.4115 -1.4432
 6271TIP3    H218820   3.936   2.174   2.593 -0.7631 -1.0398 -0.6070
 6272TIP3   OH218821   2.366   5.512   3.961 -0.4018  0.0841  0.2769
 6272TIP3    H118822   2.346   5.466   4.043  0.2055  0.1885  0.4863
 6272TIP3    H218823   2.460   5.526   3.964 -0.4109  0.2840 -0.3436
 6273TIP3   OH218824   6.248   2.916   2.611 -0.5865 -0.3604  0.0864
 6273TIP3    H118825   6.243   3.010   2.627 -0.4178 -0.1773 -0.8616
 6273TIP3    H218826   6.329   2.889   2.654 -0.4809 -0.0147  0.1100
 6274TIP3   OH218827   3.294   3.288   4.478 -0.1611  0.3041  0.1909
 6274TIP3    H118828   3.368   3.252   4.526  0.5938  1.3203 -0.1898
 6274TIP3    H218829   3.332   3.324   4.398 -1.0765  0.7307 -0.0659
 6275TIP3   OH218830   0.535   2.045   0.814 -0.1983 -0.4394 -0.0866
 6275TIP3    H118831   0.614   2.010   0.772  0.3184  1.3888 -0.7500
 6275TIP3    H218832   0.533   2.003   0.900  1.5018 -0.5604 -0.0662
 6276TIP3   OH218833   3.379   2.785   1.498 -0.2585 -0.1652 -0.7181
 6276TIP3    H118834   3.344   2.730   1.428 -1.3731 -1.6368  0.9301
 6276TIP3    H218835   3.457   2.738   1.528 -1.0795 -0.7473  0.5370
 6277TIP3   OH218836   5.859   2.081   4.455 -0.2667  0.2379 -0.2229
 6277TIP3    H118837   5.928   2.016   4.467 -0.4061  0.3163  1.2665
 6277TIP3    H218838   5.839   2.078   4.362  1.2040 -0.3315 -0.5588
 6278TIP3   OH218839   0.101   3.925   3.833  0.4388 -0.2772 -0.0234
 6278TIP3    H118840   0.158   3.872   3.777  0.3110 -2.2856  1.6085
 6278TIP3    H218841   0.013   3.894   3.813  0.3539 -0.6577  0.9187
 6279TIP3   OH218842   4.006   1.344   3.306 -0.4030 -0.0129  0.0859
 6279TIP3    H118843   4.088   1.394   3.296 -0.3853  0.0114  0.3445
 6279TIP3    H218844   4.026   1.279   3.373 -0.4264 -0.3719 -0.2583
 6280TIP3   OH218845   0.893   3.780   4.789 -0.4257 -0.2946  0.0753
 6280TIP3    H118846   0.843   3.747   4.863 -2.9572 -0.7678 -1.7125
 6280TIP3    H218847   0.904   3.874   4.807  0.1225 -0.6411  1.6135
 6281TIP3   OH218848   2.384   5.154   2.345 -0.4439 -0.4076 -0.1726
 6281TIP3    H118849   2.378   5.093   2.419  0.6880 -1.4939 -0.9204
 6281TIP3    H218850   2.379   5.097   2.268 -1.5583  0.6945 -0.9558
 6282TIP3   OH218851   5.617   5.851   3.673 -0.3514  0.0989 -0.7365
 6282TIP3    H118852   5.564   5.841   3.594 -1.5521 -1.1072  0.1876
 6282TIP3    H218853   5.559   5.893   3.736  0.4892  0.7338 -0.3489
 6283TIP3   OH218854   3.867   4.740   3.508  0.3595  0.1166 -0.0426
 6283TIP3    H118855   3.909   4.772   3.588 -0.3296 -1.3171  0.9357
 6283TIP3    H218856   3.783   4.784   3.505  0.4513  0.2906 -0.0699
 6284TIP3   OH218857   5.669   2.207   1.283 -0.2532  0.3313  0.2074
 6284TIP3    H118858   5.687   2.233   1.193  0.6985  0.6819  0.4854
 6284TIP3    H218859   5.702   2.279   1.336  1.0089 -0.7167  0.9167
 6285TIP3   OH218860   2.135   2.791   1.123  0.0000 -0.1567 -0.3573
 6285TIP3    H118861   2.173   2.796   1.036  0.5156  0.9798 -0.0889
 6285TIP3    H218862   2.063   2.854   1.122  1.0491  1.1168  0.5103
 6286TIP3   OH218863   0.839   5.919   4.058 -0.1913 -0.1039 -0.1713
 6286TIP3    H118864   0.800   5.887   4.139  1.2783 -1.7546 -0.0375
 6286TIP3    H218865   0.766   5.950   4.005 -1.7608 -3.2875 -0.0655
 6287TIP3   OH218866   4.531   3.781   1.737 -0.5858  0.1971 -0.0482
 6287TIP3    H118867   4.597   3.849   1.725 -0.5373  0.0294 -0.7543
 6287TIP3    H218868   4.560   3.710   1.680 -0.9493 -0.1922  0.2465
 6288TIP3   OH218869   4.174   4.829   3.411  0.0553 -0.5927 -0.1244
 6288TIP3    H118870   4.158   4.746   3.456  1.3886 -0.2198  1.0912
 6288TIP3    H218871   4.207   4.887   3.478 -1.2090  1.0888 -0.8791
 6289TIP3   OH218872   5.226   0.640   5.045  0.0113 -0.0310 -0.2364
 6289TIP3    H118873   5.187   0.556   5.020 -0.0905  0.2934 -1.1947
 6289TIP3    H218874   5.312   0.618   5.079 -0.0363 -0.5309 -0.4411
 6290TIP3   OH218875   3.327   2.734   3.342 -0.2368 -0.0109  0.3329
 6290TIP3    H118876   3.391   2.804   3.329 -0.8415  0.6759  0.9742
 6290TIP3    H218877   3.363   2.681   3.413  1.1132 -1.4523 -1.3265
 6291TIP3   OH218878   3.333   2.888   1.755 -0.5740 -0.0882  0.1743
 6291TIP3    H118879   3.359   2.870   1.664 -0.9497 -0.7681  0.1903
 6291TIP3    H218880   3.253   2.941   1.747  0.5252  1.6429  0.1254
 6292TIP3   OH218881   2.674   2.411   5.144  0.4388 -0.0333  0.4816
 6292TIP3    H118882   2.711   2.329   5.112  1.2312  0.0896  1.0501
 6292TIP3    H218883   2.696   2.476   5.077  2.1320  0.2349  1.2246
 6293TIP3   OH218884   0.419   3.438   0.393 -0.3843 -0.5551  0.5287
 6293TIP3    H118885   0.329   3.432   0.425 -0.2391  1.5393  1.5402
 6293TIP3    H218886   0.455   3.515   0.438  1.2299 -0.0498 -1.4606
 6294TIP3   OH218887   2.806   3.269   2.826  0.2240  0.0671 -0.2171
 6294TIP3    H118888   2.733   3.330   2.814 -1.0149 -1.3420 -0.2107
 6294TIP3    H218889   2.855   3.272   2.744  1.3386  2.4666  0.4716
 6295TIP3   OH218890   5.686   5.261   3.548  0.0124  0.2080 -0.1511
 6295TIP3    H118891   5.687   5.169   3.519 -0.8083  0.3888 -0.7713
 6295TIP3    H218892   5.767   5.270   3.598 -0.9322 -1.4819  1.8585
 6296TIP3   OH218893   6.116   5.006   0.324  0.0764  0.4857 -0.1664
 6296TIP3    H118894   6.088   4.924   0.366  1.9254 -0.0125  0.1869
 6296TIP3    H218895   6.098   4.992   0.231  2.2104 -1.2281 -0.4218
 6297TIP3   OH218896   6.052   3.000   1.512 -0.0077 -0.3243  0.0530
 6297TIP3    H118897   6.077   2.989   1.603 -0.6643  0.2942  0.3101
 6297TIP3    H218898   5.969   3.047   1.514  0.7870  1.2103 -0.9024
 6298TIP3   OH218899   3.889   4.132   0.632  0.1658 -0.1362 -0.0402
 6298TIP3    H118900   3.853   4.210   0.673  0.9603  0.7101 -0.9244
 6298TIP3    H218901   3.818   4.067   0.637  0.1872 -0.0492  2.5283
 6299TIP3   OH218902   0.362   4.551   2.620  0.2651  0.3193  0.5570
 6299TIP3    H118903   0.322   4.535   2.705  0.0668  0.9660  0.5969
 6299TIP3    H218904   0.417   4.629   2.633  0.2081  0.4428  0.0932
 6300TIP3   OH218905   4.130   3.582   0.280  0.0507 -0.5705 -0.1026
 6300TIP3    H118906   4.079   3.572   0.199 -1.0107 -0.3725  0.5324
 6300TIP3    H218907   4.160   3.673   0.277  0.4804 -0.7174 -0.5282
 6301TIP3   OH218908   4.752   2.513   0.945  0.0543  0.1888  0.2569
 6301TIP3    H118909   4.824   2.501   1.006  2.3053 -0.3782 -2.2918
 6301TIP3    H218910   4.720   2.602   0.962  1.5765  0.5824  1.2565
 6302TIP3   OH218911   2.819   0.854   4.455 -0.3130  0.0831  0.0495
 6302TIP3    H118912   2.807   0.884   4.365  1.4874 -0.9823 -0.6153
 6302TIP3    H218913   2.774   0.769   4.458 -0.8150  0.3560  0.3181
 6303TIP3   OH218914   1.696   1.134   1.867 -0.4571  0.1218 -0.2934
 6303TIP3    H118915   1.709   1.214   1.917 -1.4693 -0.9043  1.7359
 6303TIP3    H218916   1.783   1.115   1.830  0.3046  1.0056  0.9561
 6304TIP3   OH218917   0.289   5.022   0.419 -0.4839  0.5638 -0.1270
 6304TIP3    H118918   0.282   5.110   0.381 -0.6332  0.4201 -0.4380
 6304TIP3    H218919   0.383   5.010   0.433 -0.4827  0.8642  0.1364
 6305TIP3   OH218920   3.954   0.288   2.284 -0.1592 -0.1897 -0.4344
 6305TIP3    H118921   4.016   0.248   2.223 -1.9347 -0.2793 -2.3041
 6305TIP3    H218922   3.922   0.215   2.337  0.6565 -0.2834 -0.0560
 6306TIP3   OH218923   5.784   0.987   0.949  0.1339  0.1052 -0.0218
 6306TIP3    H118924   5.807   1.066   0.900 -0.6241 -0.6458 -1.6711
 6306TIP3    H218925   5.690   0.996   0.964 -0.0704 -0.7303 -0.7356
 6307TIP3   OH218926   2.642   5.174   0.853  0.5362  0.0255 -0.6887
 6307TIP3    H118927   2.549   5.172   0.877 -0.1390 -0.5072 -3.0776
 6307TIP3    H218928   2.675   5.087   0.876  0.3184  0.0465 -0.2935
 6308TIP3   OH218929   1.388   5.190   0.943 -0.0459 -0.4867  0.4092
 6308TIP3    H118930   1.422   5.136   0.871 -2.7283 -2.5126  0.4978
 6308TIP3    H218931   1.444   5.169   1.017  1.6064  0.2096 -0.5881
 6309TIP3   OH218932   1.786   1.478   2.509 -0.1417 -0.0488  0.1166
 6309TIP3    H118933   1.724   1.499   2.580 -0.6175  0.6564 -0.4956
 6309TIP3    H218934   1.736   1.491   2.429  0.7131  0.2355 -0.3865
 6310TIP3   OH218935   2.201   3.645   0.209 -0.5683  0.4886 -0.2725
 6310TIP3    H118936   2.154   3.708   0.154  1.2780  1.3394 -0.9719
 6310TIP3    H218937   2.176   3.667   0.298  0.6117  2.7938 -0.4427
 6311TIP3   OH218938   4.031   5.725   0.602  0.6319 -0.2780  0.1233
 6311TIP3    H118939   4.029   5.634   0.631  0.9985 -0.6377 -0.9332
 6311TIP3    H218940   4.044   5.720   0.508  2.2579  0.8867  0.2400
 6312TIP3   OH218941   5.784   3.114   4.541  0.3696  0.2239  0.4182
 6312TIP3    H118942   5.843   3.038   4.539 -0.0216 -0.0605 -0.4340
 6312TIP3    H218943   5.842   3.188   4.559  1.1243  0.0534 -1.1785
 6313TIP3   OH218944   3.270   4.305   4.007  0.0882  0.3186 -0.1242
 6313TIP3    H118945   3.321   4.235   4.047  1.8453  1.7556  0.2885
 6313TIP3    H218946   3.241   4.359   4.080  0.5778  1.1948 -0.5631
 6314TIP3   OH218947   1.397   2.695   4.015 -0.7282  0.2732  0.2780
 6314TIP3    H118948   1.422   2.685   4.107 -0.1113  0.7714  0.1658
 6314TIP3    H218949   1.306   2.663   4.012  0.0658 -2.2033  0.5502
 6315TIP3   OH218950   0.684   4.072   0.103 -0.0133  0.5620  0.2947
 6315TIP3    H118951   0.772   4.033   0.107  0.4685  1.4371 -1.0248
 6315TIP3    H218952   0.641   4.027   0.030  0.3816  2.0796 -0.9356
 6316TIP3   OH218953   3.420   4.179   0.137 -0.0049  0.1290 -0.0266
 6316TIP3    H118954   3.495   4.230   0.105 -0.9545  2.1393  0.7703
 6316TIP3    H218955   3.443   4.088   0.118  2.6531  0.6635  0.2198
 6317TIP3   OH218956   1.009   3.217   1.243 -0.0474 -0.0347  0.0335
 6317TIP3    H118957   1.053   3.132   1.240 -1.2457 -0.6545 -2.2948
 6317TIP3    H218958   0.916   3.196   1.248 -0.3741  1.1202 -0.6472
 6318TIP3   OH218959   3.640   2.538   3.394  0.0831 -0.2829  0.1462
 6318TIP3    H118960   3.589   2.611   3.429 -2.4490 -2.1043  0.6120
 6318TIP3    H218961   3.654   2.560   3.302  0.7518  1.4446  0.6242
 6319TIP3   OH218962   0.866   3.040   3.215  0.1617  0.0931 -1.0184
 6319TIP3    H118963   0.910   3.095   3.280  0.3966 -1.0197 -0.1948
 6319TIP3    H218964   0.793   3.093   3.184 -1.5149 -0.1783  2.0356
 6320TIP3   OH218965   2.813   4.184   4.457 -0.4623 -0.1830  0.4488
 6320TIP3    H118966   2.776   4.248   4.519  1.3309 -0.0486  1.4294
 6320TIP3    H218967   2.736   4.141   4.420 -1.6650  1.2208  1.1686
 6321TIP3   OH218968   5.305   3.794   0.858 -0.3532  0.0773  0.2292
 6321TIP3    H118969   5.325   3.882   0.888  0.8649  0.4866 -1.6259
 6321TIP3    H218970   5.235   3.806   0.793  1.1111 -0.0250 -1.4494
 6322TIP3   OH218971   2.731   3.019   4.342  0.2794  0.4350  0.3354
 6322TIP3    H118972   2.750   3.043   4.251 -0.1803  1.1334  0.4197
 6322TIP3    H218973   2.783   2.939   4.356  1.2591  0.9593 -0.1758
 6323TIP3   OH218974   2.904   0.624   3.901 -0.1320 -0.0680 -0.6010
 6323TIP3    H118975   2.992   0.607   3.936  0.2379 -0.4795 -1.6743
 6323TIP3    H218976   2.881   0.543   3.856 -0.9501  0.1484 -0.5792
 6324TIP3   OH218977   1.010   2.120   3.769 -0.7870 -0.7924 -0.4294
 6324TIP3    H118978   0.982   2.210   3.751 -0.8617 -0.0279  2.8625
 6324TIP3    H218979   1.101   2.117   3.742 -0.3771  0.7581  0.6118
 6325TIP3   OH218980   3.473   5.496   1.993 -0.5127  0.0111 -0.6730
 6325TIP3    H118981   3.471   5.407   1.959 -1.1585 -0.6213  0.9285
 6325TIP3    H218982   3.501   5.487   2.084  2.1227  1.7252 -1.1897
 6326TIP3   OH218983   4.894   5.082   3.397 -0.2667 -0.0617  0.2685
 6326TIP3    H118984   4.865   5.115   3.483 -1.3172  0.5296 -0.2933
 6326TIP3    H218985   4.955   5.149   3.365 -0.3934  0.0510  0.2612
 6327TIP3   OH218986   5.243   5.362   4.777 -0.4625  0.0753  0.2469
 6327TIP3    H118987   5.180   5.421   4.818  0.5006  1.7723 -0.5528
 6327TIP3    H218988   5.201   5.335   4.696 -1.6637 -1.8946  1.4656
 6328TIP3   OH218989   5.072   1.821   2.752 -0.4049 -0.0260  0.0428
 6328TIP3    H118990   5.103   1.757   2.817 -1.3093 -0.0254  0.4909
 6328TIP3    H218991   5.122   1.802   2.673  0.5162 -0.2171  0.6575
 6329TIP3   OH218992   3.161   1.659   2.755  0.1149  0.2936  0.1719
 6329TIP3    H118993   3.067   1.652   2.736  0.1767 -0.9054  0.2584
 6329TIP3    H218994   3.204   1.643   2.672  0.2562  0.8790  0.1253
 6330TIP3   OH218995   3.313   2.749   0.882  0.3144 -0.4719  0.0270
 6330TIP3    H118996   3.403   2.782   0.877  0.2896 -0.3703  0.2054
 6330TIP3    H218997   3.272   2.776   0.800  0.3717 -0.2885  0.0583
 6331TIP3   OH218998   2.241   5.800   5.166  0.2263 -0.5870 -0.1021
 6331TIP3    H118999   2.263   5.859   5.239  1.5945 -1.0995 -0.0638
 6331TIP3    H219000   2.233   5.857   5.090 -0.8777 -0.0841  0.3700
 6332TIP3   OH219001   3.552   0.658   2.277 -0.3450 -0.0024  0.2336
 6332TIP3    H119002   3.569   0.745   2.314  2.0459 -0.4594  0.3999
 6332TIP3    H219003   3.639   0.617   2.272 -0.7960 -0.8327 -3.7710
 6333TIP3   OH219004   4.766   0.377   3.663 -0.2246  0.3464  0.5452
 6333TIP3    H119005   4.751   0.283   3.655 -1.0625  0.5928 -1.0821
 6333TIP3    H219006   4.746   0.396   3.755 -2.2522 -0.6974  0.3891
 6334TIP3   OH219007   5.428   2.565   4.367  0.1793  0.1833 -0.1894
 6334TIP3    H119008   5.376   2.643   4.345 -1.0791 -0.5917 -0.0807
 6334TIP3    H219009   5.504   2.599   4.414  0.5519  1.4880 -1.6513
 6335TIP3   OH219010   3.391   0.513   2.691  0.3937  0.3971 -0.4312
 6335TIP3    H119011   3.438   0.477   2.615  1.3403 -1.0722  0.7776
 6335TIP3    H219012   3.461   0.548   2.747 -0.1442  0.1829  0.3908
 6336TIP3   OH219013   4.232   3.505   3.669 -0.4232 -0.0115  0.2284
 6336TIP3    H119014   4.238   3.411   3.681  0.5269  0.1325  0.9190
 6336TIP3    H219015   4.305   3.527   3.611 -0.7623  0.2753 -0.0954
 6337TIP3   OH219016   3.099   5.025   2.251  0.0270 -0.1386 -0.5000
 6337TIP3    H119017   3.096   5.121   2.244  1.8779 -0.1394 -2.0919
 6337TIP3    H219018   3.166   5.008   2.317  0.0918 -0.3551 -0.6219
 6338TIP3   OH219019   2.112   4.484   1.054  1.0819  0.3631  0.0305
 6338TIP3    H119020   2.115   4.428   1.132  3.1204 -0.6133 -0.6620
 6338TIP3    H219021   2.158   4.433   0.986 -2.0511  0.4296 -2.3639
 6339TIP3   OH219022   2.317   5.815   4.294 -0.0390 -0.3356  0.0323
 6339TIP3    H119023   2.390   5.877   4.289 -0.5826  0.3840  0.8084
 6339TIP3    H219024   2.247   5.856   4.243 -1.3499  1.0728  2.7460
 6340TIP3   OH219025   3.955   5.042   0.956 -0.2744  0.0810  0.8890
 6340TIP3    H119026   3.971   4.952   0.987 -1.3714 -1.0350 -1.5014
 6340TIP3    H219027   4.038   5.069   0.917 -0.7547 -1.1760 -1.1514
 6341TIP3   OH219028   4.484   3.079   3.957 -0.0262  0.0900 -0.5602
 6341TIP3    H119029   4.460   3.134   3.883 -1.6337 -0.6188 -0.6090
 6341TIP3    H219030   4.579   3.074   3.954  0.0494  1.5754 -1.4667
 6342TIP3   OH219031   1.327   2.303   1.710  0.0484  0.2146  0.1442
 6342TIP3    H119032   1.396   2.360   1.675 -0.6017  1.1866  0.4157
 6342TIP3    H219033   1.259   2.304   1.644  0.7521 -1.7442 -0.7123
 6343TIP3   OH219034   5.382   5.447   4.099  0.2558  0.7912 -0.1225
 6343TIP3    H119035   5.477   5.448   4.088  0.2138 -0.5819 -0.8221
 6343TIP3    H219036   5.348   5.468   4.012 -0.1192  3.2588  0.5522
 6344TIP3   OH219037   6.022   3.797   3.955 -0.2048 -0.4980  0.0518
 6344TIP3    H119038   6.118   3.801   3.955 -0.2337  1.8227 -1.1501
 6344TIP3    H219039   5.998   3.811   4.047  0.5832 -0.4980  0.2702
 6345TIP3   OH219040   2.501   2.599   3.741  0.1447 -0.3130 -0.6673
 6345TIP3    H119041   2.544   2.684   3.743 -1.7479  0.7770  2.8543
 6345TIP3    H219042   2.539   2.551   3.815 -2.7220 -0.2193  1.0270
 6346TIP3   OH219043   5.977   0.154   4.816 -0.2015 -0.1429 -0.1083
 6346TIP3    H119044   5.884   0.138   4.805 -0.5584  0.8546  1.1818
 6346TIP3    H219045   6.019   0.070   4.795 -1.6166 -1.4781  2.0562
 6347TIP3   OH219046   2.768   3.709   4.682 -0.1261 -0.0328 -0.7425
 6347TIP3    H119047   2.705   3.639   4.663  0.6911 -0.8086 -0.6554
 6347TIP3    H219048   2.727   3.788   4.648 -2.2201 -0.0837  1.3858
 6348TIP3   OH219049   4.254   5.270   0.685 -0.1254  0.2331  0.0882
 6348TIP3    H119050   4.263   5.357   0.646 -0.8999  0.8902  1.3134
 6348TIP3    H219051   4.162   5.266   0.712  0.2545 -0.3763  1.3653
 6349TIP3   OH219052   5.199   0.621   3.250  0.3944 -0.1986 -0.2457
 6349TIP3    H119053   5.209   0.658   3.338  0.9579 -0.6249 -0.1249
 6349TIP3    H219054   5.271   0.558   3.242 -1.1147 -2.0410 -0.0545
 6350TIP3   OH219055   4.769   1.315   0.297 -0.3011 -0.2235 -0.2526
 6350TIP3    H119056   4.807   1.393   0.256  0.1176 -0.9484 -1.2720
 6350TIP3    H219057   4.728   1.267   0.225 -1.2754 -0.5491  0.4944
 6351TIP3   OH219058   2.897   2.234   1.502 -0.4345 -0.4194 -0.4210
 6351TIP3    H119059   2.928   2.144   1.504 -1.5347 -0.8087 -0.4374
 6351TIP3    H219060   2.943   2.273   1.427 -0.0530 -0.9986 -0.4924
 6352TIP3   OH219061   3.999   3.598   3.788 -0.4080 -0.1601 -0.0448
 6352TIP3    H119062   4.073   3.558   3.742 -1.1655 -0.7891 -0.7612
 6352TIP3    H219063   4.035   3.625   3.872  0.3267 -1.7209  0.1922
 6353TIP3   OH219064   5.549   1.225   2.795 -0.0873  0.3224  0.1050
 6353TIP3    H119065   5.517   1.312   2.771  3.0157  1.3080 -0.8159
 6353TIP3    H219066   5.508   1.208   2.880 -2.4540  1.6786 -0.6686
 6354TIP3   OH219067   0.425   5.837   1.483  0.1634  0.5372 -0.1450
 6354TIP3    H119068   0.512   5.874   1.467  0.1077  0.1170 -1.5507
 6354TIP3    H219069   0.443   5.749   1.518  0.3445 -0.1160 -1.7989
 6355TIP3   OH219070   2.003   4.113   1.957 -0.2818 -0.4218 -0.1186
 6355TIP3    H119071   1.981   4.029   1.915  1.1986 -0.6652 -0.4865
 6355TIP3    H219072   1.928   4.133   2.012 -1.3582 -1.1865 -1.2465
 6356TIP3   OH219073   1.205   1.360   4.189  0.1225  0.0946  0.7486
 6356TIP3    H119074   1.200   1.452   4.163 -0.9555 -0.5902 -1.8514
 6356TIP3    H219075   1.294   1.334   4.166  0.3217  0.4083  1.1643
 6357TIP3   OH219076   3.131   5.872   2.614 -0.9411  0.2135  0.3780
 6357TIP3    H119077   3.072   5.873   2.690 -1.4783  0.3202 -0.0315
 6357TIP3    H219078   3.209   5.918   2.644 -1.1080  0.1680  0.8969
 6358TIP3   OH219079   3.808   3.217   1.585  0.2248 -0.4437  0.0180
 6358TIP3    H119080   3.806   3.284   1.517 -0.5476 -1.9784 -1.5579
 6358TIP3    H219081   3.786   3.264   1.666 -2.2215  0.9091 -1.3042
 6359TIP3   OH219082   0.392   5.159   2.839 -0.3204 -0.0427  0.3264
 6359TIP3    H119083   0.485   5.137   2.833 -0.6227 -2.0492  1.9718
 6359TIP3    H219084   0.389   5.253   2.823  1.9365  0.0283 -0.0678
 6360TIP3   OH219085   2.511   4.499   2.205  0.4067 -0.2065  0.1339
 6360TIP3    H119086   2.546   4.515   2.118  1.1776 -1.3068  0.2313
 6360TIP3    H219087   2.437   4.560   2.213 -0.5260 -1.0163 -1.7895
 6361TIP3   OH219088   1.944   4.204   4.120 -0.3697  0.2660  0.3025
 6361TIP3    H119089   1.978   4.123   4.083 -0.9513  0.6596 -1.1567
 6361TIP3    H219090   1.870   4.176   4.174  0.3224 -0.2854  1.0044
 6362TIP3   OH219091   1.119   2.356   0.500 -0.2832 -0.4414  0.2998
 6362TIP3    H119092   1.105   2.349   0.405 -2.0474 -0.5989  0.5400
 6362TIP3    H219093   1.068   2.433   0.526  0.5285 -0.1453  1.0803
 6363TIP3   OH219094   6.183   4.176   0.080  0.3215 -0.4677 -0.1028
 6363TIP3    H119095   6.191   4.175   0.176  0.2275  0.4389 -0.0799
 6363TIP3    H219096   6.258   4.126   0.049 -0.7494 -2.5996  0.4906
 6364TIP3   OH219097   0.404   4.482   4.032 -0.3937 -0.0105  0.1642
 6364TIP3    H119098   0.484   4.518   4.071 -1.6691  3.1764  0.1704
 6364TIP3    H219099   0.386   4.404   4.084  1.8676  0.0157  1.1498
 6365TIP3   OH219100   2.428   1.922   0.772  0.6284  0.0021  0.6191
 6365TIP3    H119101   2.414   1.904   0.679  2.4984 -0.6081  0.4289
 6365TIP3    H219102   2.463   2.011   0.774  0.8059 -0.0709  0.7263
 6366TIP3   OH219103   4.383   1.411   2.818 -0.1109 -0.6994  0.9121
 6366TIP3    H119104   4.341   1.423   2.733  0.9775  0.6731  0.5474
 6366TIP3    H219105   4.319   1.360   2.869 -0.4393 -2.2859 -0.9608
 6367TIP3   OH219106   0.453   2.894   4.877 -0.3666  0.1837 -0.0230
 6367TIP3    H119107   0.413   2.897   4.964 -1.3429 -0.1026 -0.4401
 6367TIP3    H219108   0.408   2.963   4.828  0.8371  0.9829 -0.0503
 6368TIP3   OH219109   0.070   4.008   0.829  0.3642  0.3143 -0.0949
 6368TIP3    H119110   0.045   4.025   0.919  0.3982 -1.1635  0.2227
 6368TIP3    H219111   0.015   3.934   0.802 -0.0910  1.1220 -1.5009
 6369TIP3   OH219112   2.501   3.573   0.524 -0.0671 -0.1925  0.0143
 6369TIP3    H119113   2.552   3.539   0.597  0.8893  2.5455  0.7396
 6369TIP3    H219114   2.541   3.533   0.446  1.3767 -0.2546  0.7526
 6370TIP3   OH219115   2.865   5.595   0.974  0.3950 -0.2683 -0.2925
 6370TIP3    H119116   2.864   5.551   0.889 -0.9952 -1.3118  0.2232
 6370TIP3    H219117   2.794   5.660   0.969  0.7733  0.1636 -0.1650
 6371TIP3   OH219118   2.560   2.081   2.018 -0.3097 -0.2601 -0.0586
 6371TIP3    H119119   2.535   2.160   2.067 -0.0077  0.4699 -1.0352
 6371TIP3    H219120   2.572   2.112   1.928  2.8548 -0.7867  0.0836
 6372TIP3   OH219121   5.474   0.459   2.659  0.0052 -0.1521  0.2095
 6372TIP3    H119122   5.519   0.508   2.590 -0.6849 -0.8355 -0.7375
 6372TIP3    H219123   5.538   0.394   2.688  0.1531 -0.1361 -0.0763
 6373TIP3   OH219124   1.430   1.676   0.895  0.0444 -0.1586  0.0317
 6373TIP3    H119125   1.407   1.595   0.849 -0.1087 -0.1072  0.0176
 6373TIP3    H219126   1.413   1.746   0.832  0.4024 -0.1302 -0.0387
 6374TIP3   OH219127   1.609   3.161   1.953  0.0432  0.7228  0.0986
 6374TIP3    H119128   1.680   3.224   1.964  0.1508  0.3489  1.7666
 6374TIP3    H219129   1.551   3.177   2.027 -0.2663 -0.7081  0.1928
 6375TIP3   OH219130   3.866   5.122   4.292  0.6587 -0.0795 -0.3944
 6375TIP3    H119131   3.771   5.125   4.305  0.4076  3.1257 -2.0394
 6375TIP3    H219132   3.882   5.038   4.249 -1.5794 -0.2769 -0.9419
 6376TIP3   OH219133   4.267   3.854   1.770 -0.6027  0.2251 -0.4704
 6376TIP3    H119134   4.361   3.834   1.764 -0.3344  0.8626  1.0571
 6376TIP3    H219135   4.248   3.906   1.692  0.8046  1.8476  0.2005
 6377TIP3   OH219136   5.327   5.013   4.408  0.2553 -0.6027 -0.2195
 6377TIP3    H119137   5.256   5.073   4.385  0.2380  0.1782  1.6838
 6377TIP3    H219138   5.286   4.946   4.462  0.5836 -1.4465 -0.9788
 6378TIP3   OH219139   2.695   5.064   3.820  0.0650  0.1788  0.3433
 6378TIP3    H119140   2.763   5.087   3.756 -1.1346  1.8373 -0.4124
 6378TIP3    H219141   2.726   4.983   3.861  2.6866  1.0789  0.3154
 6379TIP3   OH219142   5.898   1.487   2.757 -0.3106 -0.2840 -0.3820
 6379TIP3    H119143   5.866   1.573   2.727  1.5426  0.3201 -0.7727
 6379TIP3    H219144   5.868   1.480   2.847  1.8689  2.1095  0.6408
 6380TIP3   OH219145   3.150   2.458   0.606 -0.0105 -0.4062 -0.1874
 6380TIP3    H119146   3.241   2.433   0.621 -0.0867 -0.7544 -0.2950
 6380TIP3    H219147   3.102   2.375   0.608 -0.1079 -0.4039 -1.7494
 6381TIP3   OH219148   4.333   3.302   3.148  0.2578  0.7273  0.0086
 6381TIP3    H119149   4.343   3.343   3.062 -1.0722 -1.5613 -1.3528
 6381TIP3    H219150   4.248   3.334   3.180 -1.1419 -1.3070 -1.3891
 6382TIP3   OH219151   3.472   4.963   4.708 -0.0930  0.6707 -0.0602
 6382TIP3    H119152   3.476   5.057   4.688 -1.5765  0.7807  0.0121
 6382TIP3    H219153   3.542   4.924   4.655  2.5266  2.1307  2.1014
 6383TIP3   OH219154   2.968   2.851   0.915 -0.2823  0.0868  0.2257
 6383TIP3    H119155   2.992   2.804   0.835 -1.6013  1.2167 -0.9065
 6383TIP3    H219156   3.011   2.936   0.906  1.3692 -0.5173  1.8268
 6384TIP3   OH219157   2.443   1.086   4.498 -0.0821 -0.1510  0.6568
 6384TIP3    H119158   2.515   1.063   4.558 -0.5502 -1.7902  0.6230
 6384TIP3    H219159   2.364   1.065   4.547 -0.5473  0.9400  0.4026
 6385TIP3   OH219160   3.561   0.445   2.491  0.7041  0.4452 -0.5438
 6385TIP3    H119161   3.544   0.498   2.414 -0.0606 -0.2632 -0.8758
 6385TIP3    H219162   3.543   0.355   2.463  3.4358 -0.2340 -0.4664
 6386TIP3   OH219163   5.682   1.736   4.612  0.0415 -0.1195  0.1848
 6386TIP3    H119164   5.648   1.801   4.550  3.0731 -0.4884 -2.1724
 6386TIP3    H219165   5.777   1.747   4.607  0.8218 -5.0880 -0.9248
 6387TIP3   OH219166   1.469   2.505   0.951 -0.3119 -0.6518  0.4703
 6387TIP3    H119167   1.383   2.469   0.930 -0.3911 -0.1338 -0.1288
 6387TIP3    H219168   1.514   2.436   1.000 -0.9573 -1.0339  0.5227
 6388TIP3   OH219169   2.663   4.453  -0.016 -0.1982 -0.0885 -0.3358
 6388TIP3    H119170   2.647   4.500   0.066 -2.2938 -0.7239 -0.3332
 6388TIP3    H219171   2.711   4.375   0.010  0.9396  0.6907 -0.0052
 6389TIP3   OH219172   0.333   1.746   2.791  0.1273 -0.6733 -0.4295
 6389TIP3    H119173   0.246   1.763   2.754  0.3636  0.4280 -0.5285
 6389TIP3    H219174   0.389   1.735   2.714  0.2497 -0.4050 -0.3787
 6390TIP3   OH219175   0.667   4.760   2.879 -0.0162  0.0684  0.2047
 6390TIP3    H119176   0.679   4.666   2.861  1.3023  0.4410 -1.0985
 6390TIP3    H219177   0.752   4.799   2.858 -0.0083  1.3636  2.3123
 6391TIP3   OH219178   5.554   5.647   4.485  0.2256  0.0935 -0.1976
 6391TIP3    H119179   5.510   5.688   4.411 -0.2141  0.2111  0.1246
 6391TIP3    H219180   5.584   5.562   4.451  1.5830  0.8561 -1.0121
 6392TIP3   OH219181   4.276   3.864   1.022  0.1156  0.0602  0.6082
 6392TIP3    H119182   4.245   3.822   0.941  0.4679 -0.0139  0.5085
 6392TIP3    H219183   4.228   3.946   1.026  1.9163  1.2780 -1.0264
 6393TIP3   OH219184   4.302   3.436   0.984  1.0661 -0.0584  0.2797
 6393TIP3    H119185   4.222   3.477   0.949  0.3716 -2.6496 -1.4758
 6393TIP3    H219186   4.323   3.488   1.061 -1.7757  1.3306  0.2680
 6394TIP3   OH219187   3.823   3.170   2.462  0.5286 -0.4711  0.3307
 6394TIP3    H119188   3.760   3.175   2.390  1.8998 -0.8729 -0.9428
 6394TIP3    H219189   3.848   3.260   2.479  0.7254 -0.4190 -0.2044
 6395TIP3   OH219190   6.188   1.747   1.505 -0.4577 -0.5431  0.4623
 6395TIP3    H119191   6.104   1.769   1.466 -0.6031 -1.1151  0.4508
 6395TIP3    H219192   6.167   1.696   1.583 -0.1146 -2.5857 -0.6894
 6396TIP3   OH219193   0.538   5.716   3.968 -0.1152 -0.0228 -0.2528
 6396TIP3    H119194   0.618   5.751   3.928  0.5201 -0.8486  0.2474
 6396TIP3    H219195   0.505   5.652   3.905 -0.2465  0.1536 -0.3607
 6397TIP3   OH219196   2.013   5.733   1.039 -0.2440 -0.1253  0.1348
 6397TIP3    H119197   2.028   5.639   1.023 -1.5286 -0.2406 -0.4909
 6397TIP3    H219198   2.099   5.773   1.026 -0.0116 -1.0054 -1.2919
 6398TIP3   OH219199   3.785   3.351   4.165  0.2864  0.3721  0.4941
 6398TIP3    H119200   3.821   3.295   4.096  0.4592  0.8507  0.1838
 6398TIP3    H219201   3.709   3.393   4.124 -1.2992 -1.4086  1.4651
 6399TIP3   OH219202   1.130   2.671   1.622 -0.0706 -0.1299 -0.0933
 6399TIP3    H119203   1.125   2.620   1.703 -0.8691  0.2572  0.1125
 6399TIP3    H219204   1.063   2.632   1.565 -2.9903  2.5833  1.1949
 6400TIP3   OH219205   1.719   0.509   2.425  0.4116  0.1369  0.2728
 6400TIP3    H119206   1.682   0.482   2.509  1.2751  0.3145  0.7204
 6400TIP3    H219207   1.688   0.444   2.362  1.1585 -0.9941  1.0489
 6401TIP3   OH219208   0.531   3.277   5.068 -0.2161 -0.2903  0.1855
 6401TIP3    H119209   0.593   3.323   5.124  0.5070 -0.9481 -0.0687
 6401TIP3    H219210   0.576   3.266   4.985 -1.0310  0.0663 -0.3201
 6402TIP3   OH219211   0.989   3.705   0.713  0.0539  0.2072 -0.0869
 6402TIP3    H119212   0.998   3.662   0.628 -2.4853 -0.2542 -0.2023
 6402TIP3    H219213   1.010   3.637   0.776  2.5836  0.7256 -0.2902
 6403TIP3   OH219214   5.017   0.799   0.929 -0.8166 -0.6677  0.4446
 6403TIP3    H119215   5.030   0.880   0.978 -2.4499 -1.0681  1.6011
 6403TIP3    H219216   5.088   0.798   0.865 -1.3969  2.2329 -0.3581
 6404TIP3   OH219217   4.560   4.842   1.972  0.3642  0.2416  0.2542
 6404TIP3    H119218   4.520   4.784   2.037 -1.5198  1.2040  0.0147
 6404TIP3    H219219   4.558   4.928   2.013  0.8697  0.5487 -0.3510
 6405TIP3   OH219220   6.350   4.241   2.567 -0.0013 -0.2909  0.0864
 6405TIP3    H119221   6.260   4.267   2.588  0.0473  0.9990 -1.1264
 6405TIP3    H219222   6.388   4.216   2.651 -1.4298 -0.6794  0.6454
 6406TIP3   OH219223   4.769   0.194   1.798 -0.1137 -0.1593  0.2990
 6406TIP3    H119224   4.783   0.101   1.783  0.2930 -0.2150  1.0101
 6406TIP3    H219225   4.743   0.229   1.712 -0.0544 -0.8801 -0.0131
 6407TIP3   OH219226   4.531   5.635   3.197 -0.3748  0.0735  0.2014
 6407TIP3    H119227   4.456   5.693   3.188 -1.0978 -0.9745 -0.7339
 6407TIP3    H219228   4.533   5.614   3.291 -0.0157  1.6744  0.5838
 6408TIP3   OH219229   5.664   2.397   4.564  0.1922  0.4580  0.1847
 6408TIP3    H119230   5.623   2.353   4.489  1.0598 -0.9298  0.4967
 6408TIP3    H219231   5.686   2.326   4.625  0.9756  1.4000  1.0317
 6409TIP3   OH219232   1.708   0.562   0.639  0.8439 -0.0197  0.0923
 6409TIP3    H119233   1.789   0.591   0.597  1.1369  0.5384  1.0147
 6409TIP3    H219234   1.722   0.579   0.732 -1.7988  3.8643 -0.0207
 6410TIP3   OH219235   0.166   3.078   2.690 -0.2969 -0.1806  0.2889
 6410TIP3    H119236   0.240   3.019   2.705  0.9766  1.7380  2.1492
 6410TIP3    H219237   0.130   3.094   2.778  0.3103  2.8530  0.0823
 6411TIP3   OH219238   0.761   0.810   1.129 -0.3130  0.5220  0.9766
 6411TIP3    H119239   0.693   0.763   1.080  0.6579 -1.8208  1.7384
 6411TIP3    H219240   0.728   0.900   1.135 -2.9689 -0.3366  0.6794
 6412TIP3   OH219241   2.321   0.434   2.958 -0.9944 -0.3809 -0.5558
 6412TIP3    H119242   2.297   0.451   2.867 -1.5738 -0.1073 -0.3582
 6412TIP3    H219243   2.293   0.512   3.006 -1.4048 -0.8376 -0.0284
 6413TIP3   OH219244   4.559   3.568   3.703  0.2591  0.0683 -0.1908
 6413TIP3    H119245   4.617   3.563   3.779  0.8007  0.3567 -0.5702
 6413TIP3    H219246   4.561   3.661   3.678  0.1196 -0.0283 -0.5736
 6414TIP3   OH219247   0.531   0.387   0.464 -0.1563  0.0916 -0.4836
 6414TIP3    H119248   0.620   0.374   0.498 -0.0632  0.4341 -0.5994
 6414TIP3    H219249   0.527   0.332   0.385 -0.7806 -1.7409  0.7361
 6415TIP3   OH219250   5.213   4.607   1.878  0.2947  0.3313  0.7123
 6415TIP3    H119251   5.223   4.559   1.796 -2.0735  0.1058  0.4699
 6415TIP3    H219252   5.136   4.662   1.864  1.1909  2.0098  2.0219
 6416TIP3   OH219253   2.903   3.091   4.634 -0.6601  0.3744 -0.0786
 6416TIP3    H119254   2.925   3.061   4.722 -0.1835 -0.9684 -0.6355
 6416TIP3    H219255   2.975   3.061   4.579 -2.2516 -1.2364 -1.3801
 6417TIP3   OH219256   0.754   4.555   3.862 -0.4582 -0.2913  0.4100
 6417TIP3    H119257   0.679   4.529   3.808  0.9280 -1.3295 -1.0675
 6417TIP3    H219258   0.830   4.517   3.819  0.7834 -0.7745  2.8623
 6418TIP3   OH219259   4.854   5.137   2.766  0.0804  0.1849 -0.1483
 6418TIP3    H119260   4.770   5.100   2.738 -0.8545  0.9671  1.4781
 6418TIP3    H219261   4.852   5.132   2.862  0.3766  3.3219  0.1293
 6419TIP3   OH219262   6.279   3.237   1.681 -0.2234  0.6740 -0.5712
 6419TIP3    H119263   6.262   3.321   1.638  2.1355  1.8904  0.6773
 6419TIP3    H219264   6.312   3.181   1.611 -0.8623  1.0970 -1.2279
 6420TIP3   OH219265   0.986   0.996   0.672  0.3747  0.3432 -0.4689
 6420TIP3    H119266   0.954   0.932   0.608 -0.9979  0.0161  0.4923
 6420TIP3    H219267   1.063   0.955   0.710 -0.5841 -0.8470  0.2501
 6421TIP3   OH219268   2.902   1.087   1.034  0.3492 -0.2484 -0.6392
 6421TIP3    H119269   2.958   1.048   1.101 -0.4318 -0.8543 -0.3198
 6421TIP3    H219270   2.886   1.016   0.972 -0.2194 -0.1362 -0.6248
 6422TIP3   OH219271   2.200   1.097   4.937 -0.1850  0.1311 -0.0464
 6422TIP3    H119272   2.242   1.110   5.022  0.4071  0.5855 -0.4028
 6422TIP3    H219273   2.187   1.185   4.903 -1.2328 -0.0123 -0.0456
 6423TIP3   OH219274   3.664   3.302   1.851  0.2577  0.0791 -0.0125
 6423TIP3    H119275   3.648   3.368   1.919  0.0738  0.7203 -0.6653
 6423TIP3    H219276   3.587   3.306   1.795  0.3283 -0.5700 -0.1633
 6424TIP3   OH219277   1.188   2.058   1.840 -0.0991  0.3379 -0.3478
 6424TIP3    H119278   1.213   2.045   1.932  1.0697  0.4567 -0.6380
 6424TIP3    H219279   1.223   2.143   1.817 -1.9603  1.1368 -0.4077
 6425TIP3   OH219280   1.804   5.495   5.020 -0.3393  0.1958 -0.3132
 6425TIP3    H119281   1.847   5.414   4.991 -0.2255  0.2104 -0.1839
 6425TIP3    H219282   1.875   5.551   5.051 -0.5757 -0.3525  1.3263
 6426TIP3   OH219283   2.971   4.891   0.475 -0.0811  0.4186  0.0303
 6426TIP3    H119284   2.990   4.957   0.541 -1.4356  1.0133 -0.1395
 6426TIP3    H219285   3.045   4.896   0.414 -0.5064  2.3467 -0.3989
 6427TIP3   OH219286   4.586   5.150   3.796 -0.5471 -0.0547  0.1835
 6427TIP3    H119287   4.512   5.173   3.853  0.2120  0.8572  0.8500
 6427TIP3    H219288   4.546   5.128   3.712 -1.7243 -1.5545  1.0632
 6428TIP3   OH219289   5.174   0.357   1.853 -0.0136  0.3029  0.3273
 6428TIP3    H119290   5.173   0.453   1.845  1.3724  0.5284  2.1883
 6428TIP3    H219291   5.257   0.338   1.896 -1.0766 -1.6077  1.6576
 6429TIP3   OH219292   6.022   1.106   4.333  0.7412  0.8323  0.2069
 6429TIP3    H119293   6.004   1.108   4.427  0.4535  1.7160  0.1430
 6429TIP3    H219294   6.012   1.014   4.309 -1.2384  0.8666  0.6657
 6430TIP3   OH219295   3.671   1.970   3.002  0.0430 -0.1827  0.1702
 6430TIP3    H119296   3.657   1.916   3.080 -0.6217 -0.5977 -0.2337
 6430TIP3    H219297   3.766   1.978   2.996  0.0935  0.5342  1.4781
 6431TIP3   OH219298   4.506   4.857   0.171 -0.3072 -0.0237  0.2486
 6431TIP3    H119299   4.599   4.868   0.194 -0.3678 -0.6977  0.8440
 6431TIP3    H219300   4.507   4.808   0.089 -0.1237  0.8373 -0.2755
 6432TIP3   OH219301   2.292   0.701   3.047 -0.5313  0.6856 -0.2451
 6432TIP3    H119302   2.327   0.777   3.000  2.8107 -0.3648  0.2951
 6432TIP3    H219303   2.275   0.733   3.135  1.8305  0.6549  0.2727
 6433TIP3   OH219304   0.807   1.379   4.273  0.3093  0.0869  0.3836
 6433TIP3    H119305   0.786   1.403   4.183  0.8643  2.0380  0.7419
 6433TIP3    H219306   0.722   1.359   4.313 -0.3384  2.3369  0.2655
 6434TIP3   OH219307   1.664   1.479   1.559 -0.8335  0.5971  0.5082
 6434TIP3    H119308   1.736   1.424   1.526 -1.9657  0.0246 -1.1298
 6434TIP3    H219309   1.702   1.524   1.635 -0.1993 -3.4218  2.8703
 6435TIP3   OH219310   2.615   2.396   4.433 -0.2784 -0.1157 -0.0791
 6435TIP3    H119311   2.534   2.364   4.474  0.8024 -2.0193  0.7040
 6435TIP3    H219312   2.592   2.404   4.340 -1.1151 -1.6285 -0.0472
 6436TIP3   OH219313   2.430   2.281   2.158  0.3500  0.2020 -0.1192
 6436TIP3    H119314   2.349   2.324   2.131  0.2554 -0.8645 -1.6238
 6436TIP3    H219315   2.499   2.341   2.130  0.1304  0.9969  0.9504
 6437TIP3   OH219316   4.458   2.441   2.153 -0.0461 -0.1072 -0.0533
 6437TIP3    H119317   4.411   2.501   2.211 -0.6751 -0.5807 -0.0596
 6437TIP3    H219318   4.518   2.497   2.104  2.3757  0.0088  2.8191
 6438TIP3   OH219319   1.828   2.445   1.620  0.0595 -0.0159  0.1240
 6438TIP3    H119320   1.795   2.518   1.674 -0.2132  0.0704 -0.1526
 6438TIP3    H219321   1.903   2.481   1.574 -1.0074  0.5797 -1.2069
 6439TIP3   OH219322   4.616   3.036   0.754  0.5016 -0.0616 -0.0844
 6439TIP3    H119323   4.627   3.131   0.745 -1.7066  0.1575 -1.2047
 6439TIP3    H219324   4.704   3.001   0.745  1.4079  1.8726  0.5337
 6440TIP3   OH219325   5.075   5.578   2.249  0.3362  0.1289  0.0354
 6440TIP3    H119326   5.155   5.579   2.302 -1.2218 -1.6369  2.6743
 6440TIP3    H219327   5.054   5.485   2.239 -2.0209  0.5283  0.5669
 6441TIP3   OH219328   0.663   5.577   0.841  0.2967  0.1874 -0.0693
 6441TIP3    H119329   0.723   5.649   0.858  3.0064 -1.8430 -0.4746
 6441TIP3    H219330   0.615   5.604   0.763  0.3356  2.0543  0.5165
 6442TIP3   OH219331   2.119   5.868   0.682 -0.0417  0.3136 -0.0249
 6442TIP3    H119332   2.113   5.908   0.769  1.1293  0.9170 -0.1899
 6442TIP3    H219333   2.124   5.943   0.622 -0.8806 -0.0965 -0.6199
 6443TIP3   OH219334   2.241   0.763   3.302  0.2534 -0.0324  0.3311
 6443TIP3    H119335   2.185   0.748   3.378 -0.7277  1.8915  0.0581
 6443TIP3    H219336   2.268   0.855   3.310 -1.3688  0.8161 -2.5315
 6444TIP3   OH219337   1.431   3.233   2.148  0.7120  0.2558  0.3327
 6444TIP3    H119338   1.399   3.301   2.206 -1.0968 -0.5957  0.4060
 6444TIP3    H219339   1.431   3.153   2.201  2.6924  0.1299  0.2222
 6445TIP3   OH219340   3.305   0.379   0.844  0.0200 -0.0119 -0.3350
 6445TIP3    H119341   3.341   0.468   0.837 -0.8422  0.3548 -0.2240
 6445TIP3    H219342   3.226   0.390   0.898  1.5514 -1.3055  2.3909
 6446TIP3   OH219343   0.524   3.917   3.287 -0.3398  0.1835 -0.0115
 6446TIP3    H119344   0.606   3.949   3.324 -1.0723  1.0951  0.8818
 6446TIP3    H219345   0.497   3.847   3.347  0.1106 -0.5983 -0.6926
 6447TIP3   OH219346   0.886   5.413   2.782  0.6131  0.3653  0.2219
 6447TIP3    H119347   0.815   5.427   2.846  2.1191 -0.3955  2.1637
 6447TIP3    H219348   0.861   5.467   2.707 -1.6309  0.7226  1.1304
 6448TIP3   OH219349   5.504   4.977   1.043  0.0809  0.3725 -0.2832
 6448TIP3    H119350   5.510   4.901   1.102 -0.4917 -0.5988 -1.4365
 6448TIP3    H219351   5.595   4.998   1.022  0.3276  1.0369  1.2843
 6449TIP3   OH219352   6.163   2.691   4.370 -0.3066 -0.0544 -0.1307
 6449TIP3    H119353   6.240   2.634   4.363 -1.0059 -0.9038 -1.0472
 6449TIP3    H219354   6.190   2.772   4.328  0.8074  0.4446  1.4579
 6450TIP3   OH219355   6.129   1.340   3.139  0.2037  0.6510  0.5619
 6450TIP3    H119356   6.115   1.433   3.122 -1.4432  0.3525  0.0883
 6450TIP3    H219357   6.062   1.317   3.204  0.1746 -0.3345  0.2060
 6451TIP3   OH219358   3.579   0.915   2.021  0.5106 -0.1960 -0.1659
 6451TIP3    H119359   3.653   0.892   2.079  0.7901 -0.4282 -0.6062
 6451TIP3    H219360   3.619   0.964   1.950  0.3438 -0.8963 -0.7566
 6452TIP3   OH219361   1.106   4.831   0.367 -0.4207 -0.4810 -0.5898
 6452TIP3    H119362   1.076   4.874   0.447 -2.0994  0.6858 -1.7711
 6452TIP3    H219363   1.041   4.763   0.350  0.4590 -1.3759 -0.4687
 6453TIP3   OH219364   4.578   1.993   4.357 -0.1716  0.7890  0.1982
 6453TIP3    H119365   4.506   1.969   4.298 -0.2796 -0.9687  0.9928
 6453TIP3    H219366   4.535   2.032   4.433 -0.1343  1.4467 -0.1030
 6454TIP3   OH219367   2.659   3.059   0.045 -0.2650 -0.0402 -0.7102
 6454TIP3    H119368   2.606   3.086   0.120  1.1138  3.2845 -0.7584
 6454TIP3    H219369   2.701   2.977   0.073 -0.2525  0.7797  1.9315
 6455TIP3   OH219370   3.387   1.862   4.751 -0.4382 -0.2342 -0.0012
 6455TIP3    H119371   3.371   1.926   4.821  2.0272  0.4079  0.0562
 6455TIP3    H219372   3.374   1.913   4.671 -2.7977 -0.8533 -0.0937
 6456TIP3   OH219373   1.794   1.943   2.233 -0.0143 -0.1952  0.3268
 6456TIP3    H119374   1.754   1.999   2.167 -2.0760  1.5857  2.8334
 6456TIP3    H219375   1.723   1.925   2.295  1.5037 -2.6789  1.5032
 6457TIP3   OH219376   4.150   1.980   3.457 -0.0706 -0.1121  0.3995
 6457TIP3    H119377   4.155   1.911   3.523  0.6974  0.0411  0.5068
 6457TIP3    H219378   4.207   2.049   3.491  1.1051 -0.4192 -0.8751
 6458TIP3   OH219379   2.484   5.518   0.582 -0.1608 -0.3949  0.2649
 6458TIP3    H119380   2.499   5.569   0.502 -1.5786 -0.5461 -0.1343
 6458TIP3    H219381   2.430   5.575   0.637 -0.6797 -0.9572  0.3504
 6459TIP3   OH219382   6.098   5.579   2.524  0.1755 -0.1562  0.0548
 6459TIP3    H119383   6.052   5.498   2.502  0.2230  0.0688 -0.9205
 6459TIP3    H219384   6.139   5.607   2.442 -1.3965  1.8614 -0.1437
 6460TIP3   OH219385   1.159   0.478   1.323 -0.1017 -0.0285  0.2702
 6460TIP3    H119386   1.236   0.514   1.368  0.4399  0.5557 -1.0616
 6460TIP3    H219387   1.090   0.543   1.337  0.2819  0.5280 -0.3578
 6461TIP3   OH219388   2.962   1.949   2.483  0.4203  0.3769 -0.8795
 6461TIP3    H119389   3.018   1.931   2.558 -1.2445 -1.2572  0.0711
 6461TIP3    H219390   2.984   1.881   2.419 -2.1563 -1.9723  0.5510
 6462TIP3   OH219391   4.024   4.282   3.351 -0.2996 -0.6252 -0.1296
 6462TIP3    H119392   3.999   4.342   3.280 -0.6131 -0.3152  0.2336
 6462TIP3    H219393   3.946   4.228   3.365 -0.2988 -0.5698  0.0934
 6463TIP3   OH219394   3.059   3.965   2.418 -0.1755  0.0211  0.0542
 6463TIP3    H119395   2.988   4.011   2.463 -0.5841 -0.6689  0.1321
 6463TIP3    H219396   3.042   3.872   2.435  2.0021 -0.1117  1.9806
 6464TIP3   OH219397   4.292   0.259   2.419 -0.3589 -0.6559 -0.1599
 6464TIP3    H119398   4.230   0.298   2.480  0.3550 -1.8311  1.3923
 6464TIP3    H219399   4.341   0.333   2.384  0.9472 -0.0707  2.6776
 6465TIP3   OH219400   2.718   0.061   0.842 -0.0946 -0.2250 -0.3603
 6465TIP3    H119401   2.651   0.017   0.893 -0.7365  0.6004 -0.4537
 6465TIP3    H219402   2.794   0.064   0.899 -0.3769 -0.5071  0.0375
 6466TIP3   OH219403   2.823   3.085   4.091 -0.0968 -0.4647  0.2310
 6466TIP3    H119404   2.906   3.050   4.123  0.3562  1.7106  1.6804
 6466TIP3    H219405   2.846   3.166   4.046 -1.2985 -0.6402 -0.7433
 6467TIP3   OH219406   2.926   2.453   3.381 -0.1468  0.1242 -0.3486
 6467TIP3    H119407   2.964   2.535   3.350 -0.4425  0.4150  0.0540
 6467TIP3    H219408   2.879   2.477   3.461 -0.6160 -0.3544 -0.4774
 6468TIP3   OH219409   3.152   2.869   0.697 -0.1220 -0.1261  0.2409
 6468TIP3    H119410   3.219   2.876   0.630  1.2629  0.0790  1.6021
 6468TIP3    H219411   3.146   2.956   0.735 -2.3624  0.3082 -0.9109
 6469TIP3   OH219412   4.671   5.529   1.114 -0.0022  0.0548  0.0821
 6469TIP3    H119413   4.748   5.524   1.170  0.6236  1.7573 -0.5432
 6469TIP3    H219414   4.618   5.453   1.138  2.0818 -1.4280  0.1941
 6470TIP3   OH219415   5.282   1.749   3.348 -0.0357 -0.0668  0.5020
 6470TIP3    H119416   5.208   1.755   3.288  1.5268  1.3101 -1.3969
 6470TIP3    H219417   5.358   1.776   3.297  1.7660 -1.0082  2.4829
 6471TIP3   OH219418   0.646   5.813   1.129  0.2410  0.2359 -0.4763
 6471TIP3    H119419   0.703   5.804   1.052 -0.0484 -0.6213 -0.6031
 6471TIP3    H219420   0.657   5.731   1.177 -1.9675 -0.6356 -1.2758
 6472TIP3   OH219421   1.261   3.376   5.169  0.2464 -0.0144 -0.5284
 6472TIP3    H119422   1.341   3.398   5.216  0.2666 -0.4585 -0.3402
 6472TIP3    H219423   1.290   3.325   5.093  0.0190 -4.8004  2.1445
 6473TIP3   OH219424   4.660   0.293   1.577 -0.4282 -0.5101 -0.5270
 6473TIP3    H119425   4.572   0.264   1.601 -0.9657  0.3299 -1.4310
 6473TIP3    H219426   4.646   0.357   1.508  0.7546  1.2283  0.7703
 6474TIP3   OH219427   5.819   1.990   0.899  0.2246  0.0312 -0.6155
 6474TIP3    H119428   5.860   1.933   0.834  0.3499 -1.0608  0.3841
 6474TIP3    H219429   5.726   1.971   0.892  0.4113 -1.8648  1.0720
 6475TIP3   OH219430   0.614   0.353   1.401  0.2243 -0.1127  0.0815
 6475TIP3    H119431   0.570   0.293   1.461  0.8501 -0.3687  0.2845
 6475TIP3    H219432   0.704   0.358   1.432  0.3335  0.4534 -0.3025
 6476TIP3   OH219433   4.766   3.267   1.632 -1.1465 -0.2325  0.2152
 6476TIP3    H119434   4.755   3.172   1.625 -0.1263 -0.3655  0.2914
 6476TIP3    H219435   4.840   3.287   1.574  0.4045  0.1319  2.2290
 6477TIP3   OH219436   5.955   5.892   4.021  0.0954 -0.3818  0.4952
 6477TIP3    H119437   5.924   5.959   4.081  0.7381 -0.4264  0.8843
 6477TIP3    H219438   6.045   5.875   4.048 -0.2434 -1.8415  0.8123
 6478TIP3   OH219439   5.350   1.418   1.234  0.1817  0.5234 -0.1956
 6478TIP3    H119440   5.403   1.338   1.236  1.2967  1.1774 -1.6446
 6478TIP3    H219441   5.394   1.477   1.296 -0.2162  0.2836  0.3245
 6479TIP3   OH219442   4.224   1.087   0.767 -0.2267 -0.5454 -0.3506
 6479TIP3    H119443   4.143   1.051   0.731 -1.7240  0.5749  1.7317
 6479TIP3    H219444   4.200   1.118   0.854  2.0221  1.4549 -0.3506
 6480TIP3   OH219445   3.703   0.076   2.909 -0.5268  0.3449 -0.0598
 6480TIP3    H119446   3.743  -0.010   2.899 -0.2638  0.6034 -1.4422
 6480TIP3    H219447   3.750   0.132   2.847  0.2872  1.8628  1.8163
 6481TIP3   OH219448   6.207   3.217   2.019  0.3892 -0.1793 -0.3383
 6481TIP3    H119449   6.298   3.188   2.026  0.8054  1.1545  0.2654
 6481TIP3    H219450   6.169   3.199   2.106  0.6109  0.8665 -0.0057
 6482TIP3   OH219451   1.272   5.927   0.561 -0.3103 -0.4427  0.3622
 6482TIP3    H119452   1.246   6.017   0.580  2.0294  0.0713  1.3722
 6482TIP3    H219453   1.233   5.876   0.633  1.5668  0.3570  2.0362
 6483TIP3   OH219454   4.789   1.382   0.553  0.1921  0.3122 -0.6799
 6483TIP3    H119455   4.885   1.375   0.555  0.0363 -2.4867 -0.0763
 6483TIP3    H219456   4.767   1.373   0.460  0.4404 -0.3093 -0.6800
 6484TIP3   OH219457   4.167   4.855   4.320 -0.2530  0.0257 -0.5680
 6484TIP3    H119458   4.159   4.893   4.407 -1.2939  0.0938 -0.6774
 6484TIP3    H219459   4.141   4.763   4.331 -0.2048 -0.0138 -0.7695
 6485TIP3   OH219460   4.291   1.129   4.208 -0.0845  0.1364  0.4071
 6485TIP3    H119461   4.263   1.202   4.264 -0.7080 -0.0444  0.3371
 6485TIP3    H219462   4.266   1.156   4.120 -0.5433 -0.2609  0.4103
 6486TIP3   OH219463   4.280   5.684   2.569 -0.7368  0.7571 -0.1295
 6486TIP3    H119464   4.314   5.759   2.520 -1.0998  1.7554  1.0790
 6486TIP3    H219465   4.239   5.723   2.647 -1.2010 -0.6817  0.3789
 6487TIP3   OH219466   1.829   0.642   4.106  0.3572  0.3557  0.1797
 6487TIP3    H119467   1.767   0.647   4.178  0.4188  0.6210  0.2173
 6487TIP3    H219468   1.837   0.549   4.087  0.0097  0.3136  0.2277
 6488TIP3   OH219469   2.261   3.718   0.519 -0.0471  0.2852 -0.0142
 6488TIP3    H119470   2.354   3.699   0.510 -0.0626  0.4479 -0.5790
 6488TIP3    H219471   2.255   3.773   0.597  0.5068  1.4500 -0.7746
 6489TIP3   OH219472   0.445   4.803   1.873 -1.1648 -0.2288 -0.3840
 6489TIP3    H119473   0.428   4.858   1.950  0.1533 -0.1312 -0.1394
 6489TIP3    H219474   0.525   4.756   1.894 -1.2858 -0.8925 -1.3365
 6490TIP3   OH219475   2.204   4.786   1.450 -0.1232  0.0780  0.0270
 6490TIP3    H119476   2.204   4.765   1.357 -1.6595  0.5995 -0.1154
 6490TIP3    H219477   2.245   4.709   1.492 -1.0743 -0.9803 -0.9150
 6491TIP3   OH219478   4.125   2.823   2.087 -0.1044  0.1742  0.6109
 6491TIP3    H119479   4.137   2.750   2.147 -0.2522 -0.6652 -0.3547
 6491TIP3    H219480   4.107   2.782   2.003  1.6382  1.2991 -0.3670
 6492TIP3   OH219481   0.996   4.950   0.609  0.2402  0.2643 -0.5204
 6492TIP3    H119482   1.052   5.027   0.620  0.5574  0.0661 -0.7323
 6492TIP3    H219483   0.914   4.973   0.653  0.6137  0.4249  0.0963
 6493TIP3   OH219484   5.207   3.052   1.903 -0.0314 -0.8223  0.1070
 6493TIP3    H119485   5.251   3.064   1.987  0.6713 -0.4309 -0.3064
 6493TIP3    H219486   5.263   2.992   1.855 -0.2415 -0.7616 -0.2176
 6494TIP3   OH219487   2.593   2.559   3.995  0.0053  0.2615  0.0018
 6494TIP3    H119488   2.530   2.622   4.032 -0.1701  0.0230  0.1088
 6494TIP3    H219489   2.669   2.613   3.973  0.0999  0.4155  0.6716
 6495TIP3   OH219490   2.837   5.414   1.365 -0.0654  0.4712  0.8900
 6495TIP3    H119491   2.754   5.452   1.391  0.3682  0.0108  3.1440
 6495TIP3    H219492   2.815   5.355   1.292 -1.3397  1.9015  0.0791
 6496TIP3   OH219493   6.015   2.646   1.220  0.3404 -0.0198 -0.9357
 6496TIP3    H119494   6.095   2.600   1.197  0.6967 -0.0838  0.3698
 6496TIP3    H219495   6.044   2.718   1.276 -0.6297 -0.9797  0.8977
 6497TIP3   OH219496   4.972   4.738   4.583 -0.2191 -0.0396 -0.0087
 6497TIP3    H119497   4.889   4.768   4.547  0.9474  1.0097 -1.9878
 6497TIP3    H219498   4.986   4.651   4.545 -0.6373 -0.4634  0.7704
 6498TIP3   OH219499   4.572   0.266   5.099  0.6077  0.0776 -0.0472
 6498TIP3    H119500   4.562   0.344   5.045  0.2486  0.7481  0.9620
 6498TIP3    H219501   4.663   0.240   5.087  0.1618 -0.7455 -2.2178
 6499TIP3   OH219502   2.537   1.855   2.166  0.1700 -0.1641 -0.2197
 6499TIP3    H119503   2.456   1.812   2.139 -0.1941  0.5007 -0.2075
 6499TIP3    H219504   2.552   1.922   2.100  0.3886  0.1132  0.1100
 6500TIP3   OH219505   0.692   2.071   3.215 -0.5054 -0.0453 -0.3323
 6500TIP3    H119506   0.773   2.035   3.179  0.5858  2.1046 -0.2030
 6500TIP3    H219507   0.697   2.050   3.309  0.6365  1.2647 -0.0662
 6501TIP3   OH219508   3.191   5.707   3.386  0.4776 -0.8481  0.2366
 6501TIP3    H119509   3.249   5.669   3.452  1.7523 -0.1222 -0.4330
 6501TIP3    H219510   3.230   5.683   3.302 -0.3207 -0.5204 -0.2450
 6502TIP3   OH219511   1.608   2.605   3.304 -0.0393  0.0098  0.5544
 6502TIP3    H119512   1.676   2.574   3.244  1.2946 -0.4237  2.2027
 6502TIP3    H219513   1.526   2.589   3.258  0.9434  0.5834 -1.5330
 6503TIP3   OH219514   5.425   2.425   0.478 -0.4406  0.1228  0.0542
 6503TIP3    H119515   5.332   2.424   0.499 -0.3934  0.7671  0.3312
 6503TIP3    H219516   5.468   2.442   0.562  0.0923 -2.5416  0.4142
 6504TIP3   OH219517   5.232   0.986   1.991  0.2172 -0.4441  0.2660
 6504TIP3    H119518   5.184   0.921   2.042  1.7883 -0.8134  1.3687
 6504TIP3    H219519   5.191   1.069   2.013 -1.2195 -0.9401 -0.4441
 6505TIP3   OH219520   5.560   5.772   3.032  0.5818  0.1869 -0.1880
 6505TIP3    H119521   5.603   5.737   2.953  0.7971 -0.0342  0.0245
 6505TIP3    H219522   5.561   5.867   3.020 -0.6564  0.1127 -1.1146
 6506TIP3   OH219523   0.476   1.241   4.484 -0.3052 -0.2861 -0.2813
 6506TIP3    H119524   0.461   1.176   4.552 -0.8418 -0.7781 -0.8563
 6506TIP3    H219525   0.549   1.294   4.517 -0.6319 -0.4393  0.7149
 6507TIP3   OH219526   2.509   1.498   2.564 -0.0515 -0.2598 -0.3249
 6507TIP3    H119527   2.588   1.454   2.532 -0.0122 -0.5404  0.1503
 6507TIP3    H219528   2.486   1.451   2.644 -0.3595  0.2016 -0.1398
 6508TIP3   OH219529   3.278   3.387   0.977  0.4702 -0.0976  0.0143
 6508TIP3    H119530   3.234   3.328   1.038 -0.1608  0.2881 -0.0655
 6508TIP3    H219531   3.279   3.471   1.022  0.4450  0.0721 -0.3029
 6509TIP3   OH219532   3.666   5.006   0.937 -0.0907  0.2954  1.0038
 6509TIP3    H119533   3.760   5.023   0.944  0.3049 -1.7003  1.1914
 6509TIP3    H219534   3.628   5.051   1.012  0.3032  3.3159 -0.4458
 6510TIP3   OH219535   5.640   4.478   0.713 -0.6040 -0.3927  0.2233
 6510TIP3    H119536   5.566   4.430   0.752 -1.7192  0.0765 -1.1898
 6510TIP3    H219537   5.599   4.538   0.650  1.0360 -1.2917 -1.8523
 6511TIP3   OH219538   1.370   5.147   1.468 -0.0941  0.0815  0.1933
 6511TIP3    H119539   1.358   5.060   1.429 -0.4031 -0.9116  2.3921
 6511TIP3    H219540   1.282   5.183   1.473  0.0438  0.6063 -0.8048
 6512TIP3   OH219541   2.132   3.233   5.109  0.4608 -0.2226  0.8256
 6512TIP3    H119542   2.179   3.175   5.169  1.1325  0.5839  1.1062
 6512TIP3    H219543   2.169   3.319   5.126 -1.7735  0.6416  1.7321
 6513TIP3   OH219544   1.140   0.172   4.665 -0.1873 -0.2694 -0.3015
 6513TIP3    H119545   1.182   0.234   4.604  2.5415 -0.6954  1.0139
 6513TIP3    H219546   1.062   0.218   4.695 -0.2650  0.9633 -2.2166
 6514TIP3   OH219547   5.499   3.383   0.567 -0.1376 -0.0050  0.0227
 6514TIP3    H119548   5.514   3.401   0.659  1.4974 -1.2941  0.0408
 6514TIP3    H219549   5.405   3.400   0.555 -0.0210  1.9951  1.4517
 6515TIP3   OH219550   4.052   0.358   1.553 -0.3830  0.2169  0.1605
 6515TIP3    H119551   4.011   0.272   1.558 -0.3490  0.1937  0.0411
 6515TIP3    H219552   4.142   0.341   1.526 -0.8483  0.3989 -1.7012
 6516TIP3   OH219553   4.679   1.993   0.595  0.0240  0.0977 -0.0160
 6516TIP3    H119554   4.650   2.052   0.526 -2.0547 -3.3656 -2.4660
 6516TIP3    H219555   4.774   1.989   0.584  0.1043  2.1049 -0.4398
 6517TIP3   OH219556   3.762   5.849   3.850 -0.3293 -0.2406 -0.4928
 6517TIP3    H119557   3.788   5.901   3.926 -1.6254 -0.2573 -0.0071
 6517TIP3    H219558   3.794   5.898   3.775 -0.9059  0.8929 -0.0186
 6518TIP3   OH219559   3.954   4.082   0.372  0.0056  0.0968  0.4564
 6518TIP3    H119560   3.954   4.110   0.464  2.9262  3.1225 -0.2517
 6518TIP3    H219561   3.868   4.108   0.339 -0.5401  0.3365  1.9577
 6519TIP3   OH219562   4.451   2.027   4.601  0.7306 -1.2375  0.6129
 6519TIP3    H119563   4.372   2.037   4.654  0.4266  1.1464 -0.2029
 6519TIP3    H219564   4.483   1.939   4.623 -1.2292 -1.6334  2.1715
 6520TIP3   OH219565   1.638   3.021   0.497  0.2026  0.0834 -0.2188
 6520TIP3    H119566   1.682   3.008   0.581  1.4118  0.2969 -0.8120
 6520TIP3    H219567   1.552   3.056   0.521  1.3259  2.3285  0.8608
 6521TIP3   OH219568   4.166   4.119   2.775 -0.3001 -0.3312  0.1733
 6521TIP3    H119569   4.109   4.043   2.771 -1.9757  0.8881 -0.3410
 6521TIP3    H219570   4.154   4.163   2.690  3.1970 -1.1860 -0.9673
 6522TIP3   OH219571   4.586   0.723   1.932 -0.0771  0.7360  0.4701
 6522TIP3    H119572   4.655   0.707   1.997  0.3451  0.0360 -0.1410
 6522TIP3    H219573   4.506   0.727   1.984 -0.4684 -4.3042  0.7393
 6523TIP3   OH219574   3.816   2.235   4.676 -0.1017 -0.1667  0.1169
 6523TIP3    H119575   3.731   2.267   4.706 -0.6529 -1.1486 -0.3398
 6523TIP3    H219576   3.830   2.279   4.592 -0.8516 -1.0725 -0.5046
 6524TIP3   OH219577   3.786   2.368   2.414 -0.2717 -0.1171  0.0834
 6524TIP3    H119578   3.729   2.335   2.344 -1.6918  1.4188  0.4624
 6524TIP3    H219579   3.821   2.450   2.381 -0.3938  0.2682  0.8733
 6525TIP3   OH219580   4.896   5.301   4.355 -0.2679  0.0987  0.0482
 6525TIP3    H119581   4.855   5.366   4.412 -0.0575 -0.4784  0.8860
 6525TIP3    H219582   4.849   5.307   4.272  0.3584  1.9777 -0.2181
 6526TIP3   OH219583   5.195   0.094   3.251  0.0436  0.2865 -0.5429
 6526TIP3    H119584   5.224   0.156   3.318 -0.1726 -0.4435  0.2402
 6526TIP3    H219585   5.102   0.084   3.267  0.2603 -1.0252  0.0191
 6527TIP3   OH219586   3.439   2.796   1.967 -0.1286 -0.0805  0.0297
 6527TIP3    H119587   3.407   2.817   1.879 -1.9579 -0.3917  0.5776
 6527TIP3    H219588   3.470   2.706   1.960  2.4711  0.8022 -0.9512
 6528TIP3   OH219589   1.352   2.524   2.684 -0.6046  0.0056  0.0617
 6528TIP3    H119590   1.415   2.455   2.662 -0.4599  0.0017  0.4707
 6528TIP3    H219591   1.279   2.478   2.725 -0.7441  0.0413 -0.1454
 6529TIP3   OH219592   1.457   2.761   2.181  0.3784  0.1177 -0.3505
 6529TIP3    H119593   1.483   2.817   2.107 -1.3242 -0.4611 -1.4577
 6529TIP3    H219594   1.414   2.821   2.242 -1.5780  0.0863 -1.6020
 6530TIP3   OH219595   4.775   1.551   4.247  0.2183 -0.1962 -0.5501
 6530TIP3    H119596   4.706   1.490   4.220  1.1804 -1.4696 -0.1991
 6530TIP3    H219597   4.839   1.496   4.292 -0.3649  1.5032  2.6565
 6531TIP3   OH219598   3.880   2.711   3.170 -0.0346 -0.1960 -0.1405
 6531TIP3    H119599   3.856   2.787   3.222  0.7009 -0.7186  1.0219
 6531TIP3    H219600   3.973   2.723   3.151  0.7533 -1.8770  2.1234
 6532TIP3   OH219601   5.900   0.373   0.302 -0.1087 -0.3925 -0.3314
 6532TIP3    H119602   5.880   0.347   0.392 -0.9587  1.0848 -0.0693
 6532TIP3    H219603   5.981   0.326   0.281 -1.2303 -2.7273  0.2893
 6533TIP3   OH219604   2.181   3.971   1.584 -0.0650 -0.1711  0.1517
 6533TIP3    H119605   2.239   3.894   1.590 -1.6618 -1.4087  0.5134
 6533TIP3    H219606   2.103   3.946   1.634 -0.3596  1.9916  0.8764
 6534TIP3   OH219607   6.261   5.832   1.887 -0.1267 -0.1433  0.0549
 6534TIP3    H119608   6.336   5.859   1.939 -1.5785  0.8423  1.7413
 6534TIP3    H219609   6.293   5.758   1.835  1.7106 -0.4337  1.5053
 6535TIP3   OH219610   0.859   1.695   0.619  0.4085 -0.3991  0.3934
 6535TIP3    H119611   0.909   1.692   0.701 -0.2295 -0.6629  0.7762
 6535TIP3    H219612   0.822   1.607   0.611 -0.8075  0.0854  0.6181
 6536TIP3   OH219613   0.855   2.001   1.450  0.0736  0.3467  0.2552
 6536TIP3    H119614   0.924   1.948   1.490  0.1407 -0.4901 -0.9275
 6536TIP3    H219615   0.839   2.071   1.513 -0.2529 -1.2652  2.0646
 6537TIP3   OH219616   1.253   3.008   4.111 -0.3633 -0.0352  0.2221
 6537TIP3    H119617   1.266   3.039   4.021 -0.2761  0.0414  0.2609
 6537TIP3    H219618   1.338   2.973   4.137 -0.4455 -0.2491  0.2018
 6538TIP3   OH219619   2.961   2.725   2.434 -0.0705 -0.0597  0.1395
 6538TIP3    H119620   2.947   2.789   2.364 -0.5072  0.8881  1.0687
 6538TIP3    H219621   2.883   2.669   2.432  0.5029 -0.8607 -0.9498
 6539TIP3   OH219622   1.857   5.500   0.585  0.2636  0.0063 -0.1374
 6539TIP3    H119623   1.850   5.478   0.492 -0.7084  2.4538 -0.7087
 6539TIP3    H219624   1.783   5.456   0.626  0.7644 -1.1847 -0.4612
 6540TIP3   OH219625   1.571   3.950   2.600 -0.1715 -0.4793 -0.4110
 6540TIP3    H119626   1.557   3.890   2.673 -2.0713  0.1310 -0.2057
 6540TIP3    H219627   1.576   4.037   2.641 -1.2994 -0.1249 -0.9749
 6541TIP3   OH219628   1.174   2.913   0.687 -0.4574  0.1042 -0.1926
 6541TIP3    H119629   1.263   2.891   0.659 -0.9604 -3.0947  0.2705
 6541TIP3    H219630   1.185   2.958   0.771  0.7423  1.9597 -1.2909
 6542TIP3   OH219631   0.002   4.753   0.158  0.1260 -0.2391 -0.0934
 6542TIP3    H119632   0.030   4.844   0.150  1.1806 -0.5724 -0.4160
 6542TIP3    H219633  -0.016   4.726   0.068 -0.4341 -0.2715  0.0291
 6543TIP3   OH219634   2.276   0.289   4.713 -0.2339  0.0398 -0.4434
 6543TIP3    H119635   2.218   0.361   4.690  0.4671 -0.0386 -2.6307
 6543TIP3    H219636   2.282   0.236   4.634  1.5167 -0.8373  0.2146
 6544TIP3   OH219637   2.783   2.814   0.661 -0.2610 -0.0435 -0.3434
 6544TIP3    H119638   2.863   2.867   0.652 -1.1787  1.3954 -0.3039
 6544TIP3    H219639   2.815   2.727   0.687  1.3248  0.3394 -0.8987
 6545TIP3   OH219640   4.528   0.068   0.710  0.3619 -0.0759  0.2679
 6545TIP3    H119641   4.499   0.159   0.705 -0.2222 -0.3164 -1.2382
 6545TIP3    H219642   4.473   0.029   0.778 -0.0569  0.4600  0.2421
 6546TIP3   OH219643   1.822   3.728   0.104 -0.6486 -0.4393  0.7290
 6546TIP3    H119644   1.912   3.750   0.083 -1.3438  1.1471 -0.8216
 6546TIP3    H219645   1.822   3.713   0.198  0.6942  2.4674  1.2770
 6547TIP3   OH219646   0.063   5.941   3.316  0.4016 -0.2342  0.5242
 6547TIP3    H119647   0.046   5.961   3.224  0.8586 -0.5359  0.3751
 6547TIP3    H219648   0.027   5.853   3.329 -0.4719  0.1523  0.8674
 6548TIP3   OH219649   3.453   5.667   1.754 -0.2399  0.1593  0.9549
 6548TIP3    H119650   3.408   5.606   1.696  0.1415  0.9226 -0.1663
 6548TIP3    H219651   3.499   5.610   1.817  0.0120 -0.7075  0.0184
 6549TIP3   OH219652   1.963   2.598   4.955 -0.6046 -0.1558  0.4263
 6549TIP3    H119653   1.914   2.672   4.989  1.3960  0.7754  1.4630
 6549TIP3    H219654   1.987   2.547   5.032  1.1485  0.1493  0.1221
 6550TIP3   OH219655   0.558   4.960   5.134  0.5946 -0.2420  0.4949
 6550TIP3    H119656   0.587   4.876   5.099  0.4366 -0.3789  0.6926
 6550TIP3    H219657   0.623   4.982   5.200  0.7281 -0.1269  0.3270
 6551TIP3   OH219658   1.374   4.425   4.076  0.0087  0.1106 -0.0345
 6551TIP3    H119659   1.362   4.511   4.115 -1.3962  0.1059 -0.4215
 6551TIP3    H219660   1.294   4.377   4.098  0.4017 -0.8106 -0.5556
 6552TIP3   OH219661   3.010   3.895   3.117 -0.6739  0.0763 -0.1766
 6552TIP3    H119662   3.053   3.979   3.102 -0.0825  0.0827  1.4403
 6552TIP3    H219663   2.941   3.892   3.051  0.0003  1.3184 -0.9900
 6553TIP3   OH219664   1.729   0.854   3.848 -0.5315 -0.0923  0.1614
 6553TIP3    H119665   1.802   0.870   3.909  0.6115 -0.2002 -1.1219
 6553TIP3    H219666   1.738   0.761   3.824 -0.6417  0.0760 -0.5568
 6554TIP3   OH219667   4.129   5.179   4.360 -0.5301  0.2046  0.2733
 6554TIP3    H119668   4.096   5.187   4.450  1.5770 -0.1826  1.1490
 6554TIP3    H219669   4.089   5.099   4.327 -3.3956  1.6810 -0.1495
 6555TIP3   OH219670   2.458   3.524   3.839 -0.5315 -0.0379  0.5343
 6555TIP3    H119671   2.462   3.456   3.772 -0.1706  0.3142  0.1853
 6555TIP3    H219672   2.542   3.570   3.830 -1.4204  1.4883 -0.3617
 6556TIP3   OH219673   3.937   5.357   4.895 -0.2267 -0.3287  0.2373
 6556TIP3    H119674   4.031   5.356   4.916 -0.0463  0.2290 -0.4918
 6556TIP3    H219675   3.934   5.346   4.800 -0.8954 -0.1948  0.2424
 6557TIP3   OH219676   1.880   3.588   2.998  0.1547 -0.5357 -0.0778
 6557TIP3    H119677   1.943   3.524   2.965 -0.4238 -0.7889 -0.7136
 6557TIP3    H219678   1.911   3.609   3.086  2.4129  1.0642 -1.1723
 6558TIP3   OH219679   4.272   5.000   0.187 -0.1228  0.2120  0.5421
 6558TIP3    H119680   4.298   5.074   0.243  1.3467  1.0246 -1.1057
 6558TIP3    H219681   4.341   4.935   0.199 -0.6747 -0.3111  0.9158
 6559TIP3   OH219682   1.508   2.985   4.165  0.4101  0.3302  0.5198
 6559TIP3    H119683   1.560   2.916   4.207  1.1911 -0.0535 -0.9855
 6559TIP3    H219684   1.530   3.064   4.213  1.0591 -0.1374  1.0121
 6560TIP3   OH219685   1.530   0.862   0.234 -0.4247 -0.2739 -0.3610
 6560TIP3    H119686   1.562   0.881   0.322 -1.8040 -1.6582  0.4957
 6560TIP3    H219687   1.579   0.784   0.207 -1.4370 -1.0678  0.0428
 6561TIP3   OH219688   3.882   3.955   5.136  0.4843  0.3617  0.1937
 6561TIP3    H119689   3.798   3.923   5.169  1.2421  0.8485  2.8243
 6561TIP3    H219690   3.920   3.879   5.092 -0.8486 -0.1618 -0.1247
 6562TIP3   OH219691   3.365   1.989   1.103  0.1609 -0.0239  0.4152
 6562TIP3    H119692   3.271   2.002   1.112  0.1249 -0.4547  0.6652
 6562TIP3    H219693   3.393   2.060   1.045 -0.6067 -0.9379 -1.1412
 6563TIP3   OH219694   2.716   0.242   3.606  0.0158  0.3371  0.0768
 6563TIP3    H119695   2.625   0.238   3.634  0.0281 -0.6098  0.0225
 6563TIP3    H219696   2.720   0.185   3.529  0.2629  1.8582 -1.0899
 6564TIP3   OH219697   1.905   4.989   1.739 -0.5342  0.2776  0.1194
 6564TIP3    H119698   1.846   4.914   1.745  0.1048 -0.3955 -1.4334
 6564TIP3    H219699   1.948   4.979   1.654  1.9448  0.6554  1.2493
 6565TIP3   OH219700   5.133   4.744   2.482  0.3644  0.3099 -0.0583
 6565TIP3    H119701   5.077   4.789   2.545 -0.6210 -1.6263  0.5405
 6565TIP3    H219702   5.206   4.803   2.468  0.6805  0.8118  3.0093
 6566TIP3   OH219703   0.321   5.814   4.079 -0.0540  0.3061  0.6344
 6566TIP3    H119704   0.298   5.885   4.020 -0.1246 -0.6664 -0.5350
 6566TIP3    H219705   0.399   5.774   4.040 -0.7328 -1.0367  0.5731
 6567TIP3   OH219706   5.637   4.561   0.297  0.0137  0.2801  0.2334
 6567TIP3    H119707   5.562   4.515   0.334  1.1255 -0.4841  1.6576
 6567TIP3    H219708   5.623   4.653   0.320 -0.8458  0.2501 -0.1668
 6568TIP3   OH219709   3.106   1.020   0.527  0.3141  0.1994 -0.7082
 6568TIP3    H119710   3.099   0.976   0.442 -1.3492  1.1525 -1.1160
 6568TIP3    H219711   3.026   0.994   0.573  1.1578 -0.2446  0.5681
 6569TIP3   OH219712   0.265   5.291   4.887  0.0978 -0.3453  0.1536
 6569TIP3    H119713   0.182   5.272   4.930 -0.5975 -1.1449 -1.4483
 6569TIP3    H219714   0.302   5.206   4.865 -0.1731  0.0054 -1.8606
 6570TIP3   OH219715   0.282   4.131   3.067  0.2463 -0.1774 -0.2615
 6570TIP3    H119716   0.357   4.189   3.058  1.1517 -1.1183  0.9092
 6570TIP3    H219717   0.257   4.138   3.159 -1.5955  0.6685 -0.7747
 6571TIP3   OH219718   2.861   1.951   1.085 -0.1227 -0.3507 -0.9078
 6571TIP3    H119719   2.836   1.860   1.070  0.3235 -0.2414 -2.4451
 6571TIP3    H219720   2.821   2.000   1.012 -2.4576  1.1210  1.1671
 6572TIP3   OH219721   3.863   4.086   2.282 -0.4146 -0.0273 -0.0511
 6572TIP3    H119722   3.888   4.092   2.190 -0.8575  2.0848 -0.0826
 6572TIP3    H219723   3.805   4.010   2.287 -0.0306 -0.4288 -1.4175
 6573TIP3   OH219724   2.254   2.975   4.661 -0.0162  0.3164 -0.6682
 6573TIP3    H119725   2.194   3.036   4.617 -0.4826  0.5852  0.3054
 6573TIP3    H219726   2.234   2.890   4.622 -0.9108  0.4342 -0.4872
 6574TIP3   OH219727   5.356   0.723   2.602 -0.5880 -0.7896  0.1709
 6574TIP3    H119728   5.382   0.790   2.666 -0.7170  0.5036 -1.0953
 6574TIP3    H219729   5.390   0.642   2.639 -0.5747 -0.0838  1.8482
 6575TIP3   OH219730   2.759   1.536   3.323 -0.4276 -0.0443  0.1952
 6575TIP3    H119731   2.854   1.535   3.317  0.0019 -1.2108  4.4373
 6575TIP3    H219732   2.736   1.454   3.366 -3.5496 -0.2838 -1.6174
 6576TIP3   OH219733   1.172   0.436   1.041  0.3585 -0.1222 -0.0216
 6576TIP3    H119734   1.169   0.440   1.136  1.5004 -0.0227  0.0175
 6576TIP3    H219735   1.127   0.355   1.019 -4.1203  1.9548  0.3085
 6577TIP3   OH219736   1.173   0.931   1.124  0.4458  0.3924  0.4979
 6577TIP3    H119737   1.148   0.930   1.217  0.9160 -0.0142  0.6181
 6577TIP3    H219738   1.242   0.866   1.117 -1.7344 -1.9579 -0.7451
 6578TIP3   OH219739   1.759   0.148   3.502  0.4380  0.4761 -0.2853
 6578TIP3    H119740   1.770   0.128   3.409  0.8033 -1.5108  0.1391
 6578TIP3    H219741   1.802   0.076   3.547 -2.1223 -0.0989  1.4584
 6579TIP3   OH219742   0.644   4.948   3.092 -0.1786 -0.3993  0.0670
 6579TIP3    H119743   0.620   5.033   3.054  1.6996  0.2853  0.3182
 6579TIP3    H219744   0.613   4.884   3.028 -0.4839  0.5363 -0.7603
 6580TIP3   OH219745   1.199   2.646   0.756 -0.3716  0.3320  0.2413
 6580TIP3    H119746   1.182   2.659   0.849  0.6058  0.0702  0.4674
 6580TIP3    H219747   1.115   2.664   0.714 -0.5971  1.3900  1.0817
 6581TIP3   OH219748   0.449   3.154   0.171  0.1262  0.7305  0.0378
 6581TIP3    H119749   0.416   3.070   0.139  2.2322 -0.2771  0.3657
 6581TIP3    H219750   0.409   3.219   0.114  2.2094 -0.8291 -3.5102
 6582TIP3   OH219751   3.731   4.256   2.460  0.1051 -0.6180  0.1322
 6582TIP3    H119752   3.769   4.188   2.406  0.1982 -0.0259 -0.5687
 6582TIP3    H219753   3.712   4.328   2.399  0.9940  0.3941  1.0059
 6583TIP3   OH219754   2.819   2.819   0.122 -0.0053 -0.6373 -0.5069
 6583TIP3    H119755   2.895   2.820   0.064 -1.9000  1.6690 -3.2497
 6583TIP3    H219756   2.766   2.744   0.093  0.3550 -1.1695  0.1885
 6584TIP3   OH219757   2.722   4.784   1.819  0.0784 -0.6598  0.8503
 6584TIP3    H119758   2.754   4.749   1.902  2.7991 -2.1739 -0.7015
 6584TIP3    H219759   2.721   4.708   1.760  0.9843  0.8639 -1.2398
 6585TIP3   OH219760   4.247   5.593   1.997  0.2004 -0.4040  0.2940
 6585TIP3    H119761   4.171   5.536   2.009 -0.3617  0.1280 -0.5792
 6585TIP3    H219762   4.213   5.681   2.006 -0.1342  0.0642 -3.5899
 6586TIP3   OH219763   5.369   1.099   1.531 -0.4226 -0.0088 -0.1340
 6586TIP3    H119764   5.439   1.163   1.516  0.0505 -0.3611  0.5297
 6586TIP3    H219765   5.334   1.122   1.618 -0.9363 -0.0138 -0.3386
 6587TIP3   OH219766   6.252   5.724   4.881  0.0444  0.3449 -0.3405
 6587TIP3    H119767   6.217   5.778   4.811  0.0994 -0.1281 -0.7379
 6587TIP3    H219768   6.331   5.684   4.844  0.7543  1.0408  0.3934
 6588TIP3   OH219769   0.179   5.576   3.232  0.5730 -0.2805 -0.1981
 6588TIP3    H119770   0.092   5.600   3.265  1.0076  0.1835  0.6502
 6588TIP3    H219771   0.217   5.659   3.204  0.6481 -0.5215 -0.8110
 6589TIP3   OH219772   4.363   0.505   4.119 -0.0077  0.0009  0.4456
 6589TIP3    H119773   4.328   0.507   4.030  1.6579 -0.5116 -0.2604
 6589TIP3    H219774   4.292   0.469   4.172 -0.3247 -1.6770 -1.0395
 6590TIP3   OH219775   6.230   2.452   1.536  0.4760 -0.4036  0.3068
 6590TIP3    H119776   6.245   2.411   1.622  1.4069  0.4045  0.5508
 6590TIP3    H219777   6.227   2.546   1.555  0.7428 -0.2173 -0.5531
 6591TIP3   OH219778   3.370   1.478   0.107  0.3880 -0.3140 -0.1562
 6591TIP3    H119779   3.438   1.541   0.083  1.3462 -1.1325  0.3059
 6591TIP3    H219780   3.346   1.501   0.196  1.3648 -1.1043  0.3309
 6592TIP3   OH219781   1.282   1.887   4.739  0.0578  0.0461  0.3370
 6592TIP3    H119782   1.227   1.963   4.759 -1.8845 -1.5829  1.6203
 6592TIP3    H219783   1.302   1.848   4.824  1.5584 -0.5407 -0.2495
 6593TIP3   OH219784   4.640   5.252   0.304 -0.6298  0.3767  0.4319
 6593TIP3    H119785   4.682   5.334   0.281  0.8094 -0.2535  0.7149
 6593TIP3    H219786   4.642   5.201   0.223 -0.3348  0.1399  0.5855
 6594TIP3   OH219787   2.849   1.568   5.134 -0.1795 -0.3323  0.0474
 6594TIP3    H119788   2.813   1.556   5.222  0.6569 -0.4224  0.3877
 6594TIP3    H219789   2.894   1.652   5.137  1.6197 -1.2483  0.3504
 6595TIP3   OH219790   4.921   2.336   0.037  0.3151 -0.0952  0.2284
 6595TIP3    H119791   4.850   2.290  -0.008  0.0988  0.7365 -0.3123
 6595TIP3    H219792   5.000   2.292   0.008  0.0536 -0.7739  0.5217
 6596TIP3   OH219793   2.423   0.945   3.075  0.1992 -0.5526  0.3051
 6596TIP3    H119794   2.435   0.951   3.170  0.2682  0.6586  0.2366
 6596TIP3    H219795   2.502   0.901   3.044  0.5443 -0.2434  0.7299
 6597TIP3   OH219796   5.320   1.890   1.600 -0.1253  0.0566 -0.0482
 6597TIP3    H119797   5.415   1.896   1.609  0.2389 -3.1159 -0.4994
 6597TIP3    H219798   5.286   1.972   1.637  2.6661  0.5029  1.7570
 6598TIP3   OH219799   2.379   5.620   4.900 -0.0940 -0.3626 -0.0201
 6598TIP3    H119800   2.395   5.707   4.936  0.0509  0.1213 -1.1980
 6598TIP3    H219801   2.357   5.636   4.808 -0.0166 -1.5701 -0.2646
 6599TIP3   OH219802   6.282   1.570   4.724  0.0274 -0.1281  0.0102
 6599TIP3    H119803   6.317   1.630   4.658 -1.1303 -0.2704 -0.7696
 6599TIP3    H219804   6.284   1.484   4.681  1.6936 -0.6926  1.1189
 6600TIP3   OH219805   4.922   4.373   1.059  0.4217  0.0376 -0.2340
 6600TIP3    H119806   4.928   4.453   1.111  0.0623  1.0758 -1.7347
 6600TIP3    H219807   4.859   4.318   1.106 -1.8524  1.9825 -0.8508
 6601TIP3   OH219808   0.972   5.024   4.311 -0.4405  0.2410  0.4102
 6601TIP3    H119809   1.041   5.043   4.374 -0.3207  1.6876 -0.1206
 6601TIP3    H219810   1.010   5.049   4.226 -2.0628  2.5087  0.2556
 6602TIP3   OH219811   2.914   0.353   0.770 -0.0263  0.0927 -0.1861
 6602TIP3    H119812   2.980   0.400   0.721 -0.4115 -0.1161 -0.9211
 6602TIP3    H219813   2.963   0.304   0.837  0.3243  2.2012  1.2060
 6603TIP3   OH219814   5.279   5.418   3.234  0.2853  0.2365 -0.0644
 6603TIP3    H119815   5.370   5.396   3.252 -0.1968 -0.6941  1.4205
 6603TIP3    H219816   5.282   5.510   3.206  1.7773 -0.1279 -1.2460
 6604TIP3   OH219817   0.193   0.657   1.641 -0.0665  0.2301  0.0332
 6604TIP3    H119818   0.256   0.729   1.632  1.4775 -1.1578 -1.0106
 6604TIP3    H219819   0.161   0.643   1.552 -0.3010 -0.4009  0.2120
 6605TIP3   OH219820   5.404   1.159   0.775 -0.1931 -0.0053 -0.2114
 6605TIP3    H119821   5.322   1.112   0.788  0.9861 -1.9002  0.9963
 6605TIP3    H219822   5.428   1.189   0.863 -0.1562  1.5671 -0.7339
 6606TIP3   OH219823   3.828   4.585   4.622 -0.3233  0.2101 -0.5201
 6606TIP3    H119824   3.738   4.606   4.598 -1.1617  0.4615  2.4292
 6606TIP3    H219825   3.866   4.669   4.649  0.0845 -0.2112  0.2544
 6607TIP3   OH219826   2.451   0.324   0.110 -0.0548  0.2770  0.1244
 6607TIP3    H119827   2.471   0.232   0.096 -1.8716 -0.1266 -0.1456
 6607TIP3    H219828   2.461   0.365   0.024  0.0099  0.1648  0.0799
 6608TIP3   OH219829   2.110   5.067   2.627 -0.1675  0.1652  0.3864
 6608TIP3    H119830   2.159   5.012   2.688 -1.4283 -0.4931  0.8328
 6608TIP3    H219831   2.167   5.142   2.611  1.3168 -0.9360  0.2801
 6609TIP3   OH219832   2.843   0.906   4.870  0.4622 -0.3636  0.4475
 6609TIP3    H119833   2.864   0.813   4.877 -0.6083 -0.5249  1.9696
 6609TIP3    H219834   2.922   0.951   4.900  0.4701 -0.8229  1.1305
 6610TIP3   OH219835   5.397   5.204   1.168 -0.3229  0.2658  0.2240
 6610TIP3    H119836   5.449   5.151   1.108 -0.6615  1.6389 -1.3627
 6610TIP3    H219837   5.445   5.287   1.175 -0.8337  0.5074  1.0285
 6611TIP3   OH219838   0.079   1.192   4.897  0.3642  0.4856 -0.0091
 6611TIP3    H119839   0.173   1.194   4.875  0.2660 -1.2274 -0.7823
 6611TIP3    H219840   0.071   1.119   4.958 -0.4364  0.7410  0.1897
 6612TIP3   OH219841   0.784   4.709   4.348 -0.1391 -0.2402 -0.1437
 6612TIP3    H119842   0.731   4.703   4.428  0.5860  0.0316  0.3710
 6612TIP3    H219843   0.874   4.699   4.379  0.0888 -1.3301 -1.0773
 6613TIP3   OH219844   6.074   3.957   0.780 -0.5527 -0.8876  0.6121
 6613TIP3    H119845   6.052   4.050   0.780  1.0166 -0.4980 -0.1987
 6613TIP3    H219846   6.020   3.920   0.710  0.3626 -0.1810 -0.5024
 6614TIP3   OH219847   1.522   1.592   0.585 -0.3718 -0.2448 -0.0390
 6614TIP3    H119848   1.569   1.604   0.503  0.4725  1.4020  0.6495
 6614TIP3    H219849   1.586   1.614   0.653 -1.5191 -0.0045  1.0026
 6615TIP3   OH219850   2.253   1.914   0.583  0.0693 -0.1921  0.3991
 6615TIP3    H119851   2.229   1.976   0.652  1.3183  1.2490 -0.3936
 6615TIP3    H219852   2.173   1.901   0.532 -0.1070  1.1810  0.2990
 6616TIP3   OH219853   4.233   3.881   3.868 -0.3037 -0.0755 -0.1830
 6616TIP3    H119854   4.173   3.859   3.940 -0.3554 -1.0568 -0.5110
 6616TIP3    H219855   4.177   3.881   3.790 -0.0563 -0.0593 -0.3611
 6617TIP3   OH219856   1.754   4.607   2.703 -0.1296 -0.3310  0.3722
 6617TIP3    H119857   1.819   4.588   2.635 -0.7242  0.4309 -0.4335
 6617TIP3    H219858   1.806   4.625   2.782  0.5479 -2.4044  0.4789
 6618TIP3   OH219859   0.777   0.262   4.023 -0.0586  0.5755 -0.1408
 6618TIP3    H119860   0.708   0.240   3.961 -1.4263  0.3895  1.3886
 6618TIP3    H219861   0.840   0.190   4.016 -0.9584 -0.2234 -0.2324
 6619TIP3   OH219862   3.912   4.716   2.999 -0.0437  0.1534  0.5843
 6619TIP3    H119863   3.919   4.643   3.060  0.6337  1.0102  1.5610
 6619TIP3    H219864   4.003   4.737   2.976 -0.2872 -1.1778 -2.0291
 6620TIP3   OH219865   5.694   1.906   1.923  0.4799  0.4930 -0.3205
 6620TIP3    H119866   5.747   1.830   1.950  0.9428  1.5516  2.0150
 6620TIP3    H219867   5.759   1.972   1.898  0.0763 -0.1794 -3.6524
 6621TIP3   OH219868   1.540   3.770   1.973  0.1359 -0.1281 -0.3061
 6621TIP3    H119869   1.524   3.677   1.957 -3.0008  0.1288  0.7040
 6621TIP3    H219870   1.558   3.807   1.886  0.3426 -1.4604 -0.8502
 6622TIP3   OH219871   4.280   3.553   4.955  0.3641 -0.1475  0.4198
 6622TIP3    H119872   4.302   3.600   4.875  0.0735 -0.9788 -0.1589
 6622TIP3    H219873   4.296   3.461   4.935 -0.4844 -0.4497  1.0431
 6623TIP3   OH219874   0.053   4.837   0.438  0.3232 -0.8815 -0.2721
 6623TIP3    H119875  -0.001   4.828   0.359 -0.6474 -0.5922  0.3312
 6623TIP3    H219876   0.123   4.897   0.412 -0.8756  0.4981 -0.5137
 6624TIP3   OH219877   5.483   1.388   0.014 -0.0100  0.4938 -0.2617
 6624TIP3    H119878   5.562   1.342   0.042 -0.9229 -1.3033 -0.4778
 6624TIP3    H219879   5.459   1.442   0.089  1.6167  1.3728 -0.3377
 6625TIP3   OH219880   2.882   5.104   3.632 -1.3842  0.0121  0.1804
 6625TIP3    H119881   2.825   5.084   3.559 -1.7178  0.5601  0.2890
 6625TIP3    H219882   2.962   5.138   3.592 -0.2934 -2.6212 -0.0854
 6626TIP3   OH219883   3.251   1.634   4.832 -0.9038 -0.1542 -0.7031
 6626TIP3    H119884   3.224   1.595   4.749 -2.1067 -0.2532 -0.2937
 6626TIP3    H219885   3.287   1.719   4.808 -0.9702 -0.3057 -1.3569
 6627TIP3   OH219886   3.251   1.729   5.098 -0.3484  0.0777  0.3775
 6627TIP3    H119887   3.335   1.690   5.121  1.0292  2.1945 -0.7418
 6627TIP3    H219888   3.233   1.696   5.010  1.8066  3.2029 -1.4153
 6628TIP3   OH219889   5.202   4.167   3.555 -0.0220 -0.0294 -0.0838
 6628TIP3    H119890   5.290   4.132   3.561  0.6520  1.7316  1.2784
 6628TIP3    H219891   5.147   4.101   3.598  0.9705 -0.1656  1.0327
 6629TIP3   OH219892   5.513   1.062   5.043  0.5305 -0.6454 -0.1871
 6629TIP3    H119893   5.505   1.081   4.950 -0.3934 -0.3332 -0.0557
 6629TIP3    H219894   5.451   1.122   5.085  1.2350 -0.5050  0.6641
 6630TIP3   OH219895   5.712   3.256   1.345  0.5501 -0.4488 -0.1901
 6630TIP3    H119896   5.624   3.273   1.379 -0.5809 -4.5339 -0.5518
 6630TIP3    H219897   5.769   3.311   1.398 -2.1505  2.5098 -0.0668
 6631TIP3   OH219898   1.091   2.985   2.245  0.4012 -0.6557 -0.0734
 6631TIP3    H119899   1.114   3.041   2.170  0.1208  0.4825  0.6603
 6631TIP3    H219900   1.175   2.969   2.289  0.2566  1.0289  0.9257
 6632TIP3   OH219901   5.230   5.891   3.280 -0.0558  0.4321 -0.0718
 6632TIP3    H119902   5.318   5.922   3.258  0.9075 -0.5715  2.1009
 6632TIP3    H219903   5.173   5.963   3.256  1.2227  0.8023 -2.3127
 6633TIP3   OH219904   6.188   0.336   4.657  1.1408 -0.0705  0.1024
 6633TIP3    H119905   6.145   0.280   4.721  0.9870 -0.4354 -0.3177
 6633TIP3    H219906   6.256   0.282   4.618  0.2987 -0.3394 -1.0744
 6634TIP3   OH219907   4.576   1.235   1.728  0.1486  0.0595  0.3003
 6634TIP3    H119908   4.628   1.305   1.689 -0.7096  1.2491  1.1880
 6634TIP3    H219909   4.487   1.252   1.698 -0.0041 -0.9495  0.1488
 6635TIP3   OH219910   5.891   2.879   4.547  0.0957 -0.1989  0.1059
 6635TIP3    H119911   5.902   2.799   4.496  0.6392 -0.3551  0.4589
 6635TIP3    H219912   5.955   2.872   4.618 -0.9228 -0.1784  1.0614
 6636TIP3   OH219913   3.599   2.171   5.001  0.1200  0.1861  0.4127
 6636TIP3    H119914   3.647   2.253   5.012 -0.5608  0.7559 -0.7577
 6636TIP3    H219915   3.658   2.115   4.950 -0.2026  0.6826 -0.5286
 6637TIP3   OH219916   1.232   2.528   2.391  0.3172  0.5174 -0.6428
 6637TIP3    H119917   1.196   2.442   2.411 -1.6996  1.6066  0.7221
 6637TIP3    H219918   1.206   2.583   2.465  2.2810  2.1274 -1.0690
 6638TIP3   OH219919   2.038   3.655   0.827  0.2061  0.4863  0.3123
 6638TIP3    H119920   1.956   3.659   0.778  0.0697 -0.8447  0.3739
 6638TIP3    H219921   2.047   3.741   0.866 -0.5864  1.0144 -0.6136
 6639TIP3   OH219922   4.024   4.099   4.532 -0.3136 -0.6811 -0.2396
 6639TIP3    H119923   4.043   4.187   4.566  1.4979 -0.9350 -0.4765
 6639TIP3    H219924   3.933   4.083   4.557 -0.6196  1.1645  0.0005
 6640TIP3   OH219925   3.603   3.755   4.265 -0.2328 -0.4920  0.3075
 6640TIP3    H119926   3.539   3.777   4.332  0.6134  0.1823  0.9228
 6640TIP3    H219927   3.556   3.765   4.182 -0.8951  0.0970  0.7407
   6.34047   5.97785   5.17697   0.00000   0.00000  -2.11349   0.00000  -2.11349  -2.98893
