Title t= 356.00000 step= 178000
29212
    1ASP      N    1   3.125   1.615   2.265
    1ASP    HT1    2   3.104   1.629   2.366
    1ASP    HT2    3   3.218   1.658   2.248
    1ASP    HT3    4   3.152   1.514   2.266
    1ASP     CA    5   3.016   1.637   2.172
    1ASP     HA    6   3.004   1.743   2.152
    1ASP     CB    7   3.039   1.552   2.045
    1ASP    HB1    8   2.947   1.562   1.983
    1ASP    HB2    9   3.060   1.446   2.070
    1ASP     CG   10   3.149   1.603   1.957
    1ASP    OD1   11   3.203   1.711   1.990
    1ASP    OD2   12   3.175   1.542   1.849
    1ASP      C   13   2.884   1.591   2.236
    1ASP      O   14   2.849   1.641   2.341
    2GLY      N   15   2.815   1.488   2.181
    2GLY     HN   16   2.844   1.440   2.099
    2GLY     CA   17   2.701   1.420   2.245
    2GLY    HA1   18   2.716   1.423   2.352
    2GLY    HA2   19   2.685   1.321   2.206
    2GLY      C   20   2.571   1.489   2.228
    2GLY      O   21   2.560   1.602   2.185
    3ASP      N   22   2.460   1.428   2.272
    3ASP     HN   23   2.481   1.356   2.338
    3ASP     CA   24   2.330   1.490   2.293
    3ASP     HA   25   2.287   1.524   2.200
    3ASP     CB   26   2.226   1.393   2.352
    3ASP    HB1   27   2.131   1.449   2.368
    3ASP    HB2   28   2.259   1.347   2.447
    3ASP     CG   29   2.190   1.283   2.256
    3ASP    OD1   30   2.114   1.189   2.300
    3ASP    OD2   31   2.219   1.275   2.133
    3ASP      C   32   2.327   1.616   2.376
    3ASP      O   33   2.410   1.630   2.464
    4GLY      N   34   2.238   1.714   2.345
    4GLY     HN   35   2.183   1.694   2.265
    4GLY     CA   36   2.221   1.830   2.431
    4GLY    HA1   37   2.167   1.900   2.369
    4GLY    HA2   38   2.320   1.870   2.449
    4GLY      C   39   2.156   1.806   2.563
    4GLY      O   40   2.124   1.695   2.585
    5PRO      N   41   2.139   1.905   2.647
    5PRO     CD   42   2.188   2.038   2.626
    5PRO    HD1   43   2.171   2.075   2.522
    5PRO    HD2   44   2.295   2.048   2.654
    5PRO     CA   45   2.061   1.895   2.773
    5PRO     HA   46   2.109   1.816   2.829
    5PRO     CB   47   2.070   2.036   2.837
    5PRO    HB1   48   2.159   2.034   2.904
    5PRO    HB2   49   1.985   2.074   2.898
    5PRO     CG   50   2.093   2.121   2.716
    5PRO    HG1   51   1.999   2.142   2.661
    5PRO    HG2   52   2.131   2.223   2.741
    5PRO      C   53   1.917   1.847   2.749
    5PRO      O   54   1.854   1.892   2.652
    6GLY      N   55   1.866   1.766   2.837
    6GLY     HN   56   1.917   1.723   2.911
    6GLY     CA   57   1.728   1.721   2.833
    6GLY    HA1   58   1.710   1.691   2.935
    6GLY    HA2   59   1.726   1.646   2.754
    6GLY      C   60   1.620   1.823   2.822
    6GLY      O   61   1.628   1.948   2.847
    7ASP      N   62   1.499   1.776   2.778
    7ASP     HN   63   1.497   1.680   2.750
    7ASP     CA   64   1.374   1.849   2.784
    7ASP     HA   65   1.393   1.949   2.748
    7ASP     CB   66   1.268   1.777   2.700
    7ASP    HB1   67   1.167   1.820   2.716
    7ASP    HB2   68   1.281   1.668   2.713
    7ASP     CG   69   1.290   1.802   2.551
    7ASP    OD1   70   1.211   1.754   2.461
    7ASP    OD2   71   1.387   1.877   2.519
    7ASP      C   72   1.328   1.850   2.931
    7ASP      O   73   1.373   1.765   3.014
    8PRO      N   74   1.243   1.950   2.970
    8PRO     CD   75   1.233   2.076   2.905
    8PRO    HD1   76   1.212   2.067   2.796
    8PRO    HD2   77   1.331   2.125   2.921
    8PRO     CA   78   1.202   1.959   3.107
    8PRO     HA   79   1.285   1.928   3.170
    8PRO     CB   80   1.160   2.107   3.121
    8PRO    HB1   81   1.248   2.164   3.159
    8PRO    HB2   82   1.075   2.122   3.191
    8PRO     CG   83   1.126   2.151   2.977
    8PRO    HG1   84   1.024   2.119   2.945
    8PRO    HG2   85   1.134   2.257   2.945
    8PRO      C   86   1.085   1.876   3.151
    8PRO      O   87   0.975   1.901   3.106
    9GLY      N   88   1.103   1.787   3.242
    9GLY     HN   89   1.194   1.783   3.282
    9GLY     CA   90   1.000   1.699   3.297
    9GLY    HA1   91   1.061   1.620   3.338
    9GLY    HA2   92   0.934   1.668   3.217
    9GLY      C   93   0.919   1.766   3.414
    9GLY      O   94   0.931   1.888   3.432
   10ASP      N   95   0.850   1.691   3.493
   10ASP     HN   96   0.847   1.594   3.473
   10ASP     CA   97   0.762   1.734   3.605
   10ASP     HA   98   0.744   1.840   3.601
   10ASP     CB   99   0.628   1.661   3.584
   10ASP    HB1  100   0.551   1.693   3.658
   10ASP    HB2  101   0.650   1.552   3.580
   10ASP     CG  102   0.564   1.688   3.446
   10ASP    OD1  103   0.588   1.799   3.381
   10ASP    OD2  104   0.483   1.602   3.401
   10ASP      C  105   0.821   1.692   3.740
   10ASP      O  106   0.872   1.584   3.749
   11GLY      N  107   0.826   1.787   3.835
   11GLY     HN  108   0.802   1.884   3.825
   11GLY     CA  109   0.875   1.763   3.967
   11GLY    HA1  110   0.859   1.662   4.002
   11GLY    HA2  111   0.818   1.834   4.025
   11GLY      C  112   1.023   1.788   3.992
   11GLY    OT1  113   1.079   1.887   3.945
   11GLY    OT2  114   1.096   1.708   4.057
   12LIT    LIT  115   5.268   6.376   1.473
   13LIT    LIT  116   6.164   1.247   0.547
   14LIT    LIT  117   5.240   1.165   5.885
   15LIT    LIT  118   0.549   4.273   3.173
   16LIT    LIT  119   1.241   1.867   4.062
   17LIT    LIT  120   4.295   5.843   3.697
   18LIT    LIT  121   2.231   2.528   2.925
   19LIT    LIT  122   2.127   3.920   0.071
   20LIT    LIT  123   1.541   1.446   5.820
   21LIT    LIT  124   0.995   6.102   4.425
   22LIT    LIT  125   5.419   1.264   4.072
   23LIT    LIT  126   5.296   0.175   2.146
   24LIT    LIT  127   6.885   3.447   5.691
   25LIT    LIT  128   0.401   3.219   2.824
   26LIT    LIT  129   0.438   1.741   3.264
   27LIT    LIT  130   6.235   6.715   3.819
   28LIT    LIT  131   0.825   6.772   5.753
   29LIT    LIT  132   6.444   2.658   3.448
   30LIT    LIT  133   0.695   0.967   2.833
   31LIT    LIT  134   6.562   2.530   2.031
   32LIT    LIT  135   5.603   4.917   5.140
   33LIT    LIT  136   3.455   4.260   3.197
   34LIT    LIT  137   6.395   1.445   4.743
   35LIT    LIT  138   1.072   1.381   2.403
   36LIT    LIT  139   6.772   6.122   2.202
   37LIT    LIT  140   2.524   5.471   3.098
   38LIT    LIT  141   2.647   4.663   5.816
   39LIT    LIT  142   3.271   1.868   1.922
   40LIT    LIT  143   2.819   5.352   2.316
   41LIT    LIT  144   2.816   1.452   3.614
   42LIT    LIT  145   2.083   1.123   2.126
   43CLA    CLA  146   3.006   5.376   2.203
   44CLA    CLA  147   7.123   6.018   4.492
   45CLA    CLA  148   1.815   2.390   3.056
   46CLA    CLA  149   5.691   3.246   1.315
   47CLA    CLA  150   6.922   1.240   3.460
   48CLA    CLA  151   5.335   6.699   1.188
   49CLA    CLA  152   0.783   3.989   3.425
   50CLA    CLA  153   0.660   3.791   2.578
   51CLA    CLA  154   6.535   0.943   2.023
   52CLA    CLA  155   1.824   5.131   4.013
   53CLA    CLA  156   2.782   1.054   2.908
   54CLA    CLA  157   2.656   1.854   0.799
   55CLA    CLA  158   6.479   1.594   3.802
   56CLA    CLA  159   1.221   1.194   4.807
   57CLA    CLA  160   2.128   1.546   4.861
   58CLA    CLA  161   3.370   4.243   3.403
   59CLA    CLA  162   4.653   0.217   2.109
   60CLA    CLA  163   1.797   6.516   1.820
   61CLA    CLA  164   1.354   1.320   2.018
   62CLA    CLA  165   1.406   0.365   2.210
   63CLA    CLA  166   2.357   5.860   4.785
   64CLA    CLA  167   2.379   5.376   0.298
   65CLA    CLA  168   5.929   3.826   5.658
   66CLA    CLA  169   0.691   5.370   2.160
   67CLA    CLA  170   1.260   4.801   5.121
   68CLA    CLA  171   5.263   2.717   4.403
   69CLA    CLA  172   3.452   4.987   3.532
   70TIP3   OH2  173   2.752   5.099   1.008
   70TIP3    H1  174   2.825   5.129   0.955
   70TIP3    H2  175   2.761   5.145   1.092
   71TIP3   OH2  176   2.820   1.188   0.658
   71TIP3    H1  177   2.754   1.244   0.698
   71TIP3    H2  178   2.770   1.116   0.619
   72TIP3   OH2  179   1.102   6.563   3.711
   72TIP3    H1  180   1.098   6.655   3.740
   72TIP3    H2  181   1.196   6.547   3.696
   73TIP3   OH2  182   3.416   5.710   3.777
   73TIP3    H1  183   3.390   5.765   3.703
   73TIP3    H2  184   3.507   5.736   3.795
   74TIP3   OH2  185   1.150   0.868   0.061
   74TIP3    H1  186   1.092   0.931   0.018
   74TIP3    H2  187   1.170   0.804  -0.007
   75TIP3   OH2  188   4.028   2.972   0.849
   75TIP3    H1  189   4.106   2.970   0.905
   75TIP3    H2  190   4.003   2.880   0.839
   76TIP3   OH2  191   2.729   6.322   4.733
   76TIP3    H1  192   2.790   6.296   4.801
   76TIP3    H2  193   2.642   6.313   4.773
   77TIP3   OH2  194   3.558   2.129   0.370
   77TIP3    H1  195   3.524   2.040   0.380
   77TIP3    H2  196   3.615   2.142   0.446
   78TIP3   OH2  197   7.141   2.932   3.482
   78TIP3    H1  198   7.192   2.984   3.544
   78TIP3    H2  199   7.078   2.994   3.444
   79TIP3   OH2  200   2.668   1.410   0.472
   79TIP3    H1  201   2.617   1.350   0.417
   79TIP3    H2  202   2.658   1.375   0.560
   80TIP3   OH2  203   2.119   1.580   4.550
   80TIP3    H1  204   2.115   1.567   4.645
   80TIP3    H2  205   2.032   1.554   4.519
   81TIP3   OH2  206   6.721   4.188   1.327
   81TIP3    H1  207   6.800   4.135   1.314
   81TIP3    H2  208   6.737   4.267   1.275
   82TIP3   OH2  209   2.722   4.493   3.646
   82TIP3    H1  210   2.744   4.555   3.716
   82TIP3    H2  211   2.661   4.541   3.590
   83TIP3   OH2  212   1.065   1.168   0.778
   83TIP3    H1  213   1.096   1.135   0.862
   83TIP3    H2  214   1.038   1.090   0.730
   84TIP3   OH2  215   3.483   0.962   4.847
   84TIP3    H1  216   3.475   1.029   4.779
   84TIP3    H2  217   3.570   0.977   4.884
   85TIP3   OH2  218   0.224   0.893   2.452
   85TIP3    H1  219   0.295   0.872   2.392
   85TIP3    H2  220   0.160   0.823   2.440
   86TIP3   OH2  221   5.409   3.952   5.518
   86TIP3    H1  222   5.428   3.859   5.507
   86TIP3    H2  223   5.494   3.995   5.505
   87TIP3   OH2  224   1.207   0.612   1.670
   87TIP3    H1  225   1.296   0.610   1.704
   87TIP3    H2  226   1.159   0.666   1.733
   88TIP3   OH2  227   1.819   5.039   4.568
   88TIP3    H1  228   1.729   5.011   4.583
   88TIP3    H2  229   1.836   5.018   4.476
   89TIP3   OH2  230   1.300   5.953   0.478
   89TIP3    H1  231   1.384   5.976   0.518
   89TIP3    H2  232   1.321   5.884   0.416
   90TIP3   OH2  233   3.469   2.913   3.488
   90TIP3    H1  234   3.459   2.936   3.580
   90TIP3    H2  235   3.554   2.868   3.484
   91TIP3   OH2  236   7.076   2.241   1.323
   91TIP3    H1  237   6.985   2.241   1.354
   91TIP3    H2  238   7.129   2.233   1.402
   92TIP3   OH2  239   6.372   3.093   5.796
   92TIP3    H1  240   6.348   3.050   5.713
   92TIP3    H2  241   6.351   3.185   5.782
   93TIP3   OH2  242   3.051   1.131   2.778
   93TIP3    H1  243   3.040   1.132   2.683
   93TIP3    H2  244   2.967   1.100   2.811
   94TIP3   OH2  245   3.146   5.478   0.034
   94TIP3    H1  246   3.215   5.543   0.043
   94TIP3    H2  247   3.114   5.489  -0.056
   95TIP3   OH2  248   2.556   4.652   5.647
   95TIP3    H1  249   2.574   4.594   5.573
   95TIP3    H2  250   2.482   4.705   5.619
   96TIP3   OH2  251   6.251   3.515   5.034
   96TIP3    H1  252   6.159   3.525   5.059
   96TIP3    H2  253   6.296   3.494   5.116
   97TIP3   OH2  254   0.196   5.118   4.162
   97TIP3    H1  255   0.102   5.105   4.174
   97TIP3    H2  256   0.206   5.213   4.155
   98TIP3   OH2  257   0.829   3.797   0.641
   98TIP3    H1  258   0.753   3.824   0.589
   98TIP3    H2  259   0.901   3.796   0.578
   99TIP3   OH2  260   2.531   3.629   4.087
   99TIP3    H1  261   2.492   3.570   4.021
   99TIP3    H2  262   2.456   3.679   4.121
  100TIP3   OH2  263   1.128   3.117   3.561
  100TIP3    H1  264   1.072   3.124   3.484
  100TIP3    H2  265   1.167   3.204   3.571
  101TIP3   OH2  266   6.490   4.198   1.943
  101TIP3    H1  267   6.529   4.173   2.027
  101TIP3    H2  268   6.555   4.254   1.901
  102TIP3   OH2  269   2.671   6.710   5.831
  102TIP3    H1  270   2.746   6.766   5.811
  102TIP3    H2  271   2.706   6.644   5.891
  103TIP3   OH2  272   6.903   1.390   1.511
  103TIP3    H1  273   6.978   1.422   1.561
  103TIP3    H2  274   6.834   1.454   1.526
  104TIP3   OH2  275   0.358   2.449   3.545
  104TIP3    H1  276   0.452   2.470   3.544
  104TIP3    H2  277   0.322   2.499   3.472
  105TIP3   OH2  278   5.106   6.363   1.932
  105TIP3    H1  279   5.153   6.340   2.012
  105TIP3    H2  280   5.046   6.290   1.918
  106TIP3   OH2  281   6.833   0.155   5.821
  106TIP3    H1  282   6.909   0.111   5.783
  106TIP3    H2  283   6.817   0.229   5.763
  107TIP3   OH2  284   7.168   5.288   3.995
  107TIP3    H1  285   7.192   5.204   3.955
  107TIP3    H2  286   7.118   5.263   4.073
  108TIP3   OH2  287   1.776   5.667   0.463
  108TIP3    H1  288   1.698   5.612   0.455
  108TIP3    H2  289   1.754   5.748   0.418
  109TIP3   OH2  290   2.462   5.868   0.396
  109TIP3    H1  291   2.516   5.859   0.474
  109TIP3    H2  292   2.437   5.779   0.372
  110TIP3   OH2  293   1.774   0.011   3.664
  110TIP3    H1  294   1.824   0.091   3.677
  110TIP3    H2  295   1.682   0.041   3.664
  111TIP3   OH2  296   0.484   2.331   0.265
  111TIP3    H1  297   0.423   2.261   0.290
  111TIP3    H2  298   0.466   2.346   0.172
  112TIP3   OH2  299   4.005   4.780   2.695
  112TIP3    H1  300   4.088   4.806   2.654
  112TIP3    H2  301   3.944   4.849   2.672
  113TIP3   OH2  302   0.735   6.804   2.127
  113TIP3    H1  303   0.797   6.775   2.061
  113TIP3    H2  304   0.735   6.734   2.193
  114TIP3   OH2  305   2.855   6.083   0.796
  114TIP3    H1  306   2.873   6.167   0.754
  114TIP3    H2  307   2.940   6.054   0.829
  115TIP3   OH2  308   1.596   5.248   2.222
  115TIP3    H1  309   1.603   5.205   2.307
  115TIP3    H2  310   1.580   5.340   2.243
  116TIP3   OH2  311   6.425   6.668   4.183
  116TIP3    H1  312   6.496   6.679   4.247
  116TIP3    H2  313   6.348   6.648   4.236
  117TIP3   OH2  314   5.873   5.373   3.137
  117TIP3    H1  315   5.813   5.346   3.067
  117TIP3    H2  316   5.921   5.293   3.159
  118TIP3   OH2  317   2.740   3.939   5.099
  118TIP3    H1  318   2.662   3.953   5.154
  118TIP3    H2  319   2.725   3.994   5.022
  119TIP3   OH2  320   2.272   2.976   2.741
  119TIP3    H1  321   2.348   2.955   2.794
  119TIP3    H2  322   2.243   2.891   2.705
  120TIP3   OH2  323   5.177   4.973   2.557
  120TIP3    H1  324   5.100   5.001   2.606
  120TIP3    H2  325   5.150   4.891   2.515
  121TIP3   OH2  326   6.271   4.552   5.231
  121TIP3    H1  327   6.324   4.620   5.271
  121TIP3    H2  328   6.328   4.513   5.165
  122TIP3   OH2  329   3.213   4.113   3.772
  122TIP3    H1  330   3.255   4.141   3.853
  122TIP3    H2  331   3.284   4.102   3.709
  123TIP3   OH2  332   6.871   5.613   0.422
  123TIP3    H1  333   6.945   5.584   0.368
  123TIP3    H2  334   6.911   5.646   0.502
  124TIP3   OH2  335   6.579   0.999   1.407
  124TIP3    H1  336   6.672   0.977   1.409
  124TIP3    H2  337   6.538   0.933   1.462
  125TIP3   OH2  338   4.820   5.819   0.653
  125TIP3    H1  339   4.865   5.837   0.735
  125TIP3    H2  340   4.728   5.837   0.672
  126TIP3   OH2  341   1.715   6.009   1.859
  126TIP3    H1  342   1.626   6.042   1.868
  126TIP3    H2  343   1.761   6.078   1.811
  127TIP3   OH2  344   7.038   3.037   2.725
  127TIP3    H1  345   7.007   3.021   2.814
  127TIP3    H2  346   6.959   3.034   2.671
  128TIP3   OH2  347   1.304   2.240   5.778
  128TIP3    H1  348   1.261   2.156   5.763
  128TIP3    H2  349   1.384   2.237   5.726
  129TIP3   OH2  350   4.976   4.727   5.147
  129TIP3    H1  351   4.962   4.648   5.096
  129TIP3    H2  352   5.070   4.742   5.144
  130TIP3   OH2  353   1.482   0.467   1.687
  130TIP3    H1  354   1.483   0.407   1.612
  130TIP3    H2  355   1.447   0.415   1.759
  131TIP3   OH2  356   6.084   0.387   5.840
  131TIP3    H1  357   6.128   0.460   5.884
  131TIP3    H2  358   6.151   0.349   5.783
  132TIP3   OH2  359   6.103   1.948   1.759
  132TIP3    H1  360   6.070   1.996   1.835
  132TIP3    H2  361   6.024   1.913   1.717
  133TIP3   OH2  362   0.659   1.244   2.491
  133TIP3    H1  363   0.585   1.304   2.483
  133TIP3    H2  364   0.735   1.301   2.503
  134TIP3   OH2  365   2.962   1.846   5.154
  134TIP3    H1  366   3.014   1.896   5.091
  134TIP3    H2  367   2.873   1.847   5.118
  135TIP3   OH2  368   4.536   0.092   3.590
  135TIP3    H1  369   4.614   0.039   3.573
  135TIP3    H2  370   4.505   0.117   3.503
  136TIP3   OH2  371   1.942   4.317   1.866
  136TIP3    H1  372   1.934   4.294   1.959
  136TIP3    H2  373   2.008   4.257   1.832
  137TIP3   OH2  374   4.805   0.136   2.973
  137TIP3    H1  375   4.831   0.227   2.988
  137TIP3    H2  376   4.847   0.112   2.891
  138TIP3   OH2  377   0.865   5.292   5.715
  138TIP3    H1  378   0.818   5.263   5.794
  138TIP3    H2  379   0.808   5.269   5.643
  139TIP3   OH2  380   7.217   2.737   4.712
  139TIP3    H1  381   7.238   2.681   4.637
  139TIP3    H2  382   7.159   2.804   4.676
  140TIP3   OH2  383   2.941   3.033   2.795
  140TIP3    H1  384   2.940   3.070   2.706
  140TIP3    H2  385   3.030   3.048   2.826
  141TIP3   OH2  386   6.430   6.180   4.811
  141TIP3    H1  387   6.508   6.234   4.826
  141TIP3    H2  388   6.356   6.237   4.834
  142TIP3   OH2  389   1.000   5.760   1.229
  142TIP3    H1  390   0.953   5.776   1.148
  142TIP3    H2  391   1.070   5.699   1.205
  143TIP3   OH2  392   5.895   5.516   1.295
  143TIP3    H1  393   5.857   5.432   1.318
  143TIP3    H2  394   5.984   5.495   1.266
  144TIP3   OH2  395   6.639   0.689   1.238
  144TIP3    H1  396   6.713   0.747   1.257
  144TIP3    H2  397   6.616   0.709   1.147
  145TIP3   OH2  398   6.435   4.399   3.902
  145TIP3    H1  399   6.351   4.352   3.909
  145TIP3    H2  400   6.412   4.480   3.858
  146TIP3   OH2  401   5.370   1.286   5.822
  146TIP3    H1  402   5.368   1.305   5.728
  146TIP3    H2  403   5.463   1.278   5.843
  147TIP3   OH2  404   0.481   2.081   5.768
  147TIP3    H1  405   0.543   2.050   5.701
  147TIP3    H2  406   0.410   2.017   5.765
  148TIP3   OH2  407   4.224   6.198   2.514
  148TIP3    H1  408   4.316   6.224   2.522
  148TIP3    H2  409   4.176   6.281   2.515
  149TIP3   OH2  410   2.264   2.434   4.465
  149TIP3    H1  411   2.263   2.399   4.554
  149TIP3    H2  412   2.305   2.365   4.413
  150TIP3   OH2  413   1.318   6.159   2.715
  150TIP3    H1  414   1.246   6.204   2.671
  150TIP3    H2  415   1.361   6.108   2.646
  151TIP3   OH2  416   2.064   0.546   4.322
  151TIP3    H1  417   1.996   0.513   4.263
  151TIP3    H2  418   2.117   0.469   4.342
  152TIP3   OH2  419   2.346   3.316   4.861
  152TIP3    H1  420   2.416   3.382   4.864
  152TIP3    H2  421   2.267   3.363   4.886
  153TIP3   OH2  422   6.841   4.216   2.446
  153TIP3    H1  423   6.931   4.250   2.445
  153TIP3    H2  424   6.787   4.292   2.469
  154TIP3   OH2  425   6.224   1.160   1.123
  154TIP3    H1  426   6.290   1.226   1.146
  154TIP3    H2  427   6.255   1.080   1.166
  155TIP3   OH2  428   3.092   6.131   5.011
  155TIP3    H1  429   3.182   6.135   5.042
  155TIP3    H2  430   3.099   6.116   4.916
  156TIP3   OH2  431   6.687   4.933   5.560
  156TIP3    H1  432   6.778   4.937   5.590
  156TIP3    H2  433   6.636   4.914   5.639
  157TIP3   OH2  434   1.859   5.245   1.216
  157TIP3    H1  435   1.881   5.337   1.227
  157TIP3    H2  436   1.876   5.206   1.302
  158TIP3   OH2  437   1.452   5.937   1.585
  158TIP3    H1  438   1.413   5.902   1.505
  158TIP3    H2  439   1.388   5.917   1.654
  159TIP3   OH2  440   5.539   1.290   3.472
  159TIP3    H1  441   5.448   1.322   3.481
  159TIP3    H2  442   5.548   1.224   3.540
  160TIP3   OH2  443   5.627   0.241   5.275
  160TIP3    H1  444   5.612   0.335   5.270
  160TIP3    H2  445   5.722   0.232   5.280
  161TIP3   OH2  446   5.784   3.134   0.095
  161TIP3    H1  447   5.868   3.158   0.055
  161TIP3    H2  448   5.791   3.167   0.185
  162TIP3   OH2  449   5.825   0.610   5.023
  162TIP3    H1  450   5.757   0.560   4.978
  162TIP3    H2  451   5.815   0.586   5.115
  163TIP3   OH2  452   1.728   0.290   1.601
  163TIP3    H1  453   1.758   0.319   1.687
  163TIP3    H2  454   1.666   0.219   1.620
  164TIP3   OH2  455   3.003   5.470   1.598
  164TIP3    H1  456   3.079   5.520   1.628
  164TIP3    H2  457   2.928   5.509   1.643
  165TIP3   OH2  458   3.066   6.594   0.745
  165TIP3    H1  459   3.122   6.635   0.811
  165TIP3    H2  460   2.977   6.612   0.774
  166TIP3   OH2  461   6.678   0.767   4.803
  166TIP3    H1  462   6.709   0.777   4.713
  166TIP3    H2  463   6.609   0.701   4.797
  167TIP3   OH2  464   5.456   3.094   2.450
  167TIP3    H1  465   5.524   3.157   2.428
  167TIP3    H2  466   5.460   3.085   2.545
  168TIP3   OH2  467   3.947   4.438   4.324
  168TIP3    H1  468   3.911   4.523   4.301
  168TIP3    H2  469   3.881   4.375   4.295
  169TIP3   OH2  470   3.808   0.873   0.603
  169TIP3    H1  471   3.790   0.845   0.693
  169TIP3    H2  472   3.888   0.925   0.610
  170TIP3   OH2  473   4.631   1.303   1.656
  170TIP3    H1  474   4.567   1.352   1.606
  170TIP3    H2  475   4.590   1.289   1.742
  171TIP3   OH2  476   3.614   5.091   0.150
  171TIP3    H1  477   3.707   5.094   0.172
  171TIP3    H2  478   3.577   5.168   0.195
  172TIP3   OH2  479   4.192   3.037   5.697
  172TIP3    H1  480   4.280   3.028   5.734
  172TIP3    H2  481   4.165   2.948   5.676
  173TIP3   OH2  482   1.686   2.964   0.516
  173TIP3    H1  483   1.684   2.868   0.519
  173TIP3    H2  484   1.697   2.985   0.424
  174TIP3   OH2  485   4.263   4.682   1.780
  174TIP3    H1  486   4.173   4.667   1.751
  174TIP3    H2  487   4.255   4.740   1.856
  175TIP3   OH2  488   0.027   0.692   2.399
  175TIP3    H1  489  -0.039   0.631   2.367
  175TIP3    H2  490   0.038   0.669   2.491
  176TIP3   OH2  491   4.003   6.746   2.084
  176TIP3    H1  492   4.003   6.780   2.173
  176TIP3    H2  493   4.053   6.810   2.033
  177TIP3   OH2  494   1.524   3.781   2.104
  177TIP3    H1  495   1.583   3.856   2.116
  177TIP3    H2  496   1.460   3.790   2.175
  178TIP3   OH2  497   3.550   4.692   3.629
  178TIP3    H1  498   3.561   4.629   3.558
  178TIP3    H2  499   3.538   4.776   3.585
  179TIP3   OH2  500   0.587   4.368   0.875
  179TIP3    H1  501   0.636   4.353   0.956
  179TIP3    H2  502   0.504   4.406   0.904
  180TIP3   OH2  503   2.045   2.491   2.873
  180TIP3    H1  504   2.013   2.504   2.783
  180TIP3    H2  505   1.966   2.475   2.924
  181TIP3   OH2  506   5.350   6.821   5.149
  181TIP3    H1  507   5.406   6.807   5.226
  181TIP3    H2  508   5.381   6.757   5.085
  182TIP3   OH2  509   5.861   6.216   2.920
  182TIP3    H1  510   5.854   6.300   2.874
  182TIP3    H2  511   5.826   6.152   2.860
  183TIP3   OH2  512   0.463   5.996   0.544
  183TIP3    H1  513   0.426   5.914   0.511
  183TIP3    H2  514   0.482   5.978   0.636
  184TIP3   OH2  515   5.201   5.148   3.304
  184TIP3    H1  516   5.292   5.120   3.301
  184TIP3    H2  517   5.182   5.180   3.216
  185TIP3   OH2  518   3.609   0.247   4.131
  185TIP3    H1  519   3.603   0.159   4.168
  185TIP3    H2  520   3.543   0.249   4.063
  186TIP3   OH2  521   4.089   0.815   2.363
  186TIP3    H1  522   4.078   0.898   2.410
  186TIP3    H2  523   4.072   0.837   2.272
  187TIP3   OH2  524   4.152   4.368   2.643
  187TIP3    H1  525   4.231   4.422   2.640
  187TIP3    H2  526   4.082   4.431   2.659
  188TIP3   OH2  527   6.302   6.715   4.768
  188TIP3    H1  528   6.312   6.630   4.727
  188TIP3    H2  529   6.209   6.734   4.763
  189TIP3   OH2  530   6.891   1.413   2.651
  189TIP3    H1  531   6.832   1.403   2.577
  189TIP3    H2  532   6.965   1.356   2.632
  190TIP3   OH2  533   3.840   3.240   0.736
  190TIP3    H1  534   3.886   3.283   0.664
  190TIP3    H2  535   3.889   3.159   0.751
  191TIP3   OH2  536   1.124   2.112   0.610
  191TIP3    H1  537   1.034   2.138   0.631
  191TIP3    H2  538   1.151   2.057   0.684
  192TIP3   OH2  539   3.124   6.309   5.705
  192TIP3    H1  540   3.126   6.312   5.609
  192TIP3    H2  541   3.204   6.262   5.729
  193TIP3   OH2  542   0.145   1.670   0.870
  193TIP3    H1  543   0.177   1.666   0.960
  193TIP3    H2  544   0.050   1.678   0.877
  194TIP3   OH2  545   4.153   3.954   2.749
  194TIP3    H1  546   4.224   3.894   2.724
  194TIP3    H2  547   4.103   3.966   2.668
  195TIP3   OH2  548   2.098   1.366   0.564
  195TIP3    H1  549   2.034   1.344   0.631
  195TIP3    H2  550   2.081   1.304   0.493
  196TIP3   OH2  551   3.001   3.012   1.962
  196TIP3    H1  552   3.061   2.998   1.888
  196TIP3    H2  553   2.988   2.924   1.998
  197TIP3   OH2  554   6.527   3.662   3.656
  197TIP3    H1  555   6.569   3.703   3.582
  197TIP3    H2  556   6.573   3.578   3.667
  198TIP3   OH2  557   1.255   5.713   2.873
  198TIP3    H1  558   1.302   5.786   2.832
  198TIP3    H2  559   1.249   5.647   2.804
  199TIP3   OH2  560   0.036   2.869   3.158
  199TIP3    H1  561   0.009   2.801   3.219
  199TIP3    H2  562   0.010   2.951   3.199
  200TIP3   OH2  563   4.977   3.851   0.047
  200TIP3    H1  564   4.897   3.863  -0.005
  200TIP3    H2  565   5.016   3.939   0.052
  201TIP3   OH2  566   4.789   1.387   4.159
  201TIP3    H1  567   4.801   1.440   4.238
  201TIP3    H2  568   4.735   1.314   4.188
  202TIP3   OH2  569   5.839   4.113   5.751
  202TIP3    H1  570   5.875   4.131   5.838
  202TIP3    H2  571   5.870   4.026   5.729
  203TIP3   OH2  572   1.006   6.258   2.344
  203TIP3    H1  573   0.923   6.251   2.297
  203TIP3    H2  574   1.052   6.176   2.324
  204TIP3   OH2  575   1.794   0.790   0.221
  204TIP3    H1  576   1.841   0.748   0.293
  204TIP3    H2  577   1.761   0.717   0.168
  205TIP3   OH2  578   2.803   1.247   1.095
  205TIP3    H1  579   2.724   1.298   1.076
  205TIP3    H2  580   2.813   1.190   1.019
  206TIP3   OH2  581   6.363   3.990   2.931
  206TIP3    H1  582   6.341   3.985   2.838
  206TIP3    H2  583   6.300   4.052   2.967
  207TIP3   OH2  584   3.563   5.314   0.294
  207TIP3    H1  585   3.628   5.355   0.237
  207TIP3    H2  586   3.504   5.385   0.318
  208TIP3   OH2  587   6.052   6.277   5.360
  208TIP3    H1  588   6.036   6.200   5.305
  208TIP3    H2  589   6.010   6.349   5.313
  209TIP3   OH2  590   1.916   4.308   0.768
  209TIP3    H1  591   1.931   4.369   0.840
  209TIP3    H2  592   1.933   4.221   0.805
  210TIP3   OH2  593   0.309   4.849   0.800
  210TIP3    H1  594   0.387   4.857   0.855
  210TIP3    H2  595   0.278   4.760   0.817
  211TIP3   OH2  596   4.409   4.012   3.342
  211TIP3    H1  597   4.405   4.039   3.250
  211TIP3    H2  598   4.340   3.947   3.350
  212TIP3   OH2  599   0.603   6.534   3.513
  212TIP3    H1  600   0.587   6.548   3.607
  212TIP3    H2  601   0.527   6.485   3.483
  213TIP3   OH2  602   1.569   4.123   4.145
  213TIP3    H1  603   1.527   4.171   4.074
  213TIP3    H2  604   1.558   4.180   4.222
  214TIP3   OH2  605   1.839   1.371   1.835
  214TIP3    H1  606   1.873   1.348   1.749
  214TIP3    H2  607   1.752   1.406   1.818
  215TIP3   OH2  608   2.295   1.940   3.602
  215TIP3    H1  609   2.357   1.891   3.548
  215TIP3    H2  610   2.320   2.031   3.589
  216TIP3   OH2  611   4.262   6.070   1.585
  216TIP3    H1  612   4.202   6.122   1.639
  216TIP3    H2  613   4.265   6.116   1.501
  217TIP3   OH2  614   5.201   5.548   3.808
  217TIP3    H1  615   5.246   5.502   3.879
  217TIP3    H2  616   5.265   5.549   3.737
  218TIP3   OH2  617   2.288   2.543   1.042
  218TIP3    H1  618   2.375   2.570   1.015
  218TIP3    H2  619   2.230   2.575   0.973
  219TIP3   OH2  620   4.052   0.753   0.909
  219TIP3    H1  621   4.145   0.775   0.911
  219TIP3    H2  622   4.051   0.658   0.893
  220TIP3   OH2  623   5.266   5.567   1.692
  220TIP3    H1  624   5.276   5.522   1.776
  220TIP3    H2  625   5.268   5.660   1.714
  221TIP3   OH2  626   4.649   2.769   0.581
  221TIP3    H1  627   4.633   2.806   0.668
  221TIP3    H2  628   4.578   2.805   0.527
  222TIP3   OH2  629   1.619   2.007   2.542
  222TIP3    H1  630   1.678   1.961   2.601
  222TIP3    H2  631   1.538   1.957   2.544
  223TIP3   OH2  632   2.233   4.186   5.142
  223TIP3    H1  633   2.265   4.105   5.103
  223TIP3    H2  634   2.232   4.169   5.236
  224TIP3   OH2  635   0.436   3.271   4.878
  224TIP3    H1  636   0.492   3.194   4.891
  224TIP3    H2  637   0.399   3.288   4.965
  225TIP3   OH2  638   4.339   0.801   2.803
  225TIP3    H1  639   4.365   0.849   2.725
  225TIP3    H2  640   4.293   0.724   2.769
  226TIP3   OH2  641   3.759   1.050   1.220
  226TIP3    H1  642   3.761   1.088   1.132
  226TIP3    H2  643   3.731   1.121   1.276
  227TIP3   OH2  644   3.169   1.167   1.099
  227TIP3    H1  645   3.137   1.183   1.010
  227TIP3    H2  646   3.175   1.071   1.105
  228TIP3   OH2  647   6.241   5.969   3.743
  228TIP3    H1  648   6.313   5.953   3.682
  228TIP3    H2  649   6.280   5.959   3.830
  229TIP3   OH2  650   1.532   4.952   0.124
  229TIP3    H1  651   1.572   5.006   0.055
  229TIP3    H2  652   1.548   5.001   0.205
  230TIP3   OH2  653   4.497   2.184   4.686
  230TIP3    H1  654   4.425   2.246   4.683
  230TIP3    H2  655   4.545   2.199   4.605
  231TIP3   OH2  656   6.524   4.251   1.499
  231TIP3    H1  657   6.591   4.196   1.458
  231TIP3    H2  658   6.441   4.214   1.469
  232TIP3   OH2  659   6.879   1.608   2.834
  232TIP3    H1  660   6.888   1.531   2.777
  232TIP3    H2  661   6.801   1.590   2.887
  233TIP3   OH2  662   4.538   1.897   4.027
  233TIP3    H1  663   4.471   1.904   3.959
  233TIP3    H2  664   4.500   1.837   4.092
  234TIP3   OH2  665   2.053   4.249   1.424
  234TIP3    H1  666   1.960   4.266   1.439
  234TIP3    H2  667   2.063   4.155   1.436
  235TIP3   OH2  668   3.719   5.677   4.346
  235TIP3    H1  669   3.752   5.597   4.389
  235TIP3    H2  670   3.666   5.645   4.273
  236TIP3   OH2  671   2.954   3.303   1.866
  236TIP3    H1  672   2.878   3.302   1.807
  236TIP3    H2  673   2.954   3.217   1.907
  237TIP3   OH2  674   4.634   2.770   3.313
  237TIP3    H1  675   4.696   2.721   3.259
  237TIP3    H2  676   4.549   2.731   3.292
  238TIP3   OH2  677   3.330   5.463   0.354
  238TIP3    H1  678   3.246   5.427   0.384
  238TIP3    H2  679   3.310   5.501   0.269
  239TIP3   OH2  680   5.010   5.691   3.957
  239TIP3    H1  681   5.084   5.659   3.906
  239TIP3    H2  682   5.041   5.772   3.997
  240TIP3   OH2  683   4.055   2.962   3.324
  240TIP3    H1  684   4.107   2.884   3.303
  240TIP3    H2  685   3.976   2.953   3.270
  241TIP3   OH2  686   0.081   6.599   2.910
  241TIP3    H1  687   0.128   6.674   2.874
  241TIP3    H2  688   0.071   6.618   3.003
  242TIP3   OH2  689   1.667   6.218   5.726
  242TIP3    H1  690   1.637   6.127   5.730
  242TIP3    H2  691   1.667   6.248   5.817
  243TIP3   OH2  692   4.682   0.710   2.581
  243TIP3    H1  693   4.627   0.731   2.506
  243TIP3    H2  694   4.641   0.632   2.619
  244TIP3   OH2  695   0.876   0.297   0.711
  244TIP3    H1  696   0.860   0.204   0.723
  244TIP3    H2  697   0.951   0.316   0.768
  245TIP3   OH2  698   0.892   4.202   3.809
  245TIP3    H1  699   0.806   4.210   3.768
  245TIP3    H2  700   0.950   4.173   3.738
  246TIP3   OH2  701   6.548   6.512   1.029
  246TIP3    H1  702   6.528   6.599   1.062
  246TIP3    H2  703   6.487   6.498   0.957
  247TIP3   OH2  704   2.744   2.639   4.390
  247TIP3    H1  705   2.737   2.731   4.417
  247TIP3    H2  706   2.655   2.606   4.397
  248TIP3   OH2  707   5.619   6.146   2.076
  248TIP3    H1  708   5.578   6.213   2.022
  248TIP3    H2  709   5.546   6.093   2.108
  249TIP3   OH2  710   3.230   5.284   3.202
  249TIP3    H1  711   3.207   5.255   3.290
  249TIP3    H2  712   3.284   5.214   3.166
  250TIP3   OH2  713   3.454   2.651   4.584
  250TIP3    H1  714   3.520   2.603   4.634
  250TIP3    H2  715   3.468   2.743   4.608
  251TIP3   OH2  716   1.291   1.206   3.090
  251TIP3    H1  717   1.207   1.197   3.043
  251TIP3    H2  718   1.270   1.258   3.167
  252TIP3   OH2  719   2.576   4.630   5.180
  252TIP3    H1  720   2.598   4.706   5.233
  252TIP3    H2  721   2.532   4.667   5.103
  253TIP3   OH2  722   3.526   6.146   1.861
  253TIP3    H1  723   3.516   6.051   1.856
  253TIP3    H2  724   3.476   6.180   1.787
  254TIP3   OH2  725   3.658   3.506   4.078
  254TIP3    H1  726   3.612   3.462   4.149
  254TIP3    H2  727   3.724   3.443   4.049
  255TIP3   OH2  728   6.592   4.407   0.122
  255TIP3    H1  729   6.669   4.447   0.081
  255TIP3    H2  730   6.604   4.425   0.216
  256TIP3   OH2  731   6.168   6.663   1.695
  256TIP3    H1  732   6.129   6.617   1.770
  256TIP3    H2  733   6.172   6.755   1.723
  257TIP3   OH2  734   2.117   5.793   0.921
  257TIP3    H1  735   2.200   5.787   0.875
  257TIP3    H2  736   2.051   5.770   0.855
  258TIP3   OH2  737   5.805   6.808   3.540
  258TIP3    H1  738   5.894   6.840   3.524
  258TIP3    H2  739   5.793   6.737   3.477
  259TIP3   OH2  740   4.164   1.163   4.723
  259TIP3    H1  741   4.197   1.251   4.708
  259TIP3    H2  742   4.069   1.173   4.726
  260TIP3   OH2  743   1.187   6.198   0.405
  260TIP3    H1  744   1.166   6.220   0.496
  260TIP3    H2  745   1.226   6.111   0.410
  261TIP3   OH2  746   4.813   1.496   3.828
  261TIP3    H1  747   4.739   1.490   3.768
  261TIP3    H2  748   4.796   1.574   3.880
  262TIP3   OH2  749   3.138   0.611   1.659
  262TIP3    H1  750   3.150   0.618   1.754
  262TIP3    H2  751   3.127   0.702   1.630
  263TIP3   OH2  752   0.797   0.909   4.929
  263TIP3    H1  753   0.893   0.911   4.930
  263TIP3    H2  754   0.774   0.927   4.838
  264TIP3   OH2  755   4.160   1.160   2.888
  264TIP3    H1  756   4.091   1.108   2.847
  264TIP3    H2  757   4.192   1.106   2.960
  265TIP3   OH2  758   0.645   1.681   1.613
  265TIP3    H1  759   0.654   1.590   1.584
  265TIP3    H2  760   0.557   1.686   1.649
  266TIP3   OH2  761   2.204   1.245   1.740
  266TIP3    H1  762   2.143   1.276   1.673
  266TIP3    H2  763   2.280   1.303   1.732
  267TIP3   OH2  764   4.876   6.343   0.734
  267TIP3    H1  765   4.957   6.310   0.773
  267TIP3    H2  766   4.816   6.353   0.807
  268TIP3   OH2  767   6.909   2.619   3.427
  268TIP3    H1  768   6.868   2.647   3.509
  268TIP3    H2  769   6.872   2.532   3.410
  269TIP3   OH2  770   0.867   5.330   0.951
  269TIP3    H1  771   0.801   5.338   1.020
  269TIP3    H2  772   0.844   5.249   0.906
  270TIP3   OH2  773   5.407   1.958   1.616
  270TIP3    H1  774   5.349   2.019   1.662
  270TIP3    H2  775   5.485   1.952   1.672
  271TIP3   OH2  776   1.846   4.075   4.263
  271TIP3    H1  777   1.785   4.054   4.193
  271TIP3    H2  778   1.790   4.104   4.335
  272TIP3   OH2  779   6.952   5.602   2.225
  272TIP3    H1  780   6.865   5.619   2.262
  272TIP3    H2  781   6.991   5.689   2.217
  273TIP3   OH2  782   4.714   3.988   1.598
  273TIP3    H1  783   4.701   4.062   1.539
  273TIP3    H2  784   4.661   4.009   1.675
  274TIP3   OH2  785   4.338   4.628   0.897
  274TIP3    H1  786   4.245   4.648   0.909
  274TIP3    H2  787   4.382   4.671   0.971
  275TIP3   OH2  788   0.517   3.449   3.037
  275TIP3    H1  789   0.502   3.537   3.002
  275TIP3    H2  790   0.610   3.448   3.061
  276TIP3   OH2  791   4.637   3.331   3.619
  276TIP3    H1  792   4.592   3.367   3.695
  276TIP3    H2  793   4.708   3.394   3.601
  277TIP3   OH2  794   2.674   2.352   1.601
  277TIP3    H1  795   2.634   2.271   1.633
  277TIP3    H2  796   2.721   2.325   1.522
  278TIP3   OH2  797   5.962   5.154   2.170
  278TIP3    H1  798   5.948   5.196   2.255
  278TIP3    H2  799   5.882   5.104   2.154
  279TIP3   OH2  800   2.950   2.420   4.719
  279TIP3    H1  801   2.963   2.496   4.775
  279TIP3    H2  802   2.979   2.449   4.632
  280TIP3   OH2  803   4.058   3.989   3.168
  280TIP3    H1  804   4.019   3.981   3.081
  280TIP3    H2  805   4.136   3.933   3.165
  281TIP3   OH2  806   1.351   0.390   3.013
  281TIP3    H1  807   1.404   0.435   3.079
  281TIP3    H2  808   1.326   0.458   2.951
  282TIP3   OH2  809   1.031   0.582   4.737
  282TIP3    H1  810   1.114   0.539   4.757
  282TIP3    H2  811   0.977   0.569   4.815
  283TIP3   OH2  812   2.489   1.238   3.770
  283TIP3    H1  813   2.500   1.333   3.775
  283TIP3    H2  814   2.448   1.215   3.853
  284TIP3   OH2  815   4.592   6.319   0.605
  284TIP3    H1  816   4.665   6.370   0.639
  284TIP3    H2  817   4.607   6.230   0.637
  285TIP3   OH2  818   6.091   2.038   3.846
  285TIP3    H1  819   6.129   1.965   3.895
  285TIP3    H2  820   6.001   2.045   3.878
  286TIP3   OH2  821   6.013   6.329   3.111
  286TIP3    H1  822   5.983   6.266   3.046
  286TIP3    H2  823   6.097   6.359   3.078
  287TIP3   OH2  824   6.896   0.749   2.863
  287TIP3    H1  825   6.937   0.752   2.777
  287TIP3    H2  826   6.859   0.661   2.869
  288TIP3   OH2  827   4.168   3.294   3.070
  288TIP3    H1  828   4.256   3.278   3.103
  288TIP3    H2  829   4.179   3.307   2.976
  289TIP3   OH2  830   5.207   3.972   3.440
  289TIP3    H1  831   5.282   4.017   3.401
  289TIP3    H2  832   5.184   4.026   3.515
  290TIP3   OH2  833   6.082   1.364   0.422
  290TIP3    H1  834   6.155   1.401   0.373
  290TIP3    H2  835   6.005   1.387   0.370
  291TIP3   OH2  836   5.782   2.243   3.730
  291TIP3    H1  837   5.774   2.190   3.651
  291TIP3    H2  838   5.814   2.181   3.796
  292TIP3   OH2  839   4.820   1.471   1.417
  292TIP3    H1  840   4.877   1.547   1.430
  292TIP3    H2  841   4.732   1.502   1.437
  293TIP3   OH2  842   4.049   3.022   1.752
  293TIP3    H1  843   4.048   3.117   1.758
  293TIP3    H2  844   4.082   2.993   1.837
  294TIP3   OH2  845   6.856   6.579   1.614
  294TIP3    H1  846   6.808   6.500   1.591
  294TIP3    H2  847   6.913   6.596   1.539
  295TIP3   OH2  848   5.457   3.200   1.530
  295TIP3    H1  849   5.501   3.202   1.445
  295TIP3    H2  850   5.437   3.291   1.549
  296TIP3   OH2  851   7.104   4.187   1.693
  296TIP3    H1  852   7.044   4.112   1.695
  296TIP3    H2  853   7.121   4.201   1.600
  297TIP3   OH2  854   5.359   3.053   0.044
  297TIP3    H1  855   5.280   3.030  -0.005
  297TIP3    H2  856   5.409   2.971   0.048
  298TIP3   OH2  857   1.360   4.921   0.994
  298TIP3    H1  858   1.310   4.956   0.920
  298TIP3    H2  859   1.440   4.973   0.996
  299TIP3   OH2  860   4.816   4.793   2.770
  299TIP3    H1  861   4.810   4.703   2.801
  299TIP3    H2  862   4.725   4.823   2.767
  300TIP3   OH2  863   2.636   6.441   5.015
  300TIP3    H1  864   2.562   6.402   4.968
  300TIP3    H2  865   2.704   6.374   5.011
  301TIP3   OH2  866   4.062   4.222   5.715
  301TIP3    H1  867   4.005   4.298   5.700
  301TIP3    H2  868   4.006   4.159   5.759
  302TIP3   OH2  869   2.285   6.116   2.638
  302TIP3    H1  870   2.251   6.151   2.556
  302TIP3    H2  871   2.345   6.046   2.610
  303TIP3   OH2  872   1.433   2.377   4.805
  303TIP3    H1  873   1.496   2.449   4.809
  303TIP3    H2  874   1.420   2.361   4.711
  304TIP3   OH2  875   6.754   3.393   5.303
  304TIP3    H1  876   6.792   3.367   5.219
  304TIP3    H2  877   6.829   3.398   5.363
  305TIP3   OH2  878   4.960   0.154   5.397
  305TIP3    H1  879   5.016   0.110   5.461
  305TIP3    H2  880   4.881   0.178   5.446
  306TIP3   OH2  881   0.111   4.978   0.976
  306TIP3    H1  882   0.167   4.987   1.053
  306TIP3    H2  883   0.172   4.956   0.905
  307TIP3   OH2  884   4.811   2.671   4.310
  307TIP3    H1  885   4.877   2.713   4.255
  307TIP3    H2  886   4.861   2.628   4.379
  308TIP3   OH2  887   1.712   5.963   0.434
  308TIP3    H1  888   1.805   5.948   0.416
  308TIP3    H2  889   1.681   6.014   0.359
  309TIP3   OH2  890   5.349   3.553   1.354
  309TIP3    H1  891   5.254   3.554   1.343
  309TIP3    H2  892   5.373   3.644   1.368
  310TIP3   OH2  893   0.528   6.435   2.071
  310TIP3    H1  894   0.489   6.443   2.158
  310TIP3    H2  895   0.462   6.388   2.020
  311TIP3   OH2  896   3.190   6.026   4.085
  311TIP3    H1  897   3.103   5.997   4.058
  311TIP3    H2  898   3.248   5.954   4.061
  312TIP3   OH2  899   0.492   0.226   2.010
  312TIP3    H1  900   0.516   0.134   1.998
  312TIP3    H2  901   0.408   0.223   2.057
  313TIP3   OH2  902   0.061   3.502   5.072
  313TIP3    H1  903   0.047   3.463   5.159
  313TIP3    H2  904   0.115   3.579   5.089
  314TIP3   OH2  905   0.158   1.819   4.900
  314TIP3    H1  906   0.190   1.863   4.979
  314TIP3    H2  907   0.192   1.730   4.906
  315TIP3   OH2  908   0.391   4.254   4.702
  315TIP3    H1  909   0.431   4.294   4.625
  315TIP3    H2  910   0.304   4.229   4.673
  316TIP3   OH2  911   4.130   3.747   1.773
  316TIP3    H1  912   4.093   3.823   1.727
  316TIP3    H2  913   4.146   3.683   1.704
  317TIP3   OH2  914   3.457   3.301   0.910
  317TIP3    H1  915   3.371   3.267   0.936
  317TIP3    H2  916   3.474   3.260   0.825
  318TIP3   OH2  917   3.172   0.592   4.796
  318TIP3    H1  918   3.194   0.532   4.725
  318TIP3    H2  919   3.097   0.551   4.840
  319TIP3   OH2  920   4.666   5.551   0.101
  319TIP3    H1  921   4.667   5.539   0.196
  319TIP3    H2  922   4.663   5.646   0.088
  320TIP3   OH2  923   6.046   1.922   0.036
  320TIP3    H1  924   6.060   1.828   0.051
  320TIP3    H2  925   6.032   1.958   0.123
  321TIP3   OH2  926   4.418   3.282   1.400
  321TIP3    H1  927   4.326   3.259   1.407
  321TIP3    H2  928   4.451   3.277   1.490
  322TIP3   OH2  929   6.767   3.883   4.851
  322TIP3    H1  930   6.820   3.959   4.877
  322TIP3    H2  931   6.799   3.861   4.763
  323TIP3   OH2  932   6.987   4.216   5.637
  323TIP3    H1  933   7.049   4.278   5.599
  323TIP3    H2  934   6.997   4.227   5.732
  324TIP3   OH2  935   5.854   5.494   5.523
  324TIP3    H1  936   5.893   5.496   5.436
  324TIP3    H2  937   5.848   5.586   5.549
  325TIP3   OH2  938   3.080   4.488   1.429
  325TIP3    H1  939   3.152   4.429   1.449
  325TIP3    H2  940   3.001   4.438   1.451
  326TIP3   OH2  941   4.326   1.139   3.645
  326TIP3    H1  942   4.400   1.085   3.674
  326TIP3    H2  943   4.255   1.076   3.629
  327TIP3   OH2  944   2.699   6.042   1.386
  327TIP3    H1  945   2.692   5.959   1.434
  327TIP3    H2  946   2.767   6.026   1.321
  328TIP3   OH2  947   3.026   2.720   5.295
  328TIP3    H1  948   3.050   2.663   5.222
  328TIP3    H2  949   2.955   2.775   5.261
  329TIP3   OH2  950   3.599   3.455   1.163
  329TIP3    H1  951   3.695   3.446   1.166
  329TIP3    H2  952   3.566   3.369   1.190
  330TIP3   OH2  953   3.350   1.178   5.194
  330TIP3    H1  954   3.336   1.089   5.225
  330TIP3    H2  955   3.264   1.206   5.161
  331TIP3   OH2  956   2.844   1.245   5.034
  331TIP3    H1  957   2.773   1.216   5.091
  331TIP3    H2  958   2.800   1.290   4.962
  332TIP3   OH2  959   2.018   1.576   0.947
  332TIP3    H1  960   2.105   1.546   0.920
  332TIP3    H2  961   1.983   1.619   0.869
  333TIP3   OH2  962   2.004   0.759   0.428
  333TIP3    H1  963   1.976   0.698   0.497
  333TIP3    H2  964   1.965   0.843   0.453
  334TIP3   OH2  965   7.091   4.774   2.160
  334TIP3    H1  966   7.083   4.807   2.070
  334TIP3    H2  967   7.139   4.691   2.150
  335TIP3   OH2  968   3.719   4.386   4.585
  335TIP3    H1  969   3.812   4.405   4.569
  335TIP3    H2  970   3.693   4.332   4.510
  336TIP3   OH2  971   5.548   6.293   0.596
  336TIP3    H1  972   5.475   6.343   0.559
  336TIP3    H2  973   5.506   6.231   0.656
  337TIP3   OH2  974   1.535   0.406   3.533
  337TIP3    H1  975   1.588   0.434   3.459
  337TIP3    H2  976   1.471   0.477   3.545
  338TIP3   OH2  977   6.877   3.940   2.421
  338TIP3    H1  978   6.856   4.032   2.435
  338TIP3    H2  979   6.855   3.897   2.504
  339TIP3   OH2  980   3.609   0.194   1.571
  339TIP3    H1  981   3.597   0.283   1.539
  339TIP3    H2  982   3.619   0.141   1.492
  340TIP3   OH2  983   0.551   0.313   1.417
  340TIP3    H1  984   0.527   0.387   1.473
  340TIP3    H2  985   0.501   0.327   1.337
  341TIP3   OH2  986   0.379   3.935   2.882
  341TIP3    H1  987   0.307   3.980   2.837
  341TIP3    H2  988   0.457   3.963   2.835
  342TIP3   OH2  989   4.107   2.071   4.591
  342TIP3    H1  990   4.201   2.066   4.576
  342TIP3    H2  991   4.085   2.163   4.581
  343TIP3   OH2  992   0.856   0.759   1.405
  343TIP3    H1  993   0.853   0.845   1.363
  343TIP3    H2  994   0.764   0.733   1.412
  344TIP3   OH2  995   1.459   1.611   2.365
  344TIP3    H1  996   1.370   1.630   2.394
  344TIP3    H2  997   1.495   1.695   2.338
  345TIP3   OH2  998   5.484   0.324   4.062
  345TIP3    H1  999   5.415   0.316   4.128
  345TIP3    H2 1000   5.453   0.273   3.988
  346TIP3   OH2 1001   0.830   3.059   2.638
  346TIP3    H1 1002   0.813   2.991   2.702
  346TIP3    H2 1003   0.919   3.089   2.658
  347TIP3   OH2 1004   3.443   1.065   2.876
  347TIP3    H1 1005   3.509   1.055   2.945
  347TIP3    H2 1006   3.362   1.034   2.917
  348TIP3   OH2 1007   6.743   3.743   3.485
  348TIP3    H1 1008   6.804   3.671   3.500
  348TIP3    H2 1009   6.747   3.760   3.391
  349TIP3   OH2 1010   7.068   3.447   5.680
  349TIP3    H1 1011   7.106   3.463   5.594
  349TIP3    H2 1012   7.144   3.445   5.739
  350TIP3   OH2 1013   3.563   2.056   5.601
  350TIP3    H1 1014   3.646   2.036   5.558
  350TIP3    H2 1015   3.580   2.041   5.694
  351TIP3   OH2 1016   5.790   4.983   5.611
  351TIP3    H1 1017   5.748   4.998   5.695
  351TIP3    H2 1018   5.841   5.062   5.594
  352TIP3   OH2 1019   2.676   5.324   0.435
  352TIP3    H1 1020   2.589   5.304   0.400
  352TIP3    H2 1021   2.662   5.335   0.529
  353TIP3   OH2 1022   6.605   2.213   0.940
  353TIP3    H1 1023   6.524   2.163   0.939
  353TIP3    H2 1024   6.610   2.251   1.028
  354TIP3   OH2 1025   5.524   1.840   5.822
  354TIP3    H1 1026   5.435   1.806   5.816
  354TIP3    H2 1027   5.518   1.929   5.787
  355TIP3   OH2 1028   1.896   3.255   4.736
  355TIP3    H1 1029   1.936   3.185   4.786
  355TIP3    H2 1030   1.901   3.226   4.645
  356TIP3   OH2 1031   1.820   0.940   3.587
  356TIP3    H1 1032   1.749   0.956   3.649
  356TIP3    H2 1033   1.900   0.949   3.640
  357TIP3   OH2 1034   6.132   6.315   4.885
  357TIP3    H1 1035   6.132   6.229   4.845
  357TIP3    H2 1036   6.040   6.342   4.886
  358TIP3   OH2 1037   0.572   5.997   0.818
  358TIP3    H1 1038   0.534   6.044   0.893
  358TIP3    H2 1039   0.604   5.915   0.855
  359TIP3   OH2 1040   6.435   1.723   5.805
  359TIP3    H1 1041   6.366   1.738   5.741
  359TIP3    H2 1042   6.482   1.646   5.772
  360TIP3   OH2 1043   1.698   0.528   2.293
  360TIP3    H1 1044   1.619   0.484   2.263
  360TIP3    H2 1045   1.745   0.462   2.343
  361TIP3   OH2 1046   2.576   5.591   0.446
  361TIP3    H1 1047   2.655   5.538   0.436
  361TIP3    H2 1048   2.508   5.541   0.400
  362TIP3   OH2 1049   3.831   0.011   0.062
  362TIP3    H1 1050   3.867  -0.025  -0.020
  362TIP3    H2 1051   3.738   0.022   0.045
  363TIP3   OH2 1052   1.469   4.147   4.985
  363TIP3    H1 1053   1.534   4.129   5.053
  363TIP3    H2 1054   1.508   4.215   4.931
  364TIP3   OH2 1055   0.416   3.622   3.753
  364TIP3    H1 1056   0.487   3.560   3.736
  364TIP3    H2 1057   0.442   3.668   3.833
  365TIP3   OH2 1058   6.426   4.699   3.145
  365TIP3    H1 1059   6.390   4.612   3.128
  365TIP3    H2 1060   6.516   4.695   3.114
  366TIP3   OH2 1061   3.498   1.712   2.688
  366TIP3    H1 1062   3.551   1.671   2.756
  366TIP3    H2 1063   3.407   1.695   2.714
  367TIP3   OH2 1064   2.990   4.573   2.966
  367TIP3    H1 1065   2.976   4.481   2.945
  367TIP3    H2 1066   2.969   4.581   3.059
  368TIP3   OH2 1067   6.369   5.756   5.167
  368TIP3    H1 1068   6.433   5.685   5.160
  368TIP3    H2 1069   6.342   5.773   5.077
  369TIP3   OH2 1070   0.659   5.849   4.956
  369TIP3    H1 1071   0.646   5.763   4.997
  369TIP3    H2 1072   0.579   5.897   4.976
  370TIP3   OH2 1073   0.192   3.280   1.474
  370TIP3    H1 1074   0.235   3.221   1.411
  370TIP3    H2 1075   0.105   3.293   1.437
  371TIP3   OH2 1076   3.749   3.995   2.363
  371TIP3    H1 1077   3.738   4.087   2.338
  371TIP3    H2 1078   3.661   3.967   2.389
  372TIP3   OH2 1079   1.144   4.566   1.299
  372TIP3    H1 1080   1.166   4.485   1.254
  372TIP3    H2 1081   1.226   4.594   1.339
  373TIP3   OH2 1082   1.090   5.315   4.729
  373TIP3    H1 1083   1.128   5.259   4.798
  373TIP3    H2 1084   1.038   5.255   4.676
  374TIP3   OH2 1085   2.338   3.560   3.784
  374TIP3    H1 1086   2.316   3.588   3.695
  374TIP3    H2 1087   2.374   3.472   3.773
  375TIP3   OH2 1088   4.159   2.061   0.810
  375TIP3    H1 1089   4.220   2.121   0.768
  375TIP3    H2 1090   4.076   2.108   0.813
  376TIP3   OH2 1091   6.464   4.980   4.328
  376TIP3    H1 1092   6.453   4.923   4.251
  376TIP3    H2 1093   6.514   4.926   4.390
  377TIP3   OH2 1094   1.241   1.988   5.780
  377TIP3    H1 1095   1.294   1.925   5.731
  377TIP3    H2 1096   1.168   1.936   5.813
  378TIP3   OH2 1097   6.500   3.158   2.900
  378TIP3    H1 1098   6.566   3.103   2.941
  378TIP3    H2 1099   6.531   3.247   2.913
  379TIP3   OH2 1100   6.965   4.374   5.226
  379TIP3    H1 1101   7.044   4.354   5.278
  379TIP3    H2 1102   6.911   4.427   5.284
  380TIP3   OH2 1103   1.990   2.548   5.398
  380TIP3    H1 1104   1.964   2.541   5.306
  380TIP3    H2 1105   1.951   2.470   5.439
  381TIP3   OH2 1106   4.170   1.508   5.047
  381TIP3    H1 1107   4.147   1.415   5.042
  381TIP3    H2 1108   4.265   1.509   5.059
  382TIP3   OH2 1109   2.850   0.415   2.139
  382TIP3    H1 1110   2.931   0.364   2.134
  382TIP3    H2 1111   2.780   0.349   2.139
  383TIP3   OH2 1112   1.727   4.883   4.974
  383TIP3    H1 1113   1.723   4.799   4.930
  383TIP3    H2 1114   1.698   4.865   5.063
  384TIP3   OH2 1115   5.047   5.430   0.346
  384TIP3    H1 1116   5.024   5.395   0.260
  384TIP3    H2 1117   4.994   5.509   0.355
  385TIP3   OH2 1118   5.044   1.453   4.610
  385TIP3    H1 1119   5.039   1.516   4.537
  385TIP3    H2 1120   4.978   1.484   4.672
  386TIP3   OH2 1121   3.007   3.160   5.821
  386TIP3    H1 1122   2.935   3.141   5.882
  386TIP3    H2 1123   3.086   3.147   5.873
  387TIP3   OH2 1124   0.378   3.800   5.519
  387TIP3    H1 1125   0.419   3.720   5.550
  387TIP3    H2 1126   0.371   3.855   5.597
  388TIP3   OH2 1127   0.498   4.153   3.320
  388TIP3    H1 1128   0.524   4.065   3.346
  388TIP3    H2 1129   0.406   4.159   3.344
  389TIP3   OH2 1130  -0.012   1.030   2.463
  389TIP3    H1 1131  -0.034   1.059   2.374
  389TIP3    H2 1132   0.074   0.989   2.454
  390TIP3   OH2 1133   0.260   1.750   3.318
  390TIP3    H1 1134   0.245   1.694   3.394
  390TIP3    H2 1135   0.173   1.763   3.280
  391TIP3   OH2 1136   1.765   1.080   0.247
  391TIP3    H1 1137   1.717   1.064   0.328
  391TIP3    H2 1138   1.790   0.993   0.216
  392TIP3   OH2 1139   1.760   4.404   5.070
  392TIP3    H1 1140   1.747   4.499   5.075
  392TIP3    H2 1141   1.699   4.375   5.003
  393TIP3   OH2 1142   2.800   2.429   2.697
  393TIP3    H1 1143   2.806   2.521   2.722
  393TIP3    H2 1144   2.854   2.422   2.618
  394TIP3   OH2 1145   5.699   3.569   4.140
  394TIP3    H1 1146   5.649   3.565   4.058
  394TIP3    H2 1147   5.632   3.582   4.208
  395TIP3   OH2 1148   1.582   6.527   3.399
  395TIP3    H1 1149   1.590   6.562   3.488
  395TIP3    H2 1150   1.489   6.540   3.377
  396TIP3   OH2 1151   1.617   6.415   4.616
  396TIP3    H1 1152   1.698   6.454   4.651
  396TIP3    H2 1153   1.547   6.472   4.649
  397TIP3   OH2 1154   2.951   4.827   2.770
  397TIP3    H1 1155   2.869   4.779   2.783
  397TIP3    H2 1156   2.979   4.801   2.682
  398TIP3   OH2 1157   0.198   1.420   3.173
  398TIP3    H1 1158   0.153   1.440   3.091
  398TIP3    H2 1159   0.128   1.394   3.233
  399TIP3   OH2 1160   7.020   1.416   0.246
  399TIP3    H1 1161   6.943   1.466   0.219
  399TIP3    H2 1162   7.089   1.481   0.256
  400TIP3   OH2 1163   4.874   5.171   4.151
  400TIP3    H1 1164   4.926   5.132   4.081
  400TIP3    H2 1165   4.881   5.266   4.135
  401TIP3   OH2 1166   4.554   5.759   0.348
  401TIP3    H1 1167   4.521   5.846   0.371
  401TIP3    H2 1168   4.621   5.775   0.281
  402TIP3   OH2 1169   2.257   0.360   1.639
  402TIP3    H1 1170   2.251   0.447   1.677
  402TIP3    H2 1171   2.329   0.366   1.577
  403TIP3   OH2 1172   2.221   1.684   0.116
  403TIP3    H1 1173   2.226   1.754   0.181
  403TIP3    H2 1174   2.310   1.648   0.113
  404TIP3   OH2 1175   6.852   5.680   3.748
  404TIP3    H1 1176   6.915   5.628   3.798
  404TIP3    H2 1177   6.810   5.735   3.814
  405TIP3   OH2 1178   6.371   3.080   3.224
  405TIP3    H1 1179   6.347   3.154   3.280
  405TIP3    H2 1180   6.298   3.071   3.163
  406TIP3   OH2 1181   3.588   5.976   5.475
  406TIP3    H1 1182   3.662   5.917   5.489
  406TIP3    H2 1183   3.606   6.051   5.532
  407TIP3   OH2 1184   5.870   5.804   1.436
  407TIP3    H1 1185   5.775   5.799   1.433
  407TIP3    H2 1186   5.900   5.733   1.380
  408TIP3   OH2 1187   6.099   2.994   3.467
  408TIP3    H1 1188   6.047   3.025   3.392
  408TIP3    H2 1189   6.039   3.000   3.541
  409TIP3   OH2 1190   2.337   3.846   3.498
  409TIP3    H1 1191   2.367   3.910   3.562
  409TIP3    H2 1192   2.341   3.892   3.414
  410TIP3   OH2 1193   2.210   3.989   2.109
  410TIP3    H1 1194   2.119   3.972   2.084
  410TIP3    H2 1195   2.260   3.974   2.029
  411TIP3   OH2 1196   5.048   2.986   2.457
  411TIP3    H1 1197   5.104   2.924   2.503
  411TIP3    H2 1198   4.973   2.933   2.428
  412TIP3   OH2 1199   0.499   4.524   3.560
  412TIP3    H1 1200   0.417   4.562   3.593
  412TIP3    H2 1201   0.561   4.597   3.562
  413TIP3   OH2 1202   4.528   4.129   1.776
  413TIP3    H1 1203   4.455   4.089   1.824
  413TIP3    H2 1204   4.497   4.215   1.750
  414TIP3   OH2 1205   5.096   4.072   4.624
  414TIP3    H1 1206   5.168   4.119   4.581
  414TIP3    H2 1207   5.062   4.134   4.688
  415TIP3   OH2 1208   5.266   1.338   3.079
  415TIP3    H1 1209   5.261   1.381   2.994
  415TIP3    H2 1210   5.328   1.391   3.129
  416TIP3   OH2 1211   5.356   3.254   4.598
  416TIP3    H1 1212   5.356   3.349   4.593
  416TIP3    H2 1213   5.418   3.226   4.531
  417TIP3   OH2 1214   0.303   5.215   0.986
  417TIP3    H1 1215   0.284   5.184   1.074
  417TIP3    H2 1216   0.224   5.263   0.960
  418TIP3   OH2 1217   6.980   5.822   4.829
  418TIP3    H1 1218   6.903   5.833   4.773
  418TIP3    H2 1219   7.013   5.911   4.841
  419TIP3   OH2 1220   3.635   0.310   2.283
  419TIP3    H1 1221   3.554   0.260   2.284
  419TIP3    H2 1222   3.690   0.268   2.217
  420TIP3   OH2 1223   6.817   6.649   4.830
  420TIP3    H1 1224   6.727   6.667   4.858
  420TIP3    H2 1225   6.810   6.573   4.773
  421TIP3   OH2 1226   5.780   3.856   2.952
  421TIP3    H1 1227   5.875   3.867   2.962
  421TIP3    H2 1228   5.749   3.940   2.919
  422TIP3   OH2 1229   0.108   2.996   5.354
  422TIP3    H1 1230   0.172   2.952   5.411
  422TIP3    H2 1231   0.032   2.938   5.354
  423TIP3   OH2 1232   5.487   0.536   0.747
  423TIP3    H1 1233   5.480   0.582   0.831
  423TIP3    H2 1234   5.518   0.603   0.686
  424TIP3   OH2 1235   4.429   5.514   1.288
  424TIP3    H1 1236   4.377   5.473   1.357
  424TIP3    H2 1237   4.374   5.509   1.210
  425TIP3   OH2 1238   0.733   4.527   1.663
  425TIP3    H1 1239   0.827   4.508   1.664
  425TIP3    H2 1240   0.719   4.575   1.582
  426TIP3   OH2 1241   1.178   6.309   4.072
  426TIP3    H1 1242   1.201   6.298   3.980
  426TIP3    H2 1243   1.177   6.220   4.107
  427TIP3   OH2 1244   3.346   0.423   1.637
  427TIP3    H1 1245   3.271   0.482   1.627
  427TIP3    H2 1246   3.383   0.416   1.549
  428TIP3   OH2 1247   6.815   4.660   2.398
  428TIP3    H1 1248   6.823   4.718   2.474
  428TIP3    H2 1249   6.780   4.579   2.434
  429TIP3   OH2 1250   1.452   1.400   4.924
  429TIP3    H1 1251   1.397   1.324   4.907
  429TIP3    H2 1252   1.442   1.417   5.017
  430TIP3   OH2 1253   2.240   6.568   0.853
  430TIP3    H1 1254   2.216   6.539   0.942
  430TIP3    H2 1255   2.232   6.489   0.800
  431TIP3   OH2 1256   2.230   4.669   4.338
  431TIP3    H1 1257   2.242   4.746   4.283
  431TIP3    H2 1258   2.296   4.607   4.307
  432TIP3   OH2 1259   3.966   5.568   3.571
  432TIP3    H1 1260   3.975   5.475   3.551
  432TIP3    H2 1261   3.934   5.607   3.490
  433TIP3   OH2 1262   0.215   5.270   5.356
  433TIP3    H1 1263   0.217   5.211   5.432
  433TIP3    H2 1264   0.306   5.296   5.344
  434TIP3   OH2 1265   3.753   2.267   4.254
  434TIP3    H1 1266   3.834   2.307   4.222
  434TIP3    H2 1267   3.692   2.274   4.181
  435TIP3   OH2 1268   2.377   3.362   5.906
  435TIP3    H1 1269   2.344   3.277   5.880
  435TIP3    H2 1270   2.407   3.403   5.825
  436TIP3   OH2 1271   2.274   6.322   5.809
  436TIP3    H1 1272   2.355   6.352   5.851
  436TIP3    H2 1273   2.214   6.307   5.882
  437TIP3   OH2 1274   2.101   2.794   2.103
  437TIP3    H1 1275   2.129   2.885   2.095
  437TIP3    H2 1276   2.030   2.796   2.167
  438TIP3   OH2 1277   4.718   0.949   1.054
  438TIP3    H1 1278   4.673   0.925   0.973
  438TIP3    H2 1279   4.802   0.903   1.050
  439TIP3   OH2 1280   4.843   2.319   0.074
  439TIP3    H1 1281   4.796   2.400   0.095
  439TIP3    H2 1282   4.793   2.279   0.003
  440TIP3   OH2 1283   1.099   2.784   1.674
  440TIP3    H1 1284   1.038   2.821   1.610
  440TIP3    H2 1285   1.100   2.847   1.746
  441TIP3   OH2 1286   2.862   3.463   2.985
  441TIP3    H1 1287   2.925   3.520   3.030
  441TIP3    H2 1288   2.863   3.382   3.036
  442TIP3   OH2 1289   0.298   3.749   1.775
  442TIP3    H1 1290   0.245   3.715   1.703
  442TIP3    H2 1291   0.260   3.834   1.795
  443TIP3   OH2 1292   4.694   5.278   1.797
  443TIP3    H1 1293   4.725   5.217   1.864
  443TIP3    H2 1294   4.774   5.313   1.758
  444TIP3   OH2 1295   7.186   3.378   3.745
  444TIP3    H1 1296   7.125   3.305   3.758
  444TIP3    H2 1297   7.155   3.446   3.805
  445TIP3   OH2 1298   4.488   6.255   5.063
  445TIP3    H1 1299   4.442   6.192   5.006
  445TIP3    H2 1300   4.443   6.338   5.046
  446TIP3   OH2 1301   2.923   6.470   2.413
  446TIP3    H1 1302   2.851   6.531   2.398
  446TIP3    H2 1303   3.002   6.522   2.401
  447TIP3   OH2 1304   5.914   3.458   4.465
  447TIP3    H1 1305   5.905   3.417   4.379
  447TIP3    H2 1306   5.852   3.412   4.521
  448TIP3   OH2 1307   6.192   6.303   2.773
  448TIP3    H1 1308   6.188   6.351   2.856
  448TIP3    H2 1309   6.247   6.227   2.792
  449TIP3   OH2 1310   6.709   0.334   1.109
  449TIP3    H1 1311   6.665   0.400   1.055
  449TIP3    H2 1312   6.658   0.254   1.096
  450TIP3   OH2 1313   0.281   0.016   1.359
  450TIP3    H1 1314   0.266   0.109   1.342
  450TIP3    H2 1315   0.363  -0.004   1.313
  451TIP3   OH2 1316   0.977   6.110   1.548
  451TIP3    H1 1317   0.941   6.166   1.617
  451TIP3    H2 1318   0.935   6.025   1.562
  452TIP3   OH2 1319   4.176   0.723   3.855
  452TIP3    H1 1320   4.188   0.632   3.830
  452TIP3    H2 1321   4.250   0.742   3.913
  453TIP3   OH2 1322   5.703   0.840   3.156
  453TIP3    H1 1323   5.744   0.926   3.141
  453TIP3    H2 1324   5.643   0.855   3.229
  454TIP3   OH2 1325   1.169   3.032   0.638
  454TIP3    H1 1326   1.255   3.074   0.636
  454TIP3    H2 1327   1.129   3.061   0.720
  455TIP3   OH2 1328   4.128   4.814   4.215
  455TIP3    H1 1329   4.204   4.848   4.261
  455TIP3    H2 1330   4.084   4.892   4.182
  456TIP3   OH2 1331   4.002   6.638   3.322
  456TIP3    H1 1332   3.995   6.732   3.311
  456TIP3    H2 1333   4.065   6.610   3.256
  457TIP3   OH2 1334   3.746   2.387   3.161
  457TIP3    H1 1335   3.805   2.344   3.223
  457TIP3    H2 1336   3.659   2.369   3.195
  458TIP3   OH2 1337   0.532   2.098   1.375
  458TIP3    H1 1338   0.617   2.129   1.405
  458TIP3    H2 1339   0.482   2.081   1.455
  459TIP3   OH2 1340   6.361   6.296   3.642
  459TIP3    H1 1341   6.450   6.331   3.648
  459TIP3    H2 1342   6.369   6.223   3.580
  460TIP3   OH2 1343   2.777   3.358   5.215
  460TIP3    H1 1344   2.732   3.308   5.283
  460TIP3    H2 1345   2.860   3.384   5.256
  461TIP3   OH2 1346   1.064   0.486   1.973
  461TIP3    H1 1347   0.974   0.461   1.950
  461TIP3    H2 1348   1.076   0.571   1.931
  462TIP3   OH2 1349   1.865   6.088   5.383
  462TIP3    H1 1350   1.827   6.006   5.352
  462TIP3    H2 1351   1.921   6.117   5.311
  463TIP3   OH2 1352   2.399   6.670   3.045
  463TIP3    H1 1353   2.320   6.641   3.090
  463TIP3    H2 1354   2.400   6.765   3.054
  464TIP3   OH2 1355   2.596   6.766   4.245
  464TIP3    H1 1356   2.588   6.677   4.281
  464TIP3    H2 1357   2.518   6.812   4.278
  465TIP3   OH2 1358   3.590   3.765   4.359
  465TIP3    H1 1359   3.606   3.857   4.385
  465TIP3    H2 1360   3.590   3.767   4.264
  466TIP3   OH2 1361   6.730   2.157   1.875
  466TIP3    H1 1362   6.691   2.161   1.962
  466TIP3    H2 1363   6.791   2.231   1.872
  467TIP3   OH2 1364   6.190   6.129   3.242
  467TIP3    H1 1365   6.127   6.068   3.279
  467TIP3    H2 1366   6.137   6.204   3.214
  468TIP3   OH2 1367   7.186   1.625   5.689
  468TIP3    H1 1368   7.152   1.713   5.705
  468TIP3    H2 1369   7.220   1.596   5.773
  469TIP3   OH2 1370   4.504   5.981   4.142
  469TIP3    H1 1371   4.476   5.941   4.224
  469TIP3    H2 1372   4.569   6.047   4.169
  470TIP3   OH2 1373   1.051   1.338   1.891
  470TIP3    H1 1374   1.143   1.345   1.916
  470TIP3    H2 1375   1.003   1.381   1.961
  471TIP3   OH2 1376   1.147   0.506   3.449
  471TIP3    H1 1377   1.135   0.483   3.541
  471TIP3    H2 1378   1.087   0.447   3.402
  472TIP3   OH2 1379   5.493   5.489   4.029
  472TIP3    H1 1380   5.539   5.478   3.945
  472TIP3    H2 1381   5.559   5.470   4.095
  473TIP3   OH2 1382   3.197   5.535   2.012
  473TIP3    H1 1383   3.149   5.598   1.958
  473TIP3    H2 1384   3.133   5.505   2.077
  474TIP3   OH2 1385   5.264   4.103   4.335
  474TIP3    H1 1386   5.305   4.018   4.353
  474TIP3    H2 1387   5.278   4.153   4.415
  475TIP3   OH2 1388   3.720   1.765   3.092
  475TIP3    H1 1389   3.690   1.855   3.080
  475TIP3    H2 1390   3.687   1.739   3.178
  476TIP3   OH2 1391   6.949   3.541   0.101
  476TIP3    H1 1392   7.014   3.530   0.031
  476TIP3    H2 1393   6.867   3.559   0.055
  477TIP3   OH2 1394   5.797   5.737   3.820
  477TIP3    H1 1395   5.776   5.787   3.898
  477TIP3    H2 1396   5.892   5.725   3.824
  478TIP3   OH2 1397   3.556   0.423   0.746
  478TIP3    H1 1398   3.506   0.474   0.810
  478TIP3    H2 1399   3.605   0.488   0.697
  479TIP3   OH2 1400   2.086   3.425   4.880
  479TIP3    H1 1401   2.018   3.399   4.943
  479TIP3    H2 1402   2.044   3.412   4.794
  480TIP3   OH2 1403   6.947   1.341   3.864
  480TIP3    H1 1404   6.966   1.435   3.872
  480TIP3    H2 1405   6.882   1.336   3.794
  481TIP3   OH2 1406   7.066  -0.017   1.758
  481TIP3    H1 1407   7.136   0.024   1.808
  481TIP3    H2 1408   6.986   0.009   1.803
  482TIP3   OH2 1409   0.516   0.542   1.603
  482TIP3    H1 1410   0.485   0.571   1.517
  482TIP3    H2 1411   0.458   0.586   1.665
  483TIP3   OH2 1412   1.818   1.147   3.412
  483TIP3    H1 1413   1.812   1.078   3.478
  483TIP3    H2 1414   1.808   1.229   3.461
  484TIP3   OH2 1415   3.392   4.281   1.038
  484TIP3    H1 1416   3.325   4.248   1.097
  484TIP3    H2 1417   3.345   4.335   0.975
  485TIP3   OH2 1418   2.799   4.271   3.755
  485TIP3    H1 1419   2.710   4.237   3.758
  485TIP3    H2 1420   2.797   4.336   3.684
  486TIP3   OH2 1421   4.079   3.376   0.102
  486TIP3    H1 1422   4.137   3.368   0.178
  486TIP3    H2 1423   3.996   3.407   0.138
  487TIP3   OH2 1424   1.541   4.653   3.227
  487TIP3    H1 1425   1.613   4.592   3.244
  487TIP3    H2 1426   1.542   4.712   3.302
  488TIP3   OH2 1427   7.064   1.730   3.610
  488TIP3    H1 1428   7.059   1.636   3.593
  488TIP3    H2 1429   7.136   1.761   3.555
  489TIP3   OH2 1430   1.359   2.878   4.690
  489TIP3    H1 1431   1.312   2.832   4.759
  489TIP3    H2 1432   1.294   2.891   4.621
  490TIP3   OH2 1433   7.024   2.504   0.189
  490TIP3    H1 1434   6.958   2.460   0.135
  490TIP3    H2 1435   7.039   2.588   0.146
  491TIP3   OH2 1436   5.509   4.310   4.292
  491TIP3    H1 1437   5.566   4.311   4.370
  491TIP3    H2 1438   5.510   4.218   4.265
  492TIP3   OH2 1439   6.906   1.052   5.800
  492TIP3    H1 1440   6.953   1.020   5.723
  492TIP3    H2 1441   6.899   1.146   5.786
  493TIP3   OH2 1442   4.186   2.584   4.948
  493TIP3    H1 1443   4.162   2.500   4.910
  493TIP3    H2 1444   4.176   2.647   4.877
  494TIP3   OH2 1445   2.629   0.177   4.453
  494TIP3    H1 1446   2.722   0.197   4.468
  494TIP3    H2 1447   2.583   0.258   4.475
  495TIP3   OH2 1448   5.904   6.491   5.831
  495TIP3    H1 1449   5.965   6.427   5.794
  495TIP3    H2 1450   5.840   6.505   5.762
  496TIP3   OH2 1451   5.119   3.669   2.958
  496TIP3    H1 1452   5.173   3.713   2.892
  496TIP3    H2 1453   5.128   3.724   3.036
  497TIP3   OH2 1454   3.416   6.627   4.653
  497TIP3    H1 1455   3.336   6.668   4.621
  497TIP3    H2 1456   3.437   6.674   4.733
  498TIP3   OH2 1457   2.939   4.791   3.337
  498TIP3    H1 1458   3.018   4.801   3.284
  498TIP3    H2 1459   2.903   4.706   3.311
  499TIP3   OH2 1460   6.876   2.831   4.936
  499TIP3    H1 1461   6.967   2.848   4.960
  499TIP3    H2 1462   6.852   2.904   4.880
  500TIP3   OH2 1463   2.630   4.704   1.211
  500TIP3    H1 1464   2.558   4.707   1.148
  500TIP3    H2 1465   2.683   4.629   1.183
  501TIP3   OH2 1466   2.045   3.367   5.697
  501TIP3    H1 1467   1.968   3.418   5.676
  501TIP3    H2 1468   2.113   3.399   5.637
  502TIP3   OH2 1469   2.403   0.400   2.944
  502TIP3    H1 1470   2.480   0.439   2.904
  502TIP3    H2 1471   2.398   0.312   2.905
  503TIP3   OH2 1472   1.122   0.435   0.028
  503TIP3    H1 1473   1.150   0.377   0.099
  503TIP3    H2 1474   1.039   0.399  -0.001
  504TIP3   OH2 1475   5.571   0.698   4.803
  504TIP3    H1 1476   5.484   0.681   4.767
  504TIP3    H2 1477   5.585   0.627   4.866
  505TIP3   OH2 1478   5.267   6.741   3.606
  505TIP3    H1 1479   5.280   6.817   3.551
  505TIP3    H2 1480   5.177   6.714   3.590
  506TIP3   OH2 1481   0.646   4.850   2.024
  506TIP3    H1 1482   0.697   4.776   1.989
  506TIP3    H2 1483   0.710   4.900   2.075
  507TIP3   OH2 1484   4.357   3.793   0.091
  507TIP3    H1 1485   4.277   3.753   0.056
  507TIP3    H2 1486   4.394   3.725   0.148
  508TIP3   OH2 1487   0.085   1.969   2.066
  508TIP3    H1 1488  -0.008   1.956   2.046
  508TIP3    H2 1489   0.096   2.064   2.071
  509TIP3   OH2 1490   5.097   6.028   1.845
  509TIP3    H1 1491   5.076   6.025   1.939
  509TIP3    H2 1492   5.045   6.100   1.811
  510TIP3   OH2 1493   3.910   4.917   3.860
  510TIP3    H1 1494   3.915   4.888   3.951
  510TIP3    H2 1495   3.819   4.906   3.835
  511TIP3   OH2 1496   5.919   2.940   1.595
  511TIP3    H1 1497   5.930   2.902   1.682
  511TIP3    H2 1498   5.973   3.019   1.596
  512TIP3   OH2 1499   2.484   6.077   5.188
  512TIP3    H1 1500   2.447   6.034   5.265
  512TIP3    H2 1501   2.411   6.122   5.147
  513TIP3   OH2 1502   4.179   1.447   5.491
  513TIP3    H1 1503   4.206   1.514   5.428
  513TIP3    H2 1504   4.129   1.384   5.438
  514TIP3   OH2 1505   0.329   3.319   5.128
  514TIP3    H1 1506   0.395   3.365   5.181
  514TIP3    H2 1507   0.263   3.291   5.191
  515TIP3   OH2 1508   4.692   2.721   1.470
  515TIP3    H1 1509   4.684   2.642   1.416
  515TIP3    H2 1510   4.783   2.720   1.500
  516TIP3   OH2 1511   0.529   5.522   3.379
  516TIP3    H1 1512   0.519   5.614   3.356
  516TIP3    H2 1513   0.545   5.523   3.474
  517TIP3   OH2 1514   3.190   2.880   2.676
  517TIP3    H1 1515   3.100   2.869   2.646
  517TIP3    H2 1516   3.189   2.963   2.723
  518TIP3   OH2 1517   7.037   5.274   3.691
  518TIP3    H1 1518   7.041   5.317   3.606
  518TIP3    H2 1519   7.124   5.234   3.702
  519TIP3   OH2 1520   5.432   3.527   4.564
  519TIP3    H1 1521   5.496   3.576   4.514
  519TIP3    H2 1522   5.353   3.581   4.563
  520TIP3   OH2 1523   3.058   6.582   5.332
  520TIP3    H1 1524   3.002   6.535   5.271
  520TIP3    H2 1525   3.008   6.584   5.414
  521TIP3   OH2 1526   0.058   6.388   1.039
  521TIP3    H1 1527   0.096   6.300   1.034
  521TIP3    H2 1528   0.134   6.446   1.034
  522TIP3   OH2 1529   0.956   4.589   4.208
  522TIP3    H1 1530   1.046   4.585   4.176
  522TIP3    H2 1531   0.955   4.529   4.283
  523TIP3   OH2 1532   2.345   2.280   5.381
  523TIP3    H1 1533   2.390   2.342   5.325
  523TIP3    H2 1534   2.314   2.211   5.321
  524TIP3   OH2 1535   5.029   0.419   1.062
  524TIP3    H1 1536   4.966   0.388   1.127
  524TIP3    H2 1537   5.114   0.394   1.097
  525TIP3   OH2 1538   1.433   4.532   3.794
  525TIP3    H1 1539   1.438   4.624   3.820
  525TIP3    H2 1540   1.406   4.535   3.702
  526TIP3   OH2 1541   1.776   3.382   3.650
  526TIP3    H1 1542   1.857   3.389   3.701
  526TIP3    H2 1543   1.747   3.292   3.663
  527TIP3   OH2 1544   3.237   5.036   1.586
  527TIP3    H1 1545   3.157   4.985   1.597
  527TIP3    H2 1546   3.241   5.056   1.493
  528TIP3   OH2 1547   3.064   2.669   3.390
  528TIP3    H1 1548   3.059   2.662   3.295
  528TIP3    H2 1549   3.089   2.760   3.407
  529TIP3   OH2 1550   2.282   2.498   4.880
  529TIP3    H1 1551   2.269   2.420   4.827
  529TIP3    H2 1552   2.246   2.475   4.966
  530TIP3   OH2 1553   5.341   4.131   2.746
  530TIP3    H1 1554   5.329   4.151   2.653
  530TIP3    H2 1555   5.287   4.197   2.791
  531TIP3   OH2 1556   6.782   3.559   5.033
  531TIP3    H1 1557   6.837   3.616   4.978
  531TIP3    H2 1558   6.692   3.585   5.013
  532TIP3   OH2 1559   2.006   4.095   5.019
  532TIP3    H1 1560   2.024   4.002   5.002
  532TIP3    H2 1561   2.085   4.127   5.062
  533TIP3   OH2 1562   0.341   5.526   0.719
  533TIP3    H1 1563   0.389   5.498   0.796
  533TIP3    H2 1564   0.402   5.584   0.673
  534TIP3   OH2 1565   7.183   1.524   3.811
  534TIP3    H1 1566   7.149   1.512   3.723
  534TIP3    H2 1567   7.198   1.618   3.819
  535TIP3   OH2 1568   5.919   3.218   4.939
  535TIP3    H1 1569   5.980   3.193   5.008
  535TIP3    H2 1570   5.975   3.246   4.867
  536TIP3   OH2 1571   3.881   6.137   0.830
  536TIP3    H1 1572   3.894   6.197   0.904
  536TIP3    H2 1573   3.877   6.050   0.870
  537TIP3   OH2 1574   5.455   1.759   1.110
  537TIP3    H1 1575   5.439   1.666   1.125
  537TIP3    H2 1576   5.452   1.798   1.197
  538TIP3   OH2 1577   2.443   0.656   0.482
  538TIP3    H1 1578   2.404   0.594   0.544
  538TIP3    H2 1579   2.460   0.604   0.403
  539TIP3   OH2 1580   0.051   5.535   5.032
  539TIP3    H1 1581   0.032   5.564   5.121
  539TIP3    H2 1582   0.046   5.440   5.036
  540TIP3   OH2 1583   1.750   4.720   1.235
  540TIP3    H1 1584   1.812   4.650   1.259
  540TIP3    H2 1585   1.668   4.674   1.217
  541TIP3   OH2 1586   5.921   0.742   3.367
  541TIP3    H1 1587   5.965   0.826   3.358
  541TIP3    H2 1588   5.844   0.749   3.310
  542TIP3   OH2 1589   3.775   4.073   1.805
  542TIP3    H1 1590   3.743   4.111   1.887
  542TIP3    H2 1591   3.753   3.981   1.810
  543TIP3   OH2 1592   1.476   4.321   0.751
  543TIP3    H1 1593   1.510   4.341   0.838
  543TIP3    H2 1594   1.383   4.345   0.756
  544TIP3   OH2 1595   2.797   6.652   0.808
  544TIP3    H1 1596   2.753   6.699   0.738
  544TIP3    H2 1597   2.804   6.715   0.880
  545TIP3   OH2 1598   4.639   5.877   0.929
  545TIP3    H1 1599   4.617   5.882   1.022
  545TIP3    H2 1600   4.732   5.857   0.927
  546TIP3   OH2 1601   3.917   1.844   5.685
  546TIP3    H1 1602   3.990   1.786   5.708
  546TIP3    H2 1603   3.847   1.819   5.745
  547TIP3   OH2 1604   3.770   3.077   3.756
  547TIP3    H1 1605   3.699   3.014   3.744
  547TIP3    H2 1606   3.839   3.028   3.801
  548TIP3   OH2 1607   3.487   3.639   2.239
  548TIP3    H1 1608   3.447   3.660   2.154
  548TIP3    H2 1609   3.575   3.609   2.218
  549TIP3   OH2 1610   0.059   0.606   2.110
  549TIP3    H1 1611   0.081   0.627   2.201
  549TIP3    H2 1612  -0.002   0.532   2.117
  550TIP3   OH2 1613   2.785   0.808   2.661
  550TIP3    H1 1614   2.699   0.844   2.641
  550TIP3    H2 1615   2.789   0.809   2.756
  551TIP3   OH2 1616   5.828   3.102   0.615
  551TIP3    H1 1617   5.744   3.057   0.623
  551TIP3    H2 1618   5.884   3.061   0.682
  552TIP3   OH2 1619   2.600   1.085   3.139
  552TIP3    H1 1620   2.642   1.084   3.053
  552TIP3    H2 1621   2.545   1.007   3.141
  553TIP3   OH2 1622   1.282   5.467   0.391
  553TIP3    H1 1623   1.342   5.395   0.409
  553TIP3    H2 1624   1.232   5.476   0.472
  554TIP3   OH2 1625   2.254   1.275   4.684
  554TIP3    H1 1626   2.233   1.368   4.690
  554TIP3    H2 1627   2.257   1.245   4.775
  555TIP3   OH2 1628   5.783   4.987   2.935
  555TIP3    H1 1629   5.792   5.059   2.997
  555TIP3    H2 1630   5.796   5.028   2.849
  556TIP3   OH2 1631   0.340   3.453   1.612
  556TIP3    H1 1632   0.274   3.491   1.670
  556TIP3    H2 1633   0.291   3.400   1.550
  557TIP3   OH2 1634   4.641   0.912   5.676
  557TIP3    H1 1635   4.714   0.861   5.638
  557TIP3    H2 1636   4.567   0.852   5.674
  558TIP3   OH2 1637   4.227   0.627   2.494
  558TIP3    H1 1638   4.194   0.616   2.584
  558TIP3    H2 1639   4.174   0.697   2.458
  559TIP3   OH2 1640   1.997   4.818   3.600
  559TIP3    H1 1641   2.052   4.856   3.669
  559TIP3    H2 1642   1.908   4.826   3.633
  560TIP3   OH2 1643   3.996   3.703   1.359
  560TIP3    H1 1644   4.026   3.683   1.271
  560TIP3    H2 1645   3.902   3.720   1.349
  561TIP3   OH2 1646   3.238   2.333   3.373
  561TIP3    H1 1647   3.249   2.423   3.405
  561TIP3    H2 1648   3.144   2.324   3.360
  562TIP3   OH2 1649   5.649   2.657   1.302
  562TIP3    H1 1650   5.639   2.637   1.395
  562TIP3    H2 1651   5.700   2.738   1.300
  563TIP3   OH2 1652   6.054   6.294   5.743
  563TIP3    H1 1653   6.016   6.209   5.723
  563TIP3    H2 1654   6.130   6.301   5.685
  564TIP3   OH2 1655   0.295   2.116   4.200
  564TIP3    H1 1656   0.351   2.146   4.271
  564TIP3    H2 1657   0.350   2.057   4.149
  565TIP3   OH2 1658   3.043   0.368   0.537
  565TIP3    H1 1659   3.128   0.324   0.527
  565TIP3    H2 1660   3.015   0.386   0.447
  566TIP3   OH2 1661   3.092   0.280   2.134
  566TIP3    H1 1662   3.111   0.187   2.124
  566TIP3    H2 1663   3.142   0.323   2.065
  567TIP3   OH2 1664   4.306   0.908   1.733
  567TIP3    H1 1665   4.244   0.975   1.762
  567TIP3    H2 1666   4.375   0.908   1.800
  568TIP3   OH2 1667   0.226   6.317   1.442
  568TIP3    H1 1668   0.250   6.375   1.369
  568TIP3    H2 1669   0.252   6.230   1.412
  569TIP3   OH2 1670   2.780   4.577   4.919
  569TIP3    H1 1671   2.792   4.553   4.827
  569TIP3    H2 1672   2.720   4.651   4.917
  570TIP3   OH2 1673   0.051   2.730   2.350
  570TIP3    H1 1674   0.009   2.779   2.420
  570TIP3    H2 1675   0.135   2.775   2.337
  571TIP3   OH2 1676   0.440   6.012   4.647
  571TIP3    H1 1677   0.443   5.979   4.558
  571TIP3    H2 1678   0.525   6.054   4.660
  572TIP3   OH2 1679   1.153   5.076   5.200
  572TIP3    H1 1680   1.192   4.994   5.171
  572TIP3    H2 1681   1.059   5.064   5.186
  573TIP3   OH2 1682   0.454   4.157   5.565
  573TIP3    H1 1683   0.494   4.070   5.575
  573TIP3    H2 1684   0.527   4.215   5.547
  574TIP3   OH2 1685   6.393   1.235   0.210
  574TIP3    H1 1686   6.456   1.217   0.140
  574TIP3    H2 1687   6.330   1.163   0.205
  575TIP3   OH2 1688   0.498   0.767   3.678
  575TIP3    H1 1689   0.499   0.825   3.602
  575TIP3    H2 1690   0.572   0.707   3.664
  576TIP3   OH2 1691   2.775   1.952   2.080
  576TIP3    H1 1692   2.817   1.908   2.006
  576TIP3    H2 1693   2.732   2.028   2.041
  577TIP3   OH2 1694   4.732   3.968   3.847
  577TIP3    H1 1695   4.697   3.955   3.759
  577TIP3    H2 1696   4.712   4.059   3.867
  578TIP3   OH2 1697   5.904   3.392   4.173
  578TIP3    H1 1698   5.889   3.352   4.088
  578TIP3    H2 1699   5.845   3.468   4.175
  579TIP3   OH2 1700   5.589   6.305   5.854
  579TIP3    H1 1701   5.670   6.270   5.818
  579TIP3    H2 1702   5.522   6.241   5.829
  580TIP3   OH2 1703   5.142   5.751   4.918
  580TIP3    H1 1704   5.140   5.799   4.836
  580TIP3    H2 1705   5.230   5.767   4.953
  581TIP3   OH2 1706   5.305   5.861   1.760
  581TIP3    H1 1707   5.386   5.911   1.770
  581TIP3    H2 1708   5.236   5.922   1.787
  582TIP3   OH2 1709   5.059   1.173   4.300
  582TIP3    H1 1710   5.067   1.077   4.295
  582TIP3    H2 1711   5.033   1.190   4.390
  583TIP3   OH2 1712   6.432   4.885   0.064
  583TIP3    H1 1713   6.422   4.791   0.081
  583TIP3    H2 1714   6.397   4.898  -0.024
  584TIP3   OH2 1715   5.809   3.141   5.248
  584TIP3    H1 1716   5.785   3.208   5.312
  584TIP3    H2 1717   5.774   3.059   5.284
  585TIP3   OH2 1718   3.847   4.710   1.396
  585TIP3    H1 1719   3.919   4.738   1.453
  585TIP3    H2 1720   3.876   4.626   1.361
  586TIP3   OH2 1721   3.748   0.966   5.198
  586TIP3    H1 1722   3.794   0.893   5.240
  586TIP3    H2 1723   3.752   1.036   5.263
  587TIP3   OH2 1724   2.663   3.885   3.935
  587TIP3    H1 1725   2.575   3.852   3.920
  587TIP3    H2 1726   2.668   3.901   4.029
  588TIP3   OH2 1727   3.069   1.929   4.044
  588TIP3    H1 1728   3.021   1.947   4.125
  588TIP3    H2 1729   3.066   1.834   4.035
  589TIP3   OH2 1730   2.726   2.297   0.806
  589TIP3    H1 1731   2.799   2.339   0.762
  589TIP3    H2 1732   2.691   2.235   0.742
  590TIP3   OH2 1733   5.628   2.135   4.991
  590TIP3    H1 1734   5.619   2.228   4.971
  590TIP3    H2 1735   5.664   2.132   5.080
  591TIP3   OH2 1736   4.609   1.659   1.418
  591TIP3    H1 1737   4.535   1.612   1.381
  591TIP3    H2 1738   4.645   1.709   1.344
  592TIP3   OH2 1739   5.940   2.992   0.872
  592TIP3    H1 1740   5.965   3.034   0.954
  592TIP3    H2 1741   5.890   2.915   0.898
  593TIP3   OH2 1742   0.982   0.932   0.624
  593TIP3    H1 1743   0.897   0.927   0.580
  593TIP3    H2 1744   1.039   0.876   0.571
  594TIP3   OH2 1745   0.147   3.568   2.997
  594TIP3    H1 1746   0.076   3.504   2.991
  594TIP3    H2 1747   0.156   3.585   3.091
  595TIP3   OH2 1748   3.612   6.173   4.725
  595TIP3    H1 1749   3.556   6.214   4.658
  595TIP3    H2 1750   3.701   6.193   4.697
  596TIP3   OH2 1751   3.265   0.417   4.594
  596TIP3    H1 1752   3.287   0.464   4.513
  596TIP3    H2 1753   3.258   0.325   4.567
  597TIP3   OH2 1754   6.532   3.365   4.685
  597TIP3    H1 1755   6.511   3.427   4.754
  597TIP3    H2 1756   6.447   3.331   4.657
  598TIP3   OH2 1757   6.932   4.108   4.884
  598TIP3    H1 1758   7.005   4.169   4.873
  598TIP3    H2 1759   6.854   4.163   4.877
  599TIP3   OH2 1760   6.584   3.483   4.139
  599TIP3    H1 1761   6.561   3.520   4.225
  599TIP3    H2 1762   6.582   3.558   4.079
  600TIP3   OH2 1763   0.979   3.791   1.820
  600TIP3    H1 1764   0.976   3.840   1.738
  600TIP3    H2 1765   1.060   3.820   1.862
  601TIP3   OH2 1766   4.742   3.245   2.889
  601TIP3    H1 1767   4.736   3.177   2.821
  601TIP3    H2 1768   4.819   3.220   2.940
  602TIP3   OH2 1769   0.865   6.766   1.899
  602TIP3    H1 1770   0.810   6.700   1.857
  602TIP3    H2 1771   0.874   6.835   1.834
  603TIP3   OH2 1772   3.455   2.594   3.706
  603TIP3    H1 1773   3.429   2.539   3.781
  603TIP3    H2 1774   3.404   2.674   3.717
  604TIP3   OH2 1775   5.619   3.983   1.755
  604TIP3    H1 1776   5.524   3.991   1.759
  604TIP3    H2 1777   5.637   3.952   1.666
  605TIP3   OH2 1778   1.390   2.573   0.233
  605TIP3    H1 1779   1.353   2.575   0.144
  605TIP3    H2 1780   1.318   2.603   0.289
  606TIP3   OH2 1781   4.301   3.004   4.560
  606TIP3    H1 1782   4.237   2.935   4.538
  606TIP3    H2 1783   4.357   2.964   4.627
  607TIP3   OH2 1784   6.786   2.988   2.575
  607TIP3    H1 1785   6.750   3.076   2.571
  607TIP3    H2 1786   6.715   2.935   2.612
  608TIP3   OH2 1787   4.730   6.380   2.845
  608TIP3    H1 1788   4.702   6.305   2.792
  608TIP3    H2 1789   4.679   6.453   2.812
  609TIP3   OH2 1790   5.468   2.527   5.084
  609TIP3    H1 1791   5.484   2.580   5.162
  609TIP3    H2 1792   5.399   2.574   5.038
  610TIP3   OH2 1793   3.713   0.933   2.333
  610TIP3    H1 1794   3.647   0.917   2.266
  610TIP3    H2 1795   3.738   0.846   2.365
  611TIP3   OH2 1796   1.397   4.518   5.193
  611TIP3    H1 1797   1.315   4.470   5.180
  611TIP3    H2 1798   1.376   4.608   5.170
  612TIP3   OH2 1799   4.253   1.816   0.594
  612TIP3    H1 1800   4.312   1.888   0.615
  612TIP3    H2 1801   4.256   1.758   0.671
  613TIP3   OH2 1802   5.523   1.484   3.694
  613TIP3    H1 1803   5.571   1.455   3.617
  613TIP3    H2 1804   5.436   1.507   3.661
  614TIP3   OH2 1805   5.105   1.493   0.926
  614TIP3    H1 1806   5.040   1.499   0.857
  614TIP3    H2 1807   5.138   1.403   0.921
  615TIP3   OH2 1808   6.567   4.703   2.255
  615TIP3    H1 1809   6.643   4.704   2.196
  615TIP3    H2 1810   6.605   4.704   2.343
  616TIP3   OH2 1811   0.554   4.795   0.972
  616TIP3    H1 1812   0.595   4.752   1.047
  616TIP3    H2 1813   0.579   4.887   0.980
  617TIP3   OH2 1814   5.029   0.953   2.466
  617TIP3    H1 1815   5.005   0.978   2.377
  617TIP3    H2 1816   5.117   0.917   2.458
  618TIP3   OH2 1817   0.077   4.886   1.360
  618TIP3    H1 1818   0.074   4.810   1.302
  618TIP3    H2 1819   0.065   4.961   1.301
  619TIP3   OH2 1820   4.655   0.761   4.371
  619TIP3    H1 1821   4.582   0.822   4.377
  619TIP3    H2 1822   4.675   0.756   4.278
  620TIP3   OH2 1823   0.662   2.747   4.959
  620TIP3    H1 1824   0.653   2.841   4.971
  620TIP3    H2 1825   0.740   2.737   4.903
  621TIP3   OH2 1826   4.318   6.480   0.051
  621TIP3    H1 1827   4.242   6.420   0.054
  621TIP3    H2 1828   4.313   6.527   0.134
  622TIP3   OH2 1829   6.286   1.644   0.578
  622TIP3    H1 1830   6.324   1.715   0.526
  622TIP3    H2 1831   6.272   1.572   0.516
  623TIP3   OH2 1832   2.634   5.171   3.997
  623TIP3    H1 1833   2.684   5.219   4.064
  623TIP3    H2 1834   2.546   5.163   4.033
  624TIP3   OH2 1835   4.458   2.020   2.140
  624TIP3    H1 1836   4.489   1.989   2.225
  624TIP3    H2 1837   4.530   2.002   2.079
  625TIP3   OH2 1838   3.959   1.710   1.151
  625TIP3    H1 1839   3.877   1.662   1.156
  625TIP3    H2 1840   3.949   1.782   1.213
  626TIP3   OH2 1841   7.232   1.245   4.008
  626TIP3    H1 1842   7.190   1.300   3.941
  626TIP3    H2 1843   7.209   1.155   3.983
  627TIP3   OH2 1844   2.681   3.148   5.809
  627TIP3    H1 1845   2.676   3.224   5.866
  627TIP3    H2 1846   2.719   3.079   5.864
  628TIP3   OH2 1847   5.788   4.661   4.894
  628TIP3    H1 1848   5.706   4.709   4.902
  628TIP3    H2 1849   5.854   4.729   4.882
  629TIP3   OH2 1850   1.544   5.113   5.285
  629TIP3    H1 1851   1.526   5.174   5.214
  629TIP3    H2 1852   1.494   5.148   5.359
  630TIP3   OH2 1853   1.894   1.392   2.103
  630TIP3    H1 1854   1.884   1.376   2.009
  630TIP3    H2 1855   1.804   1.388   2.137
  631TIP3   OH2 1856   1.487   3.606   5.269
  631TIP3    H1 1857   1.492   3.693   5.228
  631TIP3    H2 1858   1.440   3.552   5.205
  632TIP3   OH2 1859   1.954   3.252   0.873
  632TIP3    H1 1860   1.931   3.178   0.929
  632TIP3    H2 1861   1.930   3.223   0.785
  633TIP3   OH2 1862   0.010   0.642   5.421
  633TIP3    H1 1863   0.049   0.557   5.400
  633TIP3    H2 1864   0.084   0.696   5.451
  634TIP3   OH2 1865   3.103   0.426   4.287
  634TIP3    H1 1866   3.092   0.335   4.312
  634TIP3    H2 1867   3.023   0.469   4.316
  635TIP3   OH2 1868   4.006   4.409   4.598
  635TIP3    H1 1869   4.030   4.491   4.641
  635TIP3    H2 1870   4.041   4.417   4.509
  636TIP3   OH2 1871   4.345   2.634   5.148
  636TIP3    H1 1872   4.289   2.594   5.082
  636TIP3    H2 1873   4.358   2.565   5.213
  637TIP3   OH2 1874   4.980   4.915   3.921
  637TIP3    H1 1875   5.019   4.840   3.966
  637TIP3    H2 1876   5.047   4.983   3.926
  638TIP3   OH2 1877   4.375   0.595   0.201
  638TIP3    H1 1878   4.303   0.532   0.206
  638TIP3    H2 1879   4.452   0.542   0.182
  639TIP3   OH2 1880   3.361   2.590   4.341
  639TIP3    H1 1881   3.329   2.501   4.357
  639TIP3    H2 1882   3.390   2.621   4.427
  640TIP3   OH2 1883   3.467   0.675   1.085
  640TIP3    H1 1884   3.414   0.629   1.151
  640TIP3    H2 1885   3.532   0.722   1.137
  641TIP3   OH2 1886   7.068   2.859   1.358
  641TIP3    H1 1887   7.034   2.889   1.443
  641TIP3    H2 1888   6.992   2.862   1.300
  642TIP3   OH2 1889   6.467   4.855   0.831
  642TIP3    H1 1890   6.400   4.855   0.762
  642TIP3    H2 1891   6.509   4.770   0.824
  643TIP3   OH2 1892   4.296   5.706   5.480
  643TIP3    H1 1893   4.367   5.663   5.527
  643TIP3    H2 1894   4.340   5.769   5.422
  644TIP3   OH2 1895   3.958   4.145   4.530
  644TIP3    H1 1896   3.931   4.089   4.603
  644TIP3    H2 1897   3.994   4.223   4.571
  645TIP3   OH2 1898   1.963   5.931   2.160
  645TIP3    H1 1899   1.877   5.890   2.144
  645TIP3    H2 1900   1.985   5.908   2.250
  646TIP3   OH2 1901   4.165   4.676   5.489
  646TIP3    H1 1902   4.127   4.748   5.439
  646TIP3    H2 1903   4.259   4.681   5.470
  647TIP3   OH2 1904   3.816   0.877   4.694
  647TIP3    H1 1905   3.909   0.875   4.718
  647TIP3    H2 1906   3.775   0.927   4.765
  648TIP3   OH2 1907   6.903   5.451   4.294
  648TIP3    H1 1908   6.893   5.447   4.389
  648TIP3    H2 1909   6.973   5.515   4.279
  649TIP3   OH2 1910   3.300   0.253   3.426
  649TIP3    H1 1911   3.231   0.237   3.361
  649TIP3    H2 1912   3.358   0.177   3.418
  650TIP3   OH2 1913   2.345   3.390   0.191
  650TIP3    H1 1914   2.262   3.429   0.219
  650TIP3    H2 1915   2.358   3.424   0.102
  651TIP3   OH2 1916   2.690   1.017   0.959
  651TIP3    H1 1917   2.597   0.994   0.955
  651TIP3    H2 1918   2.726   0.985   0.876
  652TIP3   OH2 1919   4.587   1.191   1.213
  652TIP3    H1 1920   4.647   1.117   1.219
  652TIP3    H2 1921   4.621   1.244   1.141
  653TIP3   OH2 1922   5.114   6.771   2.909
  653TIP3    H1 1923   5.058   6.765   2.987
  653TIP3    H2 1924   5.188   6.825   2.937
  654TIP3   OH2 1925   2.128   2.679   4.493
  654TIP3    H1 1926   2.167   2.591   4.503
  654TIP3    H2 1927   2.042   2.663   4.454
  655TIP3   OH2 1928   1.196   5.113   0.286
  655TIP3    H1 1929   1.140   5.081   0.357
  655TIP3    H2 1930   1.267   5.159   0.329
  656TIP3   OH2 1931   4.132   5.952   3.281
  656TIP3    H1 1932   4.071   5.890   3.321
  656TIP3    H2 1933   4.152   6.014   3.351
  657TIP3   OH2 1934   5.143   4.179   5.428
  657TIP3    H1 1935   5.119   4.230   5.351
  657TIP3    H2 1936   5.061   4.168   5.476
  658TIP3   OH2 1937   3.516   5.264   5.332
  658TIP3    H1 1938   3.536   5.182   5.378
  658TIP3    H2 1939   3.422   5.276   5.345
  659TIP3   OH2 1940   5.298   2.747   4.758
  659TIP3    H1 1941   5.246   2.746   4.677
  659TIP3    H2 1942   5.313   2.840   4.776
  660TIP3   OH2 1943   0.439   1.237   4.571
  660TIP3    H1 1944   0.364   1.280   4.529
  660TIP3    H2 1945   0.503   1.226   4.500
  661TIP3   OH2 1946   5.630   2.023   1.769
  661TIP3    H1 1947   5.700   2.051   1.710
  661TIP3    H2 1948   5.672   2.010   1.853
  662TIP3   OH2 1949   1.073   6.506   5.239
  662TIP3    H1 1950   1.053   6.417   5.209
  662TIP3    H2 1951   0.999   6.531   5.294
  663TIP3   OH2 1952   1.380   0.989   2.460
  663TIP3    H1 1953   1.416   1.077   2.463
  663TIP3    H2 1954   1.436   0.938   2.519
  664TIP3   OH2 1955   5.613   1.194   5.303
  664TIP3    H1 1956   5.678   1.176   5.371
  664TIP3    H2 1957   5.583   1.107   5.276
  665TIP3   OH2 1958   6.877   4.617   0.781
  665TIP3    H1 1959   6.886   4.524   0.761
  665TIP3    H2 1960   6.932   4.661   0.716
  666TIP3   OH2 1961   0.229   5.495   3.324
  666TIP3    H1 1962   0.275   5.455   3.250
  666TIP3    H2 1963   0.282   5.571   3.346
  667TIP3   OH2 1964   0.513   5.657   4.717
  667TIP3    H1 1965   0.575   5.729   4.713
  667TIP3    H2 1966   0.561   5.586   4.759
  668TIP3   OH2 1967   1.120   6.382   0.214
  668TIP3    H1 1968   1.139   6.305   0.268
  668TIP3    H2 1969   1.184   6.378   0.144
  669TIP3   OH2 1970   2.761   4.216   1.129
  669TIP3    H1 1971   2.762   4.131   1.174
  669TIP3    H2 1972   2.671   4.225   1.097
  670TIP3   OH2 1973   1.424   5.011   2.804
  670TIP3    H1 1974   1.413   4.923   2.768
  670TIP3    H2 1975   1.492   5.050   2.750
  671TIP3   OH2 1976   2.966   3.675   1.235
  671TIP3    H1 1977   2.898   3.660   1.301
  671TIP3    H2 1978   2.919   3.673   1.152
  672TIP3   OH2 1979   4.717   4.735   2.128
  672TIP3    H1 1980   4.749   4.770   2.045
  672TIP3    H2 1981   4.622   4.741   2.122
  673TIP3   OH2 1982   3.241   5.305   5.315
  673TIP3    H1 1983   3.205   5.387   5.281
  673TIP3    H2 1984   3.212   5.239   5.253
  674TIP3   OH2 1985   3.116   2.506   0.042
  674TIP3    H1 1986   3.082   2.512  -0.048
  674TIP3    H2 1987   3.042   2.531   0.097
  675TIP3   OH2 1988   0.477   3.467   0.430
  675TIP3    H1 1989   0.417   3.541   0.417
  675TIP3    H2 1990   0.419   3.393   0.447
  676TIP3   OH2 1991   3.758   6.043   3.011
  676TIP3    H1 1992   3.671   6.022   2.976
  676TIP3    H2 1993   3.791   5.961   3.046
  677TIP3   OH2 1994   2.973   6.302   4.191
  677TIP3    H1 1995   2.909   6.285   4.122
  677TIP3    H2 1996   2.960   6.231   4.253
  678TIP3   OH2 1997   3.809   0.914   3.366
  678TIP3    H1 1998   3.849   0.868   3.292
  678TIP3    H2 1999   3.785   0.845   3.427
  679TIP3   OH2 2000   4.973   1.912   0.058
  679TIP3    H1 2001   4.970   1.956   0.143
  679TIP3    H2 2002   4.893   1.939   0.014
  680TIP3   OH2 2003   1.514   6.113   1.034
  680TIP3    H1 2004   1.571   6.188   1.013
  680TIP3    H2 2005   1.475   6.137   1.118
  681TIP3   OH2 2006   0.654   4.101   2.446
  681TIP3    H1 2007   0.632   4.167   2.511
  681TIP3    H2 2008   0.619   4.019   2.483
  682TIP3   OH2 2009   4.992   3.013   3.550
  682TIP3    H1 2010   4.931   3.018   3.476
  682TIP3    H2 2011   4.994   3.102   3.586
  683TIP3   OH2 2012   3.235   2.143   4.049
  683TIP3    H1 2013   3.189   2.060   4.043
  683TIP3    H2 2014   3.316   2.130   3.999
  684TIP3   OH2 2015   3.190   0.847   4.673
  684TIP3    H1 2016   3.266   0.850   4.614
  684TIP3    H2 2017   3.190   0.758   4.707
  685TIP3   OH2 2018   0.063   0.570   4.256
  685TIP3    H1 2019   0.024   0.648   4.294
  685TIP3    H2 2020   0.141   0.601   4.211
  686TIP3   OH2 2021   1.740   2.974   1.796
  686TIP3    H1 2022   1.658   2.955   1.841
  686TIP3    H2 2023   1.800   2.905   1.824
  687TIP3   OH2 2024   2.547   2.640   2.055
  687TIP3    H1 2025   2.579   2.705   1.991
  687TIP3    H2 2026   2.549   2.557   2.008
  688TIP3   OH2 2027   1.009   3.771   3.526
  688TIP3    H1 2028   1.095   3.806   3.501
  688TIP3    H2 2029   0.948   3.842   3.505
  689TIP3   OH2 2030   4.287   6.384   4.900
  689TIP3    H1 2031   4.264   6.477   4.891
  689TIP3    H2 2032   4.213   6.346   4.949
  690TIP3   OH2 2033   3.327   0.387   3.106
  690TIP3    H1 2034   3.240   0.401   3.069
  690TIP3    H2 2035   3.350   0.471   3.147
  691TIP3   OH2 2036   4.447   4.845   1.122
  691TIP3    H1 2037   4.467   4.929   1.163
  691TIP3    H2 2038   4.382   4.805   1.180
  692TIP3   OH2 2039   3.633   0.000   2.786
  692TIP3    H1 2040   3.684   0.080   2.773
  692TIP3    H2 2041   3.543   0.030   2.801
  693TIP3   OH2 2042   2.785   2.912   0.800
  693TIP3    H1 2043   2.755   2.896   0.889
  693TIP3    H2 2044   2.879   2.893   0.803
  694TIP3   OH2 2045   1.883   3.062   5.370
  694TIP3    H1 2046   1.870   3.057   5.465
  694TIP3    H2 2047   1.905   3.153   5.354
  695TIP3   OH2 2048   3.641   5.458   3.760
  695TIP3    H1 2049   3.628   5.491   3.671
  695TIP3    H2 2050   3.553   5.445   3.794
  696TIP3   OH2 2051   4.689   1.548   5.635
  696TIP3    H1 2052   4.631   1.586   5.701
  696TIP3    H2 2053   4.630   1.517   5.566
  697TIP3   OH2 2054   4.679   4.434   4.374
  697TIP3    H1 2055   4.586   4.418   4.355
  697TIP3    H2 2056   4.698   4.377   4.448
  698TIP3   OH2 2057   5.440   1.028   2.615
  698TIP3    H1 2058   5.475   1.112   2.646
  698TIP3    H2 2059   5.415   1.046   2.524
  699TIP3   OH2 2060   3.307   4.332   1.890
  699TIP3    H1 2061   3.310   4.239   1.869
  699TIP3    H2 2062   3.229   4.364   1.845
  700TIP3   OH2 2063   5.698   5.767   2.140
  700TIP3    H1 2064   5.619   5.821   2.138
  700TIP3    H2 2065   5.758   5.813   2.199
  701TIP3   OH2 2066   4.806   6.707   1.559
  701TIP3    H1 2067   4.748   6.729   1.632
  701TIP3    H2 2068   4.819   6.790   1.513
  702TIP3   OH2 2069   5.713   2.953   5.413
  702TIP3    H1 2070   5.665   3.019   5.463
  702TIP3    H2 2071   5.708   2.873   5.466
  703TIP3   OH2 2072   3.851   1.809   1.969
  703TIP3    H1 2073   3.845   1.902   1.991
  703TIP3    H2 2074   3.864   1.766   2.054
  704TIP3   OH2 2075   6.633   0.647   5.330
  704TIP3    H1 2076   6.565   0.714   5.334
  704TIP3    H2 2077   6.716   0.696   5.328
  705TIP3   OH2 2078   1.193   6.401   3.166
  705TIP3    H1 2079   1.206   6.330   3.104
  705TIP3    H2 2080   1.272   6.454   3.159
  706TIP3   OH2 2081   1.409   3.114   2.932
  706TIP3    H1 2082   1.415   3.018   2.933
  706TIP3    H2 2083   1.369   3.134   2.848
  707TIP3   OH2 2084   3.473   6.329   2.080
  707TIP3    H1 2085   3.469   6.261   2.012
  707TIP3    H2 2086   3.530   6.292   2.148
  708TIP3   OH2 2087   0.499   2.004   4.467
  708TIP3    H1 2088   0.413   1.964   4.458
  708TIP3    H2 2089   0.522   1.991   4.558
  709TIP3   OH2 2090   3.616   6.237   3.562
  709TIP3    H1 2091   3.580   6.298   3.626
  709TIP3    H2 2092   3.711   6.249   3.569
  710TIP3   OH2 2093   0.345   6.509   5.133
  710TIP3    H1 2094   0.251   6.506   5.149
  710TIP3    H2 2095   0.355   6.570   5.060
  711TIP3   OH2 2096   3.110   6.182   2.092
  711TIP3    H1 2097   3.039   6.190   2.155
  711TIP3    H2 2098   3.121   6.088   2.080
  712TIP3   OH2 2099   5.767   2.897   1.353
  712TIP3    H1 2100   5.774   2.964   1.285
  712TIP3    H2 2101   5.809   2.936   1.430
  713TIP3   OH2 2102   3.542   0.719   0.827
  713TIP3    H1 2103   3.511   0.712   0.918
  713TIP3    H2 2104   3.630   0.754   0.835
  714TIP3   OH2 2105   1.267   5.798   2.129
  714TIP3    H1 2106   1.286   5.727   2.190
  714TIP3    H2 2107   1.207   5.855   2.177
  715TIP3   OH2 2108   6.676   1.471   2.497
  715TIP3    H1 2109   6.628   1.389   2.479
  715TIP3    H2 2110   6.680   1.515   2.412
  716TIP3   OH2 2111   0.302   2.049   4.789
  716TIP3    H1 2112   0.391   2.014   4.785
  716TIP3    H2 2113   0.247   1.974   4.808
  717TIP3   OH2 2114   3.343   0.354   1.240
  717TIP3    H1 2115   3.393   0.395   1.310
  717TIP3    H2 2116   3.409   0.327   1.176
  718TIP3   OH2 2117   3.722   1.710   1.764
  718TIP3    H1 2118   3.769   1.747   1.839
  718TIP3    H2 2119   3.677   1.634   1.800
  719TIP3   OH2 2120   4.658   5.091   1.618
  719TIP3    H1 2121   4.724   5.022   1.621
  719TIP3    H2 2122   4.694   5.161   1.673
  720TIP3   OH2 2123   6.071   5.772   1.167
  720TIP3    H1 2124   6.157   5.786   1.208
  720TIP3    H2 2125   6.023   5.853   1.182
  721TIP3   OH2 2126   3.460   4.070   4.855
  721TIP3    H1 2127   3.366   4.078   4.838
  721TIP3    H2 2128   3.491   4.009   4.788
  722TIP3   OH2 2129   6.823   5.034   2.213
  722TIP3    H1 2130   6.845   5.038   2.306
  722TIP3    H2 2131   6.782   4.948   2.201
  723TIP3   OH2 2132   4.582   6.164   5.317
  723TIP3    H1 2133   4.532   6.215   5.380
  723TIP3    H2 2134   4.561   6.203   5.232
  724TIP3   OH2 2135   6.701   4.914   0.302
  724TIP3    H1 2136   6.741   4.875   0.225
  724TIP3    H2 2137   6.652   4.989   0.268
  725TIP3   OH2 2138   2.621   2.556   0.302
  725TIP3    H1 2139   2.664   2.543   0.386
  725TIP3    H2 2140   2.532   2.523   0.315
  726TIP3   OH2 2141   4.307   3.266   4.550
  726TIP3    H1 2142   4.379   3.309   4.598
  726TIP3    H2 2143   4.327   3.173   4.554
  727TIP3   OH2 2144   5.094   0.455   5.410
  727TIP3    H1 2145   5.068   0.547   5.421
  727TIP3    H2 2146   5.181   0.451   5.449
  728TIP3   OH2 2147   6.363   6.730   5.728
  728TIP3    H1 2148   6.398   6.798   5.670
  728TIP3    H2 2149   6.400   6.750   5.814
  729TIP3   OH2 2150   5.964   6.043   5.711
  729TIP3    H1 2151   5.903   6.035   5.784
  729TIP3    H2 2152   5.991   5.953   5.692
  730TIP3   OH2 2153   5.926   5.300   2.398
  730TIP3    H1 2154   5.892   5.386   2.375
  730TIP3    H2 2155   6.004   5.317   2.451
  731TIP3   OH2 2156   4.514   1.322   2.534
  731TIP3    H1 2157   4.432   1.275   2.545
  731TIP3    H2 2158   4.582   1.257   2.549
  732TIP3   OH2 2159   2.686   0.569   2.353
  732TIP3    H1 2160   2.718   0.506   2.289
  732TIP3    H2 2161   2.735   0.550   2.432
  733TIP3   OH2 2162   6.698   6.044   2.374
  733TIP3    H1 2163   6.606   6.027   2.356
  733TIP3    H2 2164   6.702   6.059   2.469
  734TIP3   OH2 2165   3.978   4.197   1.667
  734TIP3    H1 2166   3.903   4.201   1.726
  734TIP3    H2 2167   4.030   4.124   1.699
  735TIP3   OH2 2168   2.036   1.639   2.144
  735TIP3    H1 2169   1.987   1.567   2.103
  735TIP3    H2 2170   1.986   1.718   2.121
  736TIP3   OH2 2171   2.075   5.501   0.684
  736TIP3    H1 2172   2.045   5.494   0.593
  736TIP3    H2 2173   1.996   5.518   0.734
  737TIP3   OH2 2174   3.725   4.567   2.944
  737TIP3    H1 2175   3.784   4.496   2.967
  737TIP3    H2 2176   3.695   4.603   3.028
  738TIP3   OH2 2177   2.831   3.651   1.013
  738TIP3    H1 2178   2.840   3.633   0.919
  738TIP3    H2 2179   2.748   3.698   1.020
  739TIP3   OH2 2180   3.431   3.074   3.246
  739TIP3    H1 2181   3.465   3.039   3.328
  739TIP3    H2 2182   3.435   3.000   3.184
  740TIP3   OH2 2183   3.054   5.402   5.479
  740TIP3    H1 2184   3.118   5.332   5.492
  740TIP3    H2 2185   3.101   5.467   5.427
  741TIP3   OH2 2186   0.262   3.015   4.622
  741TIP3    H1 2187   0.347   2.973   4.611
  741TIP3    H2 2188   0.199   2.952   4.588
  742TIP3   OH2 2189   0.731   4.796   5.307
  742TIP3    H1 2190   0.767   4.881   5.285
  742TIP3    H2 2191   0.801   4.734   5.287
  743TIP3   OH2 2192   2.650   1.185   1.726
  743TIP3    H1 2193   2.581   1.138   1.681
  743TIP3    H2 2194   2.604   1.246   1.784
  744TIP3   OH2 2195   5.151   3.214   2.942
  744TIP3    H1 2196   5.102   3.145   2.896
  744TIP3    H2 2197   5.097   3.235   3.018
  745TIP3   OH2 2198   7.005   4.148   3.353
  745TIP3    H1 2199   7.051   4.127   3.272
  745TIP3    H2 2200   7.055   4.103   3.421
  746TIP3   OH2 2201   3.009   3.762   3.435
  746TIP3    H1 2202   3.094   3.794   3.466
  746TIP3    H2 2203   2.949   3.834   3.456
  747TIP3   OH2 2204   3.062   1.461   4.087
  747TIP3    H1 2205   3.110   1.420   4.159
  747TIP3    H2 2206   3.080   1.406   4.011
  748TIP3   OH2 2207   5.945   6.477   2.229
  748TIP3    H1 2208   5.922   6.393   2.268
  748TIP3    H2 2209   6.009   6.515   2.288
  749TIP3   OH2 2210   1.308   2.584   1.226
  749TIP3    H1 2211   1.361   2.567   1.304
  749TIP3    H2 2212   1.255   2.660   1.249
  750TIP3   OH2 2213   4.763   4.814   4.332
  750TIP3    H1 2214   4.680   4.789   4.373
  750TIP3    H2 2215   4.752   4.907   4.311
  751TIP3   OH2 2216   5.216   6.189   2.525
  751TIP3    H1 2217   5.180   6.175   2.613
  751TIP3    H2 2218   5.299   6.235   2.540
  752TIP3   OH2 2219   6.109   0.139   4.340
  752TIP3    H1 2220   6.188   0.096   4.309
  752TIP3    H2 2221   6.045   0.069   4.348
  753TIP3   OH2 2222   6.002   4.173   0.025
  753TIP3    H1 2223   5.926   4.129  -0.014
  753TIP3    H2 2224   5.990   4.265   0.002
  754TIP3   OH2 2225   2.396   4.997   4.513
  754TIP3    H1 2226   2.324   5.039   4.465
  754TIP3    H2 2227   2.463   4.980   4.447
  755TIP3   OH2 2228   1.271   4.832   3.078
  755TIP3    H1 2229   1.353   4.876   3.058
  755TIP3    H2 2230   1.266   4.833   3.174
  756TIP3   OH2 2231   0.796   4.676   3.739
  756TIP3    H1 2232   0.855   4.713   3.673
  756TIP3    H2 2233   0.836   4.593   3.763
  757TIP3   OH2 2234   4.734   6.246   3.768
  757TIP3    H1 2235   4.694   6.272   3.685
  757TIP3    H2 2236   4.753   6.330   3.812
  758TIP3   OH2 2237   5.972   1.340   1.195
  758TIP3    H1 2238   6.031   1.265   1.189
  758TIP3    H2 2239   6.007   1.404   1.133
  759TIP3   OH2 2240   6.005   1.234   4.582
  759TIP3    H1 2241   5.989   1.248   4.675
  759TIP3    H2 2242   6.051   1.314   4.554
  760TIP3   OH2 2243   3.110   1.267   5.098
  760TIP3    H1 2244   3.141   1.227   5.016
  760TIP3    H2 2245   3.015   1.261   5.093
  761TIP3   OH2 2246   2.704   3.936   1.218
  761TIP3    H1 2247   2.694   3.887   1.136
  761TIP3    H2 2248   2.615   3.957   1.244
  762TIP3   OH2 2249   1.595   5.992   5.494
  762TIP3    H1 2250   1.666   5.936   5.462
  762TIP3    H2 2251   1.596   6.067   5.435
  763TIP3   OH2 2252   3.077   3.036   3.683
  763TIP3    H1 2253   3.046   3.122   3.656
  763TIP3    H2 2254   3.055   3.030   3.776
  764TIP3   OH2 2255   2.500   1.226   1.471
  764TIP3    H1 2256   2.589   1.214   1.439
  764TIP3    H2 2257   2.445   1.220   1.393
  765TIP3   OH2 2258   4.309   1.058   2.201
  765TIP3    H1 2259   4.243   1.069   2.133
  765TIP3    H2 2260   4.304   0.965   2.224
  766TIP3   OH2 2261   1.915   3.953   3.916
  766TIP3    H1 2262   1.934   3.879   3.974
  766TIP3    H2 2263   1.899   3.913   3.831
  767TIP3   OH2 2264   0.690   0.924   1.738
  767TIP3    H1 2265   0.620   0.863   1.717
  767TIP3    H2 2266   0.658   0.972   1.814
  768TIP3   OH2 2267   0.386   0.566   1.024
  768TIP3    H1 2268   0.336   0.633   1.071
  768TIP3    H2 2269   0.376   0.590   0.932
  769TIP3   OH2 2270   3.542   3.184   0.683
  769TIP3    H1 2271   3.637   3.177   0.684
  769TIP3    H2 2272   3.523   3.251   0.617
  770TIP3   OH2 2273   4.434   6.465   5.695
  770TIP3    H1 2274   4.347   6.474   5.733
  770TIP3    H2 2275   4.480   6.405   5.754
  771TIP3   OH2 2276   3.087   1.324   4.731
  771TIP3    H1 2277   3.114   1.238   4.763
  771TIP3    H2 2278   3.002   1.309   4.690
  772TIP3   OH2 2279   5.115   0.171   2.562
  772TIP3    H1 2280   5.198   0.156   2.606
  772TIP3    H2 2281   5.050   0.128   2.619
  773TIP3   OH2 2282   3.910   5.288   4.652
  773TIP3    H1 2283   3.981   5.226   4.672
  773TIP3    H2 2284   3.866   5.301   4.736
  774TIP3   OH2 2285   4.373   0.788   4.035
  774TIP3    H1 2286   4.453   0.739   4.013
  774TIP3    H2 2287   4.404   0.878   4.049
  775TIP3   OH2 2288   4.919   0.406   5.201
  775TIP3    H1 2289   4.995   0.419   5.258
  775TIP3    H2 2290   4.847   0.448   5.247
  776TIP3   OH2 2291   5.948   4.185   4.849
  776TIP3    H1 2292   5.920   4.276   4.852
  776TIP3    H2 2293   5.885   4.142   4.791
  777TIP3   OH2 2294   7.163   0.588   3.117
  777TIP3    H1 2295   7.071   0.572   3.098
  777TIP3    H2 2296   7.162   0.655   3.186
  778TIP3   OH2 2297   2.018   4.634   5.256
  778TIP3    H1 2298   2.109   4.662   5.266
  778TIP3    H2 2299   1.977   4.705   5.206
  779TIP3   OH2 2300   6.063   1.939   1.377
  779TIP3    H1 2301   6.132   1.875   1.356
  779TIP3    H2 2302   6.111   2.017   1.405
  780TIP3   OH2 2303   0.839   4.841   1.000
  780TIP3    H1 2304   0.926   4.854   1.037
  780TIP3    H2 2305   0.798   4.774   1.056
  781TIP3   OH2 2306   1.778   5.432   3.967
  781TIP3    H1 2307   1.867   5.437   4.001
  781TIP3    H2 2308   1.761   5.339   3.959
  782TIP3   OH2 2309   6.325   4.695   2.392
  782TIP3    H1 2310   6.391   4.695   2.323
  782TIP3    H2 2311   6.280   4.611   2.382
  783TIP3   OH2 2312   2.659   1.674   1.301
  783TIP3    H1 2313   2.736   1.644   1.349
  783TIP3    H2 2314   2.694   1.722   1.226
  784TIP3   OH2 2315   2.660   3.328   2.352
  784TIP3    H1 2316   2.696   3.240   2.348
  784TIP3    H2 2317   2.568   3.316   2.373
  785TIP3   OH2 2318   6.885   3.053   2.156
  785TIP3    H1 2319   6.867   3.110   2.230
  785TIP3    H2 2320   6.971   3.080   2.124
  786TIP3   OH2 2321   3.594   3.163   4.641
  786TIP3    H1 2322   3.653   3.158   4.566
  786TIP3    H2 2323   3.523   3.220   4.612
  787TIP3   OH2 2324   4.430   3.756   4.169
  787TIP3    H1 2325   4.387   3.780   4.087
  787TIP3    H2 2326   4.393   3.816   4.234
  788TIP3   OH2 2327   3.463   1.026   5.881
  788TIP3    H1 2328   3.474   1.120   5.894
  788TIP3    H2 2329   3.396   1.019   5.813
  789TIP3   OH2 2330   6.448   4.467   5.056
  789TIP3    H1 2331   6.519   4.420   5.100
  789TIP3    H2 2332   6.419   4.407   4.987
  790TIP3   OH2 2333   3.222   4.647   0.710
  790TIP3    H1 2334   3.260   4.679   0.791
  790TIP3    H2 2335   3.232   4.719   0.648
  791TIP3   OH2 2336   0.033   0.993   1.346
  791TIP3    H1 2337   0.048   1.079   1.306
  791TIP3    H2 2338   0.121   0.962   1.369
  792TIP3   OH2 2339   5.284   1.308   4.206
  792TIP3    H1 2340   5.195   1.302   4.242
  792TIP3    H2 2341   5.325   1.379   4.256
  793TIP3   OH2 2342   4.128   3.336   1.750
  793TIP3    H1 2343   4.201   3.302   1.802
  793TIP3    H2 2344   4.070   3.379   1.813
  794TIP3   OH2 2345   2.964   2.784   5.603
  794TIP3    H1 2346   2.933   2.863   5.560
  794TIP3    H2 2347   2.933   2.792   5.693
  795TIP3   OH2 2348   7.165   2.871   1.816
  795TIP3    H1 2349   7.208   2.828   1.890
  795TIP3    H2 2350   7.218   2.948   1.797
  796TIP3   OH2 2351   0.673   5.698   1.652
  796TIP3    H1 2352   0.692   5.771   1.710
  796TIP3    H2 2353   0.691   5.620   1.706
  797TIP3   OH2 2354   0.265   2.986   1.288
  797TIP3    H1 2355   0.178   2.955   1.265
  797TIP3    H2 2356   0.314   2.985   1.206
  798TIP3   OH2 2357   1.294   2.525   5.803
  798TIP3    H1 2358   1.293   2.429   5.805
  798TIP3    H2 2359   1.287   2.550   5.896
  799TIP3   OH2 2360   3.992   3.875   0.773
  799TIP3    H1 2361   3.919   3.822   0.803
  799TIP3    H2 2362   3.952   3.957   0.742
  800TIP3   OH2 2363   3.097   5.037   2.550
  800TIP3    H1 2364   3.119   5.118   2.595
  800TIP3    H2 2365   3.181   4.990   2.543
  801TIP3   OH2 2366   1.618   3.792   4.987
  801TIP3    H1 2367   1.683   3.795   4.917
  801TIP3    H2 2368   1.538   3.759   4.946
  802TIP3   OH2 2369   7.099   1.011   3.312
  802TIP3    H1 2370   7.014   0.970   3.331
  802TIP3    H2 2371   7.093   1.038   3.221
  803TIP3   OH2 2372   0.501   0.483   5.442
  803TIP3    H1 2373   0.577   0.458   5.495
  803TIP3    H2 2374   0.522   0.570   5.409
  804TIP3   OH2 2375   1.976   6.660   5.779
  804TIP3    H1 2376   1.966   6.700   5.692
  804TIP3    H2 2377   1.904   6.696   5.830
  805TIP3   OH2 2378   3.334   4.906   2.548
  805TIP3    H1 2379   3.324   4.837   2.614
  805TIP3    H2 2380   3.429   4.917   2.540
  806TIP3   OH2 2381   6.194   5.171   2.047
  806TIP3    H1 2382   6.117   5.205   2.094
  806TIP3    H2 2383   6.208   5.084   2.084
  807TIP3   OH2 2384   4.958   2.082   2.156
  807TIP3    H1 2385   4.901   2.039   2.093
  807TIP3    H2 2386   5.009   2.011   2.196
  808TIP3   OH2 2387   3.453   0.921   3.399
  808TIP3    H1 2388   3.380   0.916   3.338
  808TIP3    H2 2389   3.518   0.860   3.364
  809TIP3   OH2 2390   1.701   0.094   0.516
  809TIP3    H1 2391   1.689   0.098   0.421
  809TIP3    H2 2392   1.782   0.044   0.527
  810TIP3   OH2 2393   3.666   2.440   0.423
  810TIP3    H1 2394   3.584   2.415   0.381
  810TIP3    H2 2395   3.695   2.518   0.376
  811TIP3   OH2 2396   3.833   4.438   5.690
  811TIP3    H1 2397   3.821   4.423   5.784
  811TIP3    H2 2398   3.844   4.532   5.682
  812TIP3   OH2 2399   1.934   6.764   5.524
  812TIP3    H1 2400   1.997   6.766   5.452
  812TIP3    H2 2401   1.853   6.733   5.485
  813TIP3   OH2 2402   3.825   6.454   4.124
  813TIP3    H1 2403   3.902   6.436   4.070
  813TIP3    H2 2404   3.838   6.399   4.201
  814TIP3   OH2 2405   4.358   6.602   3.424
  814TIP3    H1 2406   4.368   6.605   3.519
  814TIP3    H2 2407   4.447   6.592   3.390
  815TIP3   OH2 2408   5.752   3.581   5.571
  815TIP3    H1 2409   5.804   3.658   5.594
  815TIP3    H2 2410   5.709   3.556   5.653
  816TIP3   OH2 2411   5.908   3.147   3.637
  816TIP3    H1 2412   5.897   3.062   3.679
  816TIP3    H2 2413   5.833   3.156   3.579
  817TIP3   OH2 2414   5.526   1.413   4.130
  817TIP3    H1 2415   5.568   1.457   4.204
  817TIP3    H2 2416   5.562   1.456   4.053
  818TIP3   OH2 2417   4.829   6.068   0.052
  818TIP3    H1 2418   4.921   6.092   0.054
  818TIP3    H2 2419   4.803   6.081  -0.039
  819TIP3   OH2 2420   4.941   2.442   4.825
  819TIP3    H1 2421   4.891   2.363   4.842
  819TIP3    H2 2422   4.888   2.513   4.863
  820TIP3   OH2 2423   2.604   6.039   3.004
  820TIP3    H1 2424   2.658   6.051   2.926
  820TIP3    H2 2425   2.659   6.071   3.076
  821TIP3   OH2 2426   6.819   3.749   2.025
  821TIP3    H1 2427   6.895   3.721   2.076
  821TIP3    H2 2428   6.748   3.692   2.054
  822TIP3   OH2 2429   0.324   3.254   0.497
  822TIP3    H1 2430   0.281   3.222   0.418
  822TIP3    H2 2431   0.254   3.254   0.564
  823TIP3   OH2 2432   1.250   3.917   4.757
  823TIP3    H1 2433   1.280   3.903   4.667
  823TIP3    H2 2434   1.186   3.988   4.752
  824TIP3   OH2 2435   7.038   5.606   1.649
  824TIP3    H1 2436   7.129   5.581   1.633
  824TIP3    H2 2437   6.987   5.539   1.603
  825TIP3   OH2 2438   3.525   1.513   3.913
  825TIP3    H1 2439   3.569   1.430   3.896
  825TIP3    H2 2440   3.464   1.494   3.984
  826TIP3   OH2 2441   2.031   0.979   2.487
  826TIP3    H1 2442   1.939   0.967   2.464
  826TIP3    H2 2443   2.059   1.055   2.434
  827TIP3   OH2 2444   3.720   2.622   1.494
  827TIP3    H1 2445   3.761   2.653   1.575
  827TIP3    H2 2446   3.768   2.543   1.471
  828TIP3   OH2 2447   6.704   3.092   1.942
  828TIP3    H1 2448   6.759   3.021   1.974
  828TIP3    H2 2449   6.666   3.131   2.020
  829TIP3   OH2 2450   0.809   6.573   4.994
  829TIP3    H1 2451   0.802   6.516   5.071
  829TIP3    H2 2452   0.764   6.654   5.019
  830TIP3   OH2 2453   5.039   5.886   5.776
  830TIP3    H1 2454   5.055   5.968   5.823
  830TIP3    H2 2455   5.030   5.912   5.684
  831TIP3   OH2 2456   2.192   3.999   0.939
  831TIP3    H1 2457   2.118   4.056   0.918
  831TIP3    H2 2458   2.252   4.010   0.866
  832TIP3   OH2 2459   6.829   2.294   4.653
  832TIP3    H1 2460   6.789   2.207   4.645
  832TIP3    H2 2461   6.866   2.295   4.741
  833TIP3   OH2 2462   2.010   0.201   5.111
  833TIP3    H1 2463   2.100   0.178   5.134
  833TIP3    H2 2464   1.956   0.140   5.162
  834TIP3   OH2 2465   0.320   0.814   1.113
  834TIP3    H1 2466   0.228   0.793   1.102
  834TIP3    H2 2467   0.344   0.861   1.033
  835TIP3   OH2 2468   1.828   0.196   4.786
  835TIP3    H1 2469   1.913   0.205   4.744
  835TIP3    H2 2470   1.765   0.212   4.716
  836TIP3   OH2 2471   3.293   0.655   3.259
  836TIP3    H1 2472   3.218   0.599   3.279
  836TIP3    H2 2473   3.259   0.744   3.269
  837TIP3   OH2 2474   6.869   5.454   2.498
  837TIP3    H1 2475   6.801   5.521   2.508
  837TIP3    H2 2476   6.950   5.503   2.489
  838TIP3   OH2 2477   0.683   4.852   1.410
  838TIP3    H1 2478   0.653   4.811   1.330
  838TIP3    H2 2479   0.777   4.836   1.412
  839TIP3   OH2 2480   2.957   6.824   2.030
  839TIP3    H1 2481   3.029   6.772   1.994
  839TIP3    H2 2482   2.878   6.781   1.997
  840TIP3   OH2 2483   4.373   2.642   4.436
  840TIP3    H1 2484   4.428   2.586   4.382
  840TIP3    H2 2485   4.432   2.709   4.470
  841TIP3   OH2 2486   0.259   1.891   5.425
  841TIP3    H1 2487   0.281   1.806   5.464
  841TIP3    H2 2488   0.227   1.943   5.499
  842TIP3   OH2 2489   7.175   6.474   1.286
  842TIP3    H1 2490   7.202   6.419   1.212
  842TIP3    H2 2491   7.253   6.525   1.308
  843TIP3   OH2 2492   0.940   5.955   0.724
  843TIP3    H1 2493   0.920   6.016   0.653
  843TIP3    H2 2494   1.013   5.902   0.691
  844TIP3   OH2 2495   6.256   2.261   3.295
  844TIP3    H1 2496   6.291   2.260   3.206
  844TIP3    H2 2497   6.166   2.229   3.285
  845TIP3   OH2 2498   2.308   1.605   0.570
  845TIP3    H1 2499   2.323   1.541   0.639
  845TIP3    H2 2500   2.218   1.591   0.543
  846TIP3   OH2 2501   0.027   5.656   1.098
  846TIP3    H1 2502  -0.056   5.617   1.069
  846TIP3    H2 2503   0.046   5.724   1.033
  847TIP3   OH2 2504   2.445   5.217   5.553
  847TIP3    H1 2505   2.444   5.131   5.511
  847TIP3    H2 2506   2.353   5.238   5.567
  848TIP3   OH2 2507   4.456   5.043   3.496
  848TIP3    H1 2508   4.520   5.086   3.440
  848TIP3    H2 2509   4.438   5.106   3.566
  849TIP3   OH2 2510   1.914   1.000   5.321
  849TIP3    H1 2511   1.978   0.944   5.277
  849TIP3    H2 2512   1.850   1.021   5.252
  850TIP3   OH2 2513   6.029   1.792   2.968
  850TIP3    H1 2514   5.943   1.752   2.980
  850TIP3    H2 2515   6.031   1.863   3.032
  851TIP3   OH2 2516   2.958   4.904   1.562
  851TIP3    H1 2517   3.018   4.830   1.549
  851TIP3    H2 2518   2.947   4.942   1.475
  852TIP3   OH2 2519   6.592   3.830   4.543
  852TIP3    H1 2520   6.527   3.827   4.613
  852TIP3    H2 2521   6.672   3.798   4.583
  853TIP3   OH2 2522   6.916   3.623   0.750
  853TIP3    H1 2523   6.991   3.636   0.692
  853TIP3    H2 2524   6.871   3.546   0.715
  854TIP3   OH2 2525   2.555   3.648   1.759
  854TIP3    H1 2526   2.477   3.701   1.742
  854TIP3    H2 2527   2.571   3.658   1.853
  855TIP3   OH2 2528   2.071   0.104   3.359
  855TIP3    H1 2529   1.987   0.147   3.344
  855TIP3    H2 2530   2.051   0.030   3.416
  856TIP3   OH2 2531   5.641   6.126   2.761
  856TIP3    H1 2532   5.559   6.127   2.712
  856TIP3    H2 2533   5.615   6.111   2.852
  857TIP3   OH2 2534   0.710   0.067   2.211
  857TIP3    H1 2535   0.778   0.124   2.174
  857TIP3    H2 2536   0.655   0.045   2.136
  858TIP3   OH2 2537   5.247   0.321   4.197
  858TIP3    H1 2538   5.222   0.268   4.273
  858TIP3    H2 2539   5.174   0.311   4.136
  859TIP3   OH2 2540   6.472   4.300   5.646
  859TIP3    H1 2541   6.490   4.326   5.556
  859TIP3    H2 2542   6.529   4.356   5.699
  860TIP3   OH2 2543   3.513   3.905   4.650
  860TIP3    H1 2544   3.427   3.872   4.624
  860TIP3    H2 2545   3.546   3.951   4.573
  861TIP3   OH2 2546   2.413   3.517   2.607
  861TIP3    H1 2547   2.479   3.517   2.675
  861TIP3    H2 2548   2.408   3.608   2.577
  862TIP3   OH2 2549   4.541   1.740   3.164
  862TIP3    H1 2550   4.626   1.779   3.144
  862TIP3    H2 2551   4.549   1.712   3.255
  863TIP3   OH2 2552   0.415   0.425   4.874
  863TIP3    H1 2553   0.472   0.498   4.853
  863TIP3    H2 2554   0.396   0.435   4.968
  864TIP3   OH2 2555   3.555   4.709   5.629
  864TIP3    H1 2556   3.563   4.614   5.637
  864TIP3    H2 2557   3.645   4.741   5.635
  865TIP3   OH2 2558   5.476   6.340   2.356
  865TIP3    H1 2559   5.570   6.319   2.360
  865TIP3    H2 2560   5.449   6.346   2.448
  866TIP3   OH2 2561   2.380   3.367   2.364
  866TIP3    H1 2562   2.381   3.421   2.285
  866TIP3    H2 2563   2.365   3.430   2.435
  867TIP3   OH2 2564   5.625   5.731   4.386
  867TIP3    H1 2565   5.572   5.779   4.450
  867TIP3    H2 2566   5.685   5.797   4.351
  868TIP3   OH2 2567   4.118   2.585   2.527
  868TIP3    H1 2568   4.095   2.619   2.441
  868TIP3    H2 2569   4.180   2.648   2.563
  869TIP3   OH2 2570   0.620   1.326   1.924
  869TIP3    H1 2571   0.527   1.316   1.943
  869TIP3    H2 2572   0.638   1.419   1.935
  870TIP3   OH2 2573   0.787   0.742   2.059
  870TIP3    H1 2574   0.807   0.674   1.995
  870TIP3    H2 2575   0.770   0.694   2.140
  871TIP3   OH2 2576   2.262   6.105   4.108
  871TIP3    H1 2577   2.242   6.064   4.192
  871TIP3    H2 2578   2.277   6.197   4.129
  872TIP3   OH2 2579   3.535   5.591   1.038
  872TIP3    H1 2580   3.512   5.645   0.963
  872TIP3    H2 2581   3.531   5.501   1.006
  873TIP3   OH2 2582   0.313   0.940   3.250
  873TIP3    H1 2583   0.317   1.032   3.276
  873TIP3    H2 2584   0.267   0.897   3.322
  874TIP3   OH2 2585   4.639   3.002   2.585
  874TIP3    H1 2586   4.580   2.945   2.634
  874TIP3    H2 2587   4.583   3.044   2.519
  875TIP3   OH2 2588   5.340   1.883   5.239
  875TIP3    H1 2589   5.267   1.943   5.248
  875TIP3    H2 2590   5.383   1.908   5.157
  876TIP3   OH2 2591   7.216   2.868   2.596
  876TIP3    H1 2592   7.138   2.921   2.580
  876TIP3    H2 2593   7.221   2.859   2.691
  877TIP3   OH2 2594   1.587   1.470   0.960
  877TIP3    H1 2595   1.538   1.399   0.917
  877TIP3    H2 2596   1.527   1.544   0.959
  878TIP3   OH2 2597   1.888   0.811   4.441
  878TIP3    H1 2598   1.811   0.791   4.387
  878TIP3    H2 2599   1.855   0.810   4.531
  879TIP3   OH2 2600   4.430   3.436   1.180
  879TIP3    H1 2601   4.477   3.373   1.125
  879TIP3    H2 2602   4.432   3.398   1.268
  880TIP3   OH2 2603   4.224   1.037   4.453
  880TIP3    H1 2604   4.182   0.951   4.447
  880TIP3    H2 2605   4.164   1.089   4.506
  881TIP3   OH2 2606   4.972   0.254   4.448
  881TIP3    H1 2607   4.959   0.215   4.535
  881TIP3    H2 2608   4.912   0.204   4.392
  882TIP3   OH2 2609   5.608   5.294   2.311
  882TIP3    H1 2610   5.655   5.377   2.307
  882TIP3    H2 2611   5.517   5.319   2.330
  883TIP3   OH2 2612   6.245   2.277   5.323
  883TIP3    H1 2613   6.250   2.193   5.369
  883TIP3    H2 2614   6.282   2.341   5.384
  884TIP3   OH2 2615   1.388   6.642   5.674
  884TIP3    H1 2616   1.457   6.692   5.718
  884TIP3    H2 2617   1.436   6.581   5.618
  885TIP3   OH2 2618   7.003   1.220   4.323
  885TIP3    H1 2619   6.928   1.182   4.369
  885TIP3    H2 2620   6.997   1.185   4.234
  886TIP3   OH2 2621   3.800   0.373   1.790
  886TIP3    H1 2622   3.842   0.291   1.763
  886TIP3    H2 2623   3.710   0.348   1.812
  887TIP3   OH2 2624   4.839   2.516   1.830
  887TIP3    H1 2625   4.897   2.441   1.812
  887TIP3    H2 2626   4.883   2.590   1.790
  888TIP3   OH2 2627   1.109   3.517   2.343
  888TIP3    H1 2628   1.096   3.610   2.362
  888TIP3    H2 2629   1.048   3.472   2.402
  889TIP3   OH2 2630   5.676   5.056   4.686
  889TIP3    H1 2631   5.708   4.966   4.686
  889TIP3    H2 2632   5.646   5.071   4.596
  890TIP3   OH2 2633   0.494   5.538   0.027
  890TIP3    H1 2634   0.488   5.631   0.048
  890TIP3    H2 2635   0.570   5.532  -0.031
  891TIP3   OH2 2636   4.484   5.853   5.109
  891TIP3    H1 2637   4.480   5.913   5.035
  891TIP3    H2 2638   4.549   5.787   5.083
  892TIP3   OH2 2639   4.931   3.216   2.175
  892TIP3    H1 2640   4.924   3.311   2.166
  892TIP3    H2 2641   5.018   3.202   2.212
  893TIP3   OH2 2642   5.191   1.074   4.808
  893TIP3    H1 2643   5.228   1.035   4.888
  893TIP3    H2 2644   5.128   1.010   4.777
  894TIP3   OH2 2645   0.848   3.321   3.634
  894TIP3    H1 2646   0.829   3.258   3.703
  894TIP3    H2 2647   0.772   3.319   3.576
  895TIP3   OH2 2648   7.066   6.324   0.375
  895TIP3    H1 2649   7.019   6.305   0.456
  895TIP3    H2 2650   7.150   6.360   0.403
  896TIP3   OH2 2651   5.884   3.889   5.374
  896TIP3    H1 2652   5.924   3.850   5.451
  896TIP3    H2 2653   5.959   3.915   5.319
  897TIP3   OH2 2654   0.686   3.358   4.885
  897TIP3    H1 2655   0.591   3.358   4.872
  897TIP3    H2 2656   0.703   3.277   4.933
  898TIP3   OH2 2657   0.160   0.168   1.632
  898TIP3    H1 2658   0.186   0.215   1.553
  898TIP3    H2 2659   0.187   0.078   1.617
  899TIP3   OH2 2660   5.791   6.500   5.582
  899TIP3    H1 2661   5.814   6.414   5.546
  899TIP3    H2 2662   5.857   6.559   5.546
  900TIP3   OH2 2663   0.673   4.954   5.045
  900TIP3    H1 2664   0.749   4.902   5.070
  900TIP3    H2 2665   0.708   5.043   5.033
  901TIP3   OH2 2666   4.595   5.858   3.047
  901TIP3    H1 2667   4.545   5.778   3.065
  901TIP3    H2 2668   4.614   5.853   2.953
  902TIP3   OH2 2669   4.291   2.884   1.238
  902TIP3    H1 2670   4.238   2.821   1.288
  902TIP3    H2 2671   4.366   2.902   1.295
  903TIP3   OH2 2672   4.305   6.741   5.191
  903TIP3    H1 2673   4.270   6.668   5.243
  903TIP3    H2 2674   4.395   6.717   5.173
  904TIP3   OH2 2675   3.684   1.719   0.463
  904TIP3    H1 2676   3.744   1.784   0.426
  904TIP3    H2 2677   3.725   1.692   0.545
  905TIP3   OH2 2678   1.189   5.471   0.098
  905TIP3    H1 2679   1.221   5.471   0.188
  905TIP3    H2 2680   1.153   5.559   0.085
  906TIP3   OH2 2681   1.077   4.264   5.353
  906TIP3    H1 2682   1.139   4.191   5.351
  906TIP3    H2 2683   1.100   4.317   5.277
  907TIP3   OH2 2684   4.784   3.886   0.280
  907TIP3    H1 2685   4.827   3.806   0.250
  907TIP3    H2 2686   4.700   3.887   0.234
  908TIP3   OH2 2687   5.529   2.627   2.820
  908TIP3    H1 2688   5.622   2.625   2.841
  908TIP3    H2 2689   5.514   2.713   2.782
  909TIP3   OH2 2690   3.823   2.159   4.501
  909TIP3    H1 2691   3.786   2.192   4.419
  909TIP3    H2 2692   3.904   2.116   4.475
  910TIP3   OH2 2693   4.897   4.508   4.977
  910TIP3    H1 2694   4.841   4.431   4.970
  910TIP3    H2 2695   4.890   4.551   4.892
  911TIP3   OH2 2696   0.785   4.439   1.127
  911TIP3    H1 2697   0.817   4.404   1.044
  911TIP3    H2 2698   0.761   4.361   1.178
  912TIP3   OH2 2699   3.800   4.808   0.270
  912TIP3    H1 2700   3.730   4.794   0.206
  912TIP3    H2 2701   3.849   4.882   0.236
  913TIP3   OH2 2702   4.114   1.417   3.933
  913TIP3    H1 2703   4.047   1.389   3.870
  913TIP3    H2 2704   4.064   1.453   4.006
  914TIP3   OH2 2705   5.157   1.238   1.292
  914TIP3    H1 2706   5.241   1.250   1.336
  914TIP3    H2 2707   5.167   1.158   1.240
  915TIP3   OH2 2708   1.027   1.258   2.826
  915TIP3    H1 2709   1.034   1.197   2.900
  915TIP3    H2 2710   0.995   1.339   2.866
  916TIP3   OH2 2711   3.695   1.772   3.558
  916TIP3    H1 2712   3.617   1.797   3.607
  916TIP3    H2 2713   3.727   1.694   3.603
  917TIP3   OH2 2714   3.523   2.665   4.947
  917TIP3    H1 2715   3.612   2.689   4.973
  917TIP3    H2 2716   3.528   2.573   4.924
  918TIP3   OH2 2717   4.292   2.375   4.239
  918TIP3    H1 2718   4.322   2.291   4.206
  918TIP3    H2 2719   4.367   2.433   4.230
  919TIP3   OH2 2720   4.558   4.618   4.932
  919TIP3    H1 2721   4.574   4.686   4.999
  919TIP3    H2 2722   4.584   4.660   4.850
  920TIP3   OH2 2723   1.183   3.774   4.152
  920TIP3    H1 2724   1.275   3.782   4.126
  920TIP3    H2 2725   1.144   3.858   4.128
  921TIP3   OH2 2726   0.325   5.692   3.495
  921TIP3    H1 2727   0.299   5.610   3.537
  921TIP3    H2 2728   0.280   5.760   3.545
  922TIP3   OH2 2729   0.046   3.044   2.137
  922TIP3    H1 2730   0.101   3.093   2.076
  922TIP3    H2 2731  -0.037   3.091   2.138
  923TIP3   OH2 2732   2.832   3.237   3.139
  923TIP3    H1 2733   2.884   3.197   3.209
  923TIP3    H2 2734   2.800   3.163   3.088
  924TIP3   OH2 2735   4.904   1.117   0.727
  924TIP3    H1 2736   4.935   1.107   0.817
  924TIP3    H2 2737   4.888   1.027   0.697
  925TIP3   OH2 2738   1.629   4.557   4.144
  925TIP3    H1 2739   1.631   4.467   4.177
  925TIP3    H2 2740   1.537   4.574   4.125
  926TIP3   OH2 2741   6.328   0.804   4.896
  926TIP3    H1 2742   6.255   0.743   4.909
  926TIP3    H2 2743   6.407   0.752   4.914
  927TIP3   OH2 2744   6.783   1.634   1.479
  927TIP3    H1 2745   6.771   1.702   1.545
  927TIP3    H2 2746   6.695   1.614   1.447
  928TIP3   OH2 2747   3.628   0.796   2.723
  928TIP3    H1 2748   3.571   0.747   2.663
  928TIP3    H2 2749   3.631   0.884   2.686
  929TIP3   OH2 2750   6.920   3.138   5.212
  929TIP3    H1 2751   6.890   3.184   5.134
  929TIP3    H2 2752   7.006   3.103   5.188
  930TIP3   OH2 2753   4.503   4.651   4.052
  930TIP3    H1 2754   4.423   4.702   4.038
  930TIP3    H2 2755   4.569   4.694   3.999
  931TIP3   OH2 2756   0.480   6.155   4.121
  931TIP3    H1 2757   0.543   6.185   4.056
  931TIP3    H2 2758   0.426   6.232   4.140
  932TIP3   OH2 2759   5.509   2.261   3.289
  932TIP3    H1 2760   5.444   2.224   3.348
  932TIP3    H2 2761   5.511   2.355   3.311
  933TIP3   OH2 2762   5.829   0.864   2.568
  933TIP3    H1 2763   5.791   0.863   2.656
  933TIP3    H2 2764   5.900   0.800   2.572
  934TIP3   OH2 2765   1.306   2.335   2.117
  934TIP3    H1 2766   1.249   2.358   2.190
  934TIP3    H2 2767   1.311   2.239   2.119
  935TIP3   OH2 2768   2.152   1.987   0.571
  935TIP3    H1 2769   2.152   2.050   0.499
  935TIP3    H2 2770   2.221   2.017   0.630
  936TIP3   OH2 2771   4.346   5.713   3.341
  936TIP3    H1 2772   4.298   5.794   3.322
  936TIP3    H2 2773   4.438   5.737   3.330
  937TIP3   OH2 2774   4.756   3.468   3.145
  937TIP3    H1 2775   4.807   3.539   3.105
  937TIP3    H2 2776   4.679   3.511   3.182
  938TIP3   OH2 2777   0.887   4.424   4.636
  938TIP3    H1 2778   0.977   4.416   4.666
  938TIP3    H2 2779   0.835   4.396   4.712
  939TIP3   OH2 2780   4.467   5.990   5.657
  939TIP3    H1 2781   4.450   5.970   5.565
  939TIP3    H2 2782   4.425   5.919   5.705
  940TIP3   OH2 2783   1.757   1.882   1.713
  940TIP3    H1 2784   1.801   1.800   1.690
  940TIP3    H2 2785   1.730   1.919   1.628
  941TIP3   OH2 2786   2.995   5.960   2.606
  941TIP3    H1 2787   3.090   5.972   2.606
  941TIP3    H2 2788   2.959   6.049   2.606
  942TIP3   OH2 2789   5.872   3.690   2.740
  942TIP3    H1 2790   5.859   3.604   2.780
  942TIP3    H2 2791   5.830   3.751   2.800
  943TIP3   OH2 2792   0.306   2.373   4.836
  943TIP3    H1 2793   0.401   2.373   4.845
  943TIP3    H2 2794   0.291   2.364   4.742
  944TIP3   OH2 2795   0.051   4.248   3.057
  944TIP3    H1 2796   0.007   4.313   3.003
  944TIP3    H2 2797   0.086   4.184   2.995
  945TIP3   OH2 2798   3.495   6.369   0.599
  945TIP3    H1 2799   3.527   6.303   0.661
  945TIP3    H2 2800   3.483   6.321   0.517
  946TIP3   OH2 2801   5.910   0.851   1.506
  946TIP3    H1 2802   5.901   0.869   1.413
  946TIP3    H2 2803   5.840   0.789   1.526
  947TIP3   OH2 2804   0.449   2.759   0.730
  947TIP3    H1 2805   0.355   2.767   0.713
  947TIP3    H2 2806   0.461   2.667   0.755
  948TIP3   OH2 2807   4.404   0.991   4.743
  948TIP3    H1 2808   4.410   1.043   4.824
  948TIP3    H2 2809   4.328   1.027   4.698
  949TIP3   OH2 2810   2.168   0.943   2.132
  949TIP3    H1 2811   2.199   0.874   2.192
  949TIP3    H2 2812   2.154   0.898   2.049
  950TIP3   OH2 2813   1.134   3.373   4.072
  950TIP3    H1 2814   1.192   3.372   4.147
  950TIP3    H2 2815   1.065   3.436   4.095
  951TIP3   OH2 2816   1.362   4.146   3.739
  951TIP3    H1 2817   1.420   4.200   3.792
  951TIP3    H2 2818   1.280   4.196   3.734
  952TIP3   OH2 2819   2.650   5.480   4.127
  952TIP3    H1 2820   2.682   5.568   4.107
  952TIP3    H2 2821   2.727   5.424   4.119
  953TIP3   OH2 2822   4.594   0.652   3.972
  953TIP3    H1 2823   4.640   0.606   3.902
  953TIP3    H2 2824   4.662   0.700   4.019
  954TIP3   OH2 2825   2.658   3.889   2.959
  954TIP3    H1 2826   2.581   3.906   2.905
  954TIP3    H2 2827   2.624   3.849   3.038
  955TIP3   OH2 2828   5.133   2.190   2.378
  955TIP3    H1 2829   5.080   2.197   2.298
  955TIP3    H2 2830   5.181   2.108   2.368
  956TIP3   OH2 2831   4.935   2.994   0.643
  956TIP3    H1 2832   4.867   3.052   0.678
  956TIP3    H2 2833   4.891   2.945   0.573
  957TIP3   OH2 2834   1.512   1.957   1.418
  957TIP3    H1 2835   1.444   1.981   1.481
  957TIP3    H2 2836   1.585   2.015   1.436
  958TIP3   OH2 2837   6.352   2.849   3.403
  958TIP3    H1 2838   6.337   2.875   3.312
  958TIP3    H2 2839   6.286   2.897   3.453
  959TIP3   OH2 2840   2.179   6.789   5.300
  959TIP3    H1 2841   2.221   6.839   5.230
  959TIP3    H2 2842   2.102   6.751   5.259
  960TIP3   OH2 2843   1.464   5.528   3.767
  960TIP3    H1 2844   1.553   5.563   3.777
  960TIP3    H2 2845   1.425   5.537   3.854
  961TIP3   OH2 2846   1.246   3.534   0.463
  961TIP3    H1 2847   1.159   3.562   0.433
  961TIP3    H2 2848   1.299   3.613   0.460
  962TIP3   OH2 2849   6.400   5.090   5.893
  962TIP3    H1 2850   6.306   5.103   5.879
  962TIP3    H2 2851   6.441   5.167   5.855
  963TIP3   OH2 2852   0.318   4.734   1.226
  963TIP3    H1 2853   0.361   4.688   1.298
  963TIP3    H2 2854   0.227   4.705   1.229
  964TIP3   OH2 2855   4.381   4.538   5.268
  964TIP3    H1 2856   4.431   4.584   5.336
  964TIP3    H2 2857   4.293   4.529   5.306
  965TIP3   OH2 2858   5.464   1.874  -0.008
  965TIP3    H1 2859   5.489   1.830   0.074
  965TIP3    H2 2860   5.368   1.870  -0.008
  966TIP3   OH2 2861   0.123   3.691   4.708
  966TIP3    H1 2862   0.177   3.769   4.696
  966TIP3    H2 2863   0.111   3.685   4.803
  967TIP3   OH2 2864   0.985   3.192   4.316
  967TIP3    H1 2865   0.906   3.247   4.310
  967TIP3    H2 2866   1.057   3.254   4.322
  968TIP3   OH2 2867   2.794   1.552   1.786
  968TIP3    H1 2868   2.799   1.457   1.793
  968TIP3    H2 2869   2.712   1.576   1.830
  969TIP3   OH2 2870   1.928   1.591   3.749
  969TIP3    H1 2871   2.006   1.549   3.713
  969TIP3    H2 2872   1.879   1.621   3.673
  970TIP3   OH2 2873   5.296   4.404   3.461
  970TIP3    H1 2874   5.254   4.451   3.533
  970TIP3    H2 2875   5.351   4.470   3.419
  971TIP3   OH2 2876   2.094   1.609   1.216
  971TIP3    H1 2877   2.143   1.685   1.186
  971TIP3    H2 2878   2.069   1.563   1.136
  972TIP3   OH2 2879   1.951   1.507   5.142
  972TIP3    H1 2880   2.028   1.500   5.199
  972TIP3    H2 2881   1.986   1.504   5.053
  973TIP3   OH2 2882   4.594   2.416   1.834
  973TIP3    H1 2883   4.585   2.375   1.920
  973TIP3    H2 2884   4.684   2.449   1.833
  974TIP3   OH2 2885   3.826   2.348   5.075
  974TIP3    H1 2886   3.761   2.308   5.134
  974TIP3    H2 2887   3.775   2.410   5.022
  975TIP3   OH2 2888   5.877   4.274   1.999
  975TIP3    H1 2889   5.921   4.352   1.965
  975TIP3    H2 2890   5.861   4.294   2.091
  976TIP3   OH2 2891   2.949   2.312   0.631
  976TIP3    H1 2892   3.044   2.319   0.645
  976TIP3    H2 2893   2.941   2.256   0.553
  977TIP3   OH2 2894   0.332   5.204   4.870
  977TIP3    H1 2895   0.286   5.149   4.806
  977TIP3    H2 2896   0.304   5.293   4.849
  978TIP3   OH2 2897   4.898   4.709   0.694
  978TIP3    H1 2898   4.945   4.778   0.739
  978TIP3    H2 2899   4.821   4.752   0.657
  979TIP3   OH2 2900   4.247   4.901   2.578
  979TIP3    H1 2901   4.235   4.855   2.495
  979TIP3    H2 2902   4.332   4.945   2.570
  980TIP3   OH2 2903   0.791   5.794   2.993
  980TIP3    H1 2904   0.714   5.833   3.034
  980TIP3    H2 2905   0.838   5.752   3.066
  981TIP3   OH2 2906   4.156   1.908   5.391
  981TIP3    H1 2907   4.152   1.883   5.484
  981TIP3    H2 2908   4.186   1.830   5.346
  982TIP3   OH2 2909   7.119   6.734   0.289
  982TIP3    H1 2910   7.109   6.816   0.241
  982TIP3    H2 2911   7.186   6.753   0.355
  983TIP3   OH2 2912   5.833   5.693   2.515
  983TIP3    H1 2913   5.844   5.661   2.604
  983TIP3    H2 2914   5.887   5.772   2.510
  984TIP3   OH2 2915   3.335   4.265   2.842
  984TIP3    H1 2916   3.305   4.294   2.756
  984TIP3    H2 2917   3.262   4.213   2.877
  985TIP3   OH2 2918   6.707   6.070   4.788
  985TIP3    H1 2919   6.787   6.118   4.768
  985TIP3    H2 2920   6.717   5.987   4.742
  986TIP3   OH2 2921   4.464   4.022   0.487
  986TIP3    H1 2922   4.427   4.107   0.508
  986TIP3    H2 2923   4.389   3.965   0.472
  987TIP3   OH2 2924   1.652   6.434   1.393
  987TIP3    H1 2925   1.736   6.389   1.387
  987TIP3    H2 2926   1.590   6.365   1.417
  988TIP3   OH2 2927   5.166   3.273   3.909
  988TIP3    H1 2928   5.170   3.347   3.970
  988TIP3    H2 2929   5.258   3.249   3.895
  989TIP3   OH2 2930   5.641   5.314   2.964
  989TIP3    H1 2931   5.575   5.377   2.995
  989TIP3    H2 2932   5.602   5.229   2.984
  990TIP3   OH2 2933   3.469   6.154   2.757
  990TIP3    H1 2934   3.482   6.173   2.664
  990TIP3    H2 2935   3.428   6.233   2.791
  991TIP3   OH2 2936   3.873   6.707   0.926
  991TIP3    H1 2937   3.912   6.664   1.003
  991TIP3    H2 2938   3.782   6.720   0.949
  992TIP3   OH2 2939   7.010   5.658   5.463
  992TIP3    H1 2940   7.095   5.670   5.421
  992TIP3    H2 2941   6.960   5.735   5.439
  993TIP3   OH2 2942   2.298   2.478   3.558
  993TIP3    H1 2943   2.234   2.493   3.628
  993TIP3    H2 2944   2.378   2.520   3.590
  994TIP3   OH2 2945   4.776   2.947   0.406
  994TIP3    H1 2946   4.750   3.038   0.422
  994TIP3    H2 2947   4.693   2.900   0.399
  995TIP3   OH2 2948   1.115   1.202   3.742
  995TIP3    H1 2949   1.194   1.256   3.746
  995TIP3    H2 2950   1.132   1.140   3.670
  996TIP3   OH2 2951   2.825   4.479   1.211
  996TIP3    H1 2952   2.878   4.490   1.290
  996TIP3    H2 2953   2.806   4.386   1.207
  997TIP3   OH2 2954   6.203   6.280   4.243
  997TIP3    H1 2955   6.144   6.286   4.168
  997TIP3    H2 2956   6.291   6.279   4.205
  998TIP3   OH2 2957   1.513   0.202   0.695
  998TIP3    H1 2958   1.508   0.295   0.672
  998TIP3    H2 2959   1.552   0.161   0.619
  999TIP3   OH2 2960   2.282   5.932   2.879
  999TIP3    H1 2961   2.346   5.937   2.808
  999TIP3    H2 2962   2.274   6.022   2.910
 1000TIP3   OH2 2963   3.395   3.570   1.993
 1000TIP3    H1 2964   3.318   3.513   1.990
 1000TIP3    H2 2965   3.362   3.657   1.972
 1001TIP3   OH2 2966   3.333   0.125   5.022
 1001TIP3    H1 2967   3.367   0.204   4.978
 1001TIP3    H2 2968   3.404   0.099   5.081
 1002TIP3   OH2 2969   6.121   6.763   5.634
 1002TIP3    H1 2970   6.070   6.790   5.710
 1002TIP3    H2 2971   6.206   6.737   5.670
 1003TIP3   OH2 2972   5.397   2.602   1.158
 1003TIP3    H1 2973   5.391   2.642   1.244
 1003TIP3    H2 2974   5.431   2.514   1.175
 1004TIP3   OH2 2975   4.425   0.731   4.967
 1004TIP3    H1 2976   4.362   0.665   4.937
 1004TIP3    H2 2977   4.481   0.746   4.891
 1005TIP3   OH2 2978   5.523   4.364   1.352
 1005TIP3    H1 2979   5.506   4.456   1.331
 1005TIP3    H2 2980   5.482   4.315   1.281
 1006TIP3   OH2 2981   5.449   5.192   5.710
 1006TIP3    H1 2982   5.382   5.167   5.774
 1006TIP3    H2 2983   5.528   5.146   5.738
 1007TIP3   OH2 2984   6.472   0.144   2.661
 1007TIP3    H1 2985   6.504   0.218   2.609
 1007TIP3    H2 2986   6.379   0.138   2.639
 1008TIP3   OH2 2987   6.127   2.238   5.624
 1008TIP3    H1 2988   6.207   2.288   5.609
 1008TIP3    H2 2989   6.121   2.228   5.719
 1009TIP3   OH2 2990   6.123   4.388   5.394
 1009TIP3    H1 2991   6.188   4.455   5.373
 1009TIP3    H2 2992   6.059   4.433   5.450
 1010TIP3   OH2 2993   6.469   5.904   3.554
 1010TIP3    H1 2994   6.457   5.813   3.526
 1010TIP3    H2 2995   6.444   5.956   3.477
 1011TIP3   OH2 2996   4.193   0.592   5.507
 1011TIP3    H1 2997   4.166   0.538   5.581
 1011TIP3    H2 2998   4.222   0.529   5.441
 1012TIP3   OH2 2999   4.090   5.621   3.212
 1012TIP3    H1 3000   4.182   5.607   3.234
 1012TIP3    H2 3001   4.092   5.650   3.120
 1013TIP3   OH2 3002   5.712   4.829   5.393
 1013TIP3    H1 3003   5.772   4.893   5.432
 1013TIP3    H2 3004   5.715   4.754   5.452
 1014TIP3   OH2 3005   3.823   5.935   5.696
 1014TIP3    H1 3006   3.829   5.843   5.724
 1014TIP3    H2 3007   3.914   5.963   5.688
 1015TIP3   OH2 3008   5.755   4.762   2.585
 1015TIP3    H1 3009   5.676   4.793   2.542
 1015TIP3    H2 3010   5.827   4.794   2.531
 1016TIP3   OH2 3011   0.811   6.666   1.226
 1016TIP3    H1 3012   0.876   6.697   1.289
 1016TIP3    H2 3013   0.861   6.609   1.167
 1017TIP3   OH2 3014   5.121   0.192   1.999
 1017TIP3    H1 3015   5.032   0.228   1.993
 1017TIP3    H2 3016   5.142   0.164   1.910
 1018TIP3   OH2 3017   3.387   5.444   1.854
 1018TIP3    H1 3018   3.346   5.375   1.801
 1018TIP3    H2 3019   3.313   5.487   1.898
 1019TIP3   OH2 3020   0.707   5.135   1.273
 1019TIP3    H1 3021   0.623   5.123   1.318
 1019TIP3    H2 3022   0.769   5.152   1.344
 1020TIP3   OH2 3023   6.184   4.861   1.942
 1020TIP3    H1 3024   6.242   4.809   1.997
 1020TIP3    H2 3025   6.235   4.878   1.863
 1021TIP3   OH2 3026   5.991   2.508   1.077
 1021TIP3    H1 3027   5.896   2.520   1.071
 1021TIP3    H2 3028   6.027   2.562   1.008
 1022TIP3   OH2 3029   2.705   6.345   3.385
 1022TIP3    H1 3030   2.621   6.319   3.422
 1022TIP3    H2 3031   2.770   6.297   3.437
 1023TIP3   OH2 3032   1.773   4.135   5.146
 1023TIP3    H1 3033   1.776   4.230   5.133
 1023TIP3    H2 3034   1.864   4.107   5.140
 1024TIP3   OH2 3035   4.178   1.362   3.278
 1024TIP3    H1 3036   4.217   1.297   3.336
 1024TIP3    H2 3037   4.251   1.419   3.253
 1025TIP3   OH2 3038   2.538   6.182   3.515
 1025TIP3    H1 3039   2.513   6.161   3.425
 1025TIP3    H2 3040   2.483   6.126   3.569
 1026TIP3   OH2 3041   4.042   3.607   1.104
 1026TIP3    H1 3042   4.132   3.601   1.074
 1026TIP3    H2 3043   4.016   3.516   1.121
 1027TIP3   OH2 3044   0.393   4.876   1.520
 1027TIP3    H1 3045   0.475   4.835   1.492
 1027TIP3    H2 3046   0.371   4.833   1.602
 1028TIP3   OH2 3047   2.924   3.574   3.602
 1028TIP3    H1 3048   2.891   3.625   3.676
 1028TIP3    H2 3049   2.946   3.640   3.536
 1029TIP3   OH2 3050   1.096   0.091   4.589
 1029TIP3    H1 3051   1.033   0.151   4.628
 1029TIP3    H2 3052   1.109   0.124   4.500
 1030TIP3   OH2 3053   1.714   1.953   3.734
 1030TIP3    H1 3054   1.756   2.002   3.662
 1030TIP3    H2 3055   1.786   1.906   3.776
 1031TIP3   OH2 3056   3.642   1.624   3.341
 1031TIP3    H1 3057   3.699   1.554   3.373
 1031TIP3    H2 3058   3.631   1.682   3.417
 1032TIP3   OH2 3059   3.195   2.227   1.886
 1032TIP3    H1 3060   3.250   2.205   1.810
 1032TIP3    H2 3061   3.116   2.264   1.848
 1033TIP3   OH2 3062   0.297   3.882   4.606
 1033TIP3    H1 3063   0.344   3.892   4.523
 1033TIP3    H2 3064   0.262   3.970   4.624
 1034TIP3   OH2 3065   5.624   5.873   0.066
 1034TIP3    H1 3066   5.648   5.957   0.027
 1034TIP3    H2 3067   5.529   5.876   0.073
 1035TIP3   OH2 3068   5.015   0.712   1.890
 1035TIP3    H1 3069   5.013   0.701   1.986
 1035TIP3    H2 3070   5.028   0.806   1.877
 1036TIP3   OH2 3071   1.100   2.773   5.429
 1036TIP3    H1 3072   1.080   2.773   5.523
 1036TIP3    H2 3073   1.196   2.771   5.425
 1037TIP3   OH2 3074   7.211   3.030   0.537
 1037TIP3    H1 3075   7.145   2.964   0.558
 1037TIP3    H2 3076   7.176   3.111   0.574
 1038TIP3   OH2 3077   3.382   4.931   3.017
 1038TIP3    H1 3078   3.338   5.009   2.984
 1038TIP3    H2 3079   3.447   4.964   3.078
 1039TIP3   OH2 3080   4.612   2.397   0.599
 1039TIP3    H1 3081   4.555   2.469   0.571
 1039TIP3    H2 3082   4.592   2.326   0.538
 1040TIP3   OH2 3083   6.576   1.179   1.192
 1040TIP3    H1 3084   6.615   1.121   1.257
 1040TIP3    H2 3085   6.547   1.121   1.122
 1041TIP3   OH2 3086   1.944   5.637   5.045
 1041TIP3    H1 3087   1.968   5.561   5.099
 1041TIP3    H2 3088   2.019   5.647   4.985
 1042TIP3   OH2 3089   5.697   0.069   4.930
 1042TIP3    H1 3090   5.780   0.023   4.929
 1042TIP3    H2 3091   5.648   0.031   5.004
 1043TIP3   OH2 3092   2.413   4.650   2.583
 1043TIP3    H1 3093   2.391   4.614   2.497
 1043TIP3    H2 3094   2.483   4.713   2.565
 1044TIP3   OH2 3095   4.076   6.520   5.055
 1044TIP3    H1 3096   4.126   6.588   5.009
 1044TIP3    H2 3097   4.106   6.526   5.146
 1045TIP3   OH2 3098   5.053   0.306   3.625
 1045TIP3    H1 3099   5.135   0.264   3.599
 1045TIP3    H2 3100   5.039   0.373   3.557
 1046TIP3   OH2 3101   1.877   6.050   4.633
 1046TIP3    H1 3102   1.918   6.131   4.664
 1046TIP3    H2 3103   1.817   6.079   4.564
 1047TIP3   OH2 3104   0.652   2.891   2.515
 1047TIP3    H1 3105   0.708   2.963   2.542
 1047TIP3    H2 3106   0.634   2.843   2.596
 1048TIP3   OH2 3107   5.776   2.198   3.288
 1048TIP3    H1 3108   5.794   2.277   3.339
 1048TIP3    H2 3109   5.681   2.195   3.280
 1049TIP3   OH2 3110   2.015   3.594   3.790
 1049TIP3    H1 3111   1.968   3.532   3.846
 1049TIP3    H2 3112   1.953   3.664   3.772
 1050TIP3   OH2 3113   2.809   1.276   1.978
 1050TIP3    H1 3114   2.716   1.284   1.999
 1050TIP3    H2 3115   2.813   1.203   1.917
 1051TIP3   OH2 3116   1.466   0.537   5.416
 1051TIP3    H1 3117   1.494   0.573   5.501
 1051TIP3    H2 3118   1.541   0.486   5.386
 1052TIP3   OH2 3119   5.009   3.531   3.920
 1052TIP3    H1 3120   4.992   3.440   3.943
 1052TIP3    H2 3121   4.956   3.582   3.980
 1053TIP3   OH2 3122   5.538   1.160   4.962
 1053TIP3    H1 3123   5.496   1.205   5.036
 1053TIP3    H2 3124   5.590   1.091   5.003
 1054TIP3   OH2 3125   5.348   5.464   0.441
 1054TIP3    H1 3126   5.256   5.455   0.465
 1054TIP3    H2 3127   5.363   5.558   0.435
 1055TIP3   OH2 3128   2.168   2.177   5.608
 1055TIP3    H1 3129   2.181   2.083   5.621
 1055TIP3    H2 3130   2.239   2.202   5.548
 1056TIP3   OH2 3131   3.500   0.965   3.687
 1056TIP3    H1 3132   3.586   1.003   3.702
 1056TIP3    H2 3133   3.494   0.955   3.592
 1057TIP3   OH2 3134   3.825   4.682   4.576
 1057TIP3    H1 3135   3.873   4.681   4.493
 1057TIP3    H2 3136   3.893   4.671   4.643
 1058TIP3   OH2 3137   6.367   0.470   1.093
 1058TIP3    H1 3138   6.323   0.456   1.010
 1058TIP3    H2 3139   6.434   0.536   1.074
 1059TIP3   OH2 3140   5.825   6.744   1.716
 1059TIP3    H1 3141   5.902   6.726   1.661
 1059TIP3    H2 3142   5.752   6.704   1.668
 1060TIP3   OH2 3143   2.970   5.359   2.849
 1060TIP3    H1 3144   3.007   5.442   2.819
 1060TIP3    H2 3145   2.877   5.365   2.827
 1061TIP3   OH2 3146   0.909   0.643   2.551
 1061TIP3    H1 3147   0.910   0.724   2.601
 1061TIP3    H2 3148   0.862   0.581   2.606
 1062TIP3   OH2 3149   4.079   4.001   1.106
 1062TIP3    H1 3150   4.061   3.937   1.038
 1062TIP3    H2 3151   4.156   3.966   1.152
 1063TIP3   OH2 3152   1.401   5.178   3.249
 1063TIP3    H1 3153   1.437   5.199   3.163
 1063TIP3    H2 3154   1.473   5.133   3.295
 1064TIP3   OH2 3155   3.063   2.299   0.279
 1064TIP3    H1 3156   3.154   2.270   0.276
 1064TIP3    H2 3157   3.067   2.393   0.259
 1065TIP3   OH2 3158   0.901   2.267   4.221
 1065TIP3    H1 3159   0.884   2.216   4.141
 1065TIP3    H2 3160   0.833   2.334   4.221
 1066TIP3   OH2 3161   2.396   5.922   0.838
 1066TIP3    H1 3162   2.459   5.930   0.909
 1066TIP3    H2 3163   2.433   5.853   0.782
 1067TIP3   OH2 3164   6.689   2.508   0.860
 1067TIP3    H1 3165   6.713   2.530   0.770
 1067TIP3    H2 3166   6.717   2.417   0.871
 1068TIP3   OH2 3167   1.068   4.961   0.506
 1068TIP3    H1 3168   1.120   4.884   0.530
 1068TIP3    H2 3169   0.978   4.930   0.500
 1069TIP3   OH2 3170   4.236   5.260   3.364
 1069TIP3    H1 3171   4.233   5.292   3.274
 1069TIP3    H2 3172   4.300   5.190   3.363
 1070TIP3   OH2 3173   3.756   1.633   0.700
 1070TIP3    H1 3174   3.790   1.544   0.692
 1070TIP3    H2 3175   3.811   1.674   0.767
 1071TIP3   OH2 3176   4.110   6.270   5.880
 1071TIP3    H1 3177   4.140   6.185   5.847
 1071TIP3    H2 3178   4.074   6.314   5.803
 1072TIP3   OH2 3179   5.494   4.375  -0.036
 1072TIP3    H1 3180   5.458   4.442   0.022
 1072TIP3    H2 3181   5.555   4.326   0.019
 1073TIP3   OH2 3182   1.756   4.616   4.829
 1073TIP3    H1 3183   1.730   4.647   4.742
 1073TIP3    H2 3184   1.718   4.528   4.836
 1074TIP3   OH2 3185   6.176   5.415   1.237
 1074TIP3    H1 3186   6.177   5.506   1.208
 1074TIP3    H2 3187   6.268   5.388   1.234
 1075TIP3   OH2 3188   6.808   3.278   4.998
 1075TIP3    H1 3189   6.717   3.255   5.019
 1075TIP3    H2 3190   6.815   3.370   5.024
 1076TIP3   OH2 3191   6.189   2.209   4.024
 1076TIP3    H1 3192   6.162   2.150   3.954
 1076TIP3    H2 3193   6.281   2.186   4.041
 1077TIP3   OH2 3194   4.916   2.525   5.230
 1077TIP3    H1 3195   4.846   2.482   5.182
 1077TIP3    H2 3196   4.898   2.618   5.221
 1078TIP3   OH2 3197   4.932   5.153   5.615
 1078TIP3    H1 3198   4.992   5.078   5.614
 1078TIP3    H2 3199   4.978   5.219   5.667
 1079TIP3   OH2 3200   5.046   6.343   0.289
 1079TIP3    H1 3201   4.973   6.289   0.317
 1079TIP3    H2 3202   5.026   6.431   0.322
 1080TIP3   OH2 3203   4.892   1.768   1.459
 1080TIP3    H1 3204   4.808   1.745   1.498
 1080TIP3    H2 3205   4.870   1.810   1.376
 1081TIP3   OH2 3206   0.054   6.297   1.952
 1081TIP3    H1 3207   0.040   6.390   1.968
 1081TIP3    H2 3208   0.050   6.289   1.856
 1082TIP3   OH2 3209   1.247   6.739   0.949
 1082TIP3    H1 3210   1.266   6.664   1.005
 1082TIP3    H2 3211   1.180   6.708   0.888
 1083TIP3   OH2 3212   3.456   1.875   1.865
 1083TIP3    H1 3213   3.498   1.791   1.850
 1083TIP3    H2 3214   3.525   1.940   1.849
 1084TIP3   OH2 3215   4.038   3.010   0.417
 1084TIP3    H1 3216   4.097   3.058   0.474
 1084TIP3    H2 3217   4.093   2.945   0.374
 1085TIP3   OH2 3218   2.352   2.197   3.599
 1085TIP3    H1 3219   2.404   2.254   3.542
 1085TIP3    H2 3220   2.341   2.248   3.679
 1086TIP3   OH2 3221   6.256   6.428   3.032
 1086TIP3    H1 3222   6.327   6.451   2.971
 1086TIP3    H2 3223   6.299   6.422   3.117
 1087TIP3   OH2 3224   6.854   2.447   1.166
 1087TIP3    H1 3225   6.885   2.368   1.211
 1087TIP3    H2 3226   6.758   2.437   1.164
 1088TIP3   OH2 3227   1.404   6.466   0.575
 1088TIP3    H1 3228   1.416   6.458   0.669
 1088TIP3    H2 3229   1.461   6.398   0.538
 1089TIP3   OH2 3230   2.047   0.978   0.172
 1089TIP3    H1 3231   2.053   1.064   0.215
 1089TIP3    H2 3232   2.034   0.916   0.244
 1090TIP3   OH2 3233   6.723   5.127   5.177
 1090TIP3    H1 3234   6.806   5.173   5.179
 1090TIP3    H2 3235   6.670   5.169   5.246
 1091TIP3   OH2 3236   0.144   2.677   1.139
 1091TIP3    H1 3237   0.067   2.733   1.132
 1091TIP3    H2 3238   0.113   2.598   1.184
 1092TIP3   OH2 3239   1.904   1.722   4.755
 1092TIP3    H1 3240   1.977   1.670   4.790
 1092TIP3    H2 3241   1.834   1.658   4.740
 1093TIP3   OH2 3242   3.963   3.755   3.443
 1093TIP3    H1 3243   4.019   3.717   3.376
 1093TIP3    H2 3244   3.875   3.721   3.424
 1094TIP3   OH2 3245   0.809   4.757   4.716
 1094TIP3    H1 3246   0.736   4.708   4.754
 1094TIP3    H2 3247   0.886   4.729   4.767
 1095TIP3   OH2 3248   4.135   0.992   1.123
 1095TIP3    H1 3249   4.222   0.989   1.085
 1095TIP3    H2 3250   4.087   0.921   1.079
 1096TIP3   OH2 3251   5.739   4.083   1.180
 1096TIP3    H1 3252   5.798   4.119   1.113
 1096TIP3    H2 3253   5.676   4.030   1.130
 1097TIP3   OH2 3254   2.333   1.575   5.594
 1097TIP3    H1 3255   2.358   1.653   5.546
 1097TIP3    H2 3256   2.376   1.584   5.680
 1098TIP3   OH2 3257   1.844   0.480   0.845
 1098TIP3    H1 3258   1.793   0.519   0.916
 1098TIP3    H2 3259   1.829   0.386   0.854
 1099TIP3   OH2 3260   4.976   1.791   2.445
 1099TIP3    H1 3261   5.034   1.774   2.370
 1099TIP3    H2 3262   4.928   1.709   2.456
 1100TIP3   OH2 3263   6.999   4.732   0.118
 1100TIP3    H1 3264   7.040   4.761   0.037
 1100TIP3    H2 3265   7.060   4.669   0.155
 1101TIP3   OH2 3266   5.746   1.515   3.495
 1101TIP3    H1 3267   5.672   1.464   3.460
 1101TIP3    H2 3268   5.823   1.479   3.450
 1102TIP3   OH2 3269   0.599   4.990   2.797
 1102TIP3    H1 3270   0.684   4.963   2.832
 1102TIP3    H2 3271   0.537   4.973   2.867
 1103TIP3   OH2 3272   3.579   3.654   1.739
 1103TIP3    H1 3273   3.542   3.578   1.696
 1103TIP3    H2 3274   3.630   3.698   1.671
 1104TIP3   OH2 3275   2.377   4.190   3.111
 1104TIP3    H1 3276   2.287   4.222   3.115
 1104TIP3    H2 3277   2.401   4.198   3.018
 1105TIP3   OH2 3278   4.082   5.056   3.647
 1105TIP3    H1 3279   4.044   5.026   3.564
 1105TIP3    H2 3280   4.028   5.013   3.714
 1106TIP3   OH2 3281   3.909   5.543   5.514
 1106TIP3    H1 3282   3.986   5.561   5.461
 1106TIP3    H2 3283   3.837   5.535   5.452
 1107TIP3   OH2 3284   6.802   4.942   1.745
 1107TIP3    H1 3285   6.763   4.857   1.762
 1107TIP3    H2 3286   6.826   4.939   1.652
 1108TIP3   OH2 3287   1.732   1.078   1.905
 1108TIP3    H1 3288   1.746   1.121   1.989
 1108TIP3    H2 3289   1.656   1.121   1.867
 1109TIP3   OH2 3290   0.813   1.603   4.800
 1109TIP3    H1 3291   0.890   1.642   4.843
 1109TIP3    H2 3292   0.826   1.509   4.809
 1110TIP3   OH2 3293   5.503   2.162   0.447
 1110TIP3    H1 3294   5.579   2.162   0.506
 1110TIP3    H2 3295   5.540   2.180   0.360
 1111TIP3   OH2 3296   2.885   6.223   1.706
 1111TIP3    H1 3297   2.981   6.230   1.713
 1111TIP3    H2 3298   2.862   6.151   1.765
 1112TIP3   OH2 3299   5.646   0.068   3.752
 1112TIP3    H1 3300   5.687   0.065   3.839
 1112TIP3    H2 3301   5.552   0.067   3.769
 1113TIP3   OH2 3302   1.039   1.258   5.038
 1113TIP3    H1 3303   1.089   1.225   4.963
 1113TIP3    H2 3304   0.951   1.271   5.003
 1114TIP3   OH2 3305   3.855   6.357   0.998
 1114TIP3    H1 3306   3.766   6.385   0.977
 1114TIP3    H2 3307   3.860   6.361   1.093
 1115TIP3   OH2 3308   4.388   4.459   1.959
 1115TIP3    H1 3309   4.308   4.510   1.974
 1115TIP3    H2 3310   4.371   4.375   2.001
 1116TIP3   OH2 3311   7.010   4.764   0.563
 1116TIP3    H1 3312   6.951   4.838   0.577
 1116TIP3    H2 3313   6.977   4.722   0.483
 1117TIP3   OH2 3314   1.652   4.992   3.267
 1117TIP3    H1 3315   1.618   4.953   3.348
 1117TIP3    H2 3316   1.736   4.947   3.253
 1118TIP3   OH2 3317   3.484   2.949   4.275
 1118TIP3    H1 3318   3.473   2.914   4.187
 1118TIP3    H2 3319   3.404   2.922   4.321
 1119TIP3   OH2 3320   5.435   4.384   0.742
 1119TIP3    H1 3321   5.476   4.384   0.656
 1119TIP3    H2 3322   5.365   4.449   0.735
 1120TIP3   OH2 3323   7.118   0.103   5.837
 1120TIP3    H1 3324   7.161   0.137   5.758
 1120TIP3    H2 3325   7.082   0.018   5.810
 1121TIP3   OH2 3326   0.455   5.315   4.318
 1121TIP3    H1 3327   0.387   5.345   4.258
 1121TIP3    H2 3328   0.528   5.290   4.262
 1122TIP3   OH2 3329   2.457   5.200   0.022
 1122TIP3    H1 3330   2.460   5.231   0.112
 1122TIP3    H2 3331   2.439   5.278  -0.030
 1123TIP3   OH2 3332   1.814   5.527   1.588
 1123TIP3    H1 3333   1.729   5.552   1.551
 1123TIP3    H2 3334   1.816   5.569   1.674
 1124TIP3   OH2 3335   5.598   4.165   5.858
 1124TIP3    H1 3336   5.558   4.218   5.789
 1124TIP3    H2 3337   5.685   4.143   5.824
 1125TIP3   OH2 3338   2.729   5.551   1.668
 1125TIP3    H1 3339   2.739   5.622   1.732
 1125TIP3    H2 3340   2.677   5.485   1.713
 1126TIP3   OH2 3341   2.727   6.276   5.877
 1126TIP3    H1 3342   2.815   6.258   5.911
 1126TIP3    H2 3343   2.736   6.269   5.782
 1127TIP3   OH2 3344   6.019   1.637   2.218
 1127TIP3    H1 3345   5.968   1.557   2.208
 1127TIP3    H2 3346   5.957   1.707   2.201
 1128TIP3   OH2 3347   3.555   5.000   0.642
 1128TIP3    H1 3348   3.623   5.006   0.708
 1128TIP3    H2 3349   3.583   4.928   0.585
 1129TIP3   OH2 3350   5.411   5.722   0.432
 1129TIP3    H1 3351   5.345   5.790   0.441
 1129TIP3    H2 3352   5.493   5.770   0.420
 1130TIP3   OH2 3353   0.160   3.185   3.094
 1130TIP3    H1 3354   0.069   3.161   3.116
 1130TIP3    H2 3355   0.211   3.156   3.170
 1131TIP3   OH2 3356   0.494   0.383   2.576
 1131TIP3    H1 3357   0.417   0.429   2.543
 1131TIP3    H2 3358   0.547   0.365   2.498
 1132TIP3   OH2 3359   4.316   0.231   0.829
 1132TIP3    H1 3360   4.297   0.266   0.742
 1132TIP3    H2 3361   4.343   0.141   0.813
 1133TIP3   OH2 3362   3.035   2.925   5.108
 1133TIP3    H1 3363   3.055   2.975   5.187
 1133TIP3    H2 3364   3.120   2.894   5.077
 1134TIP3   OH2 3365   3.699   6.502   0.403
 1134TIP3    H1 3366   3.718   6.426   0.459
 1134TIP3    H2 3367   3.607   6.522   0.422
 1135TIP3   OH2 3368   6.811   0.477   4.014
 1135TIP3    H1 3369   6.838   0.501   4.103
 1135TIP3    H2 3370   6.720   0.506   4.007
 1136TIP3   OH2 3371   5.707   2.399   0.485
 1136TIP3    H1 3372   5.745   2.376   0.400
 1136TIP3    H2 3373   5.718   2.320   0.538
 1137TIP3   OH2 3374   0.639   5.192   1.927
 1137TIP3    H1 3375   0.690   5.233   1.996
 1137TIP3    H2 3376   0.561   5.159   1.971
 1138TIP3   OH2 3377   0.586   1.855   2.784
 1138TIP3    H1 3378   0.602   1.945   2.755
 1138TIP3    H2 3379   0.493   1.854   2.805
 1139TIP3   OH2 3380   6.472   2.093   1.223
 1139TIP3    H1 3381   6.473   2.025   1.289
 1139TIP3    H2 3382   6.436   2.051   1.145
 1140TIP3   OH2 3383   1.170   1.556   0.752
 1140TIP3    H1 3384   1.241   1.610   0.788
 1140TIP3    H2 3385   1.118   1.532   0.829
 1141TIP3   OH2 3386   0.115   3.844   2.935
 1141TIP3    H1 3387   0.207   3.858   2.957
 1141TIP3    H2 3388   0.105   3.749   2.930
 1142TIP3   OH2 3389   3.828   5.529   3.236
 1142TIP3    H1 3390   3.845   5.450   3.186
 1142TIP3    H2 3391   3.914   5.567   3.252
 1143TIP3   OH2 3392   4.673   0.059   0.206
 1143TIP3    H1 3393   4.590   0.017   0.226
 1143TIP3    H2 3394   4.715   0.001   0.142
 1144TIP3   OH2 3395   0.369   4.254   3.612
 1144TIP3    H1 3396   0.414   4.338   3.603
 1144TIP3    H2 3397   0.281   4.276   3.641
 1145TIP3   OH2 3398   2.694   6.031   2.255
 1145TIP3    H1 3399   2.741   5.948   2.251
 1145TIP3    H2 3400   2.759   6.094   2.286
 1146TIP3   OH2 3401   2.409   5.070   1.714
 1146TIP3    H1 3402   2.387   5.163   1.714
 1146TIP3    H2 3403   2.428   5.050   1.805
 1147TIP3   OH2 3404   0.196   1.971   1.662
 1147TIP3    H1 3405   0.178   1.908   1.592
 1147TIP3    H2 3406   0.132   1.950   1.730
 1148TIP3   OH2 3407   2.236   3.962   4.762
 1148TIP3    H1 3408   2.230   3.964   4.667
 1148TIP3    H2 3409   2.251   3.871   4.784
 1149TIP3   OH2 3410   5.314   3.997   3.806
 1149TIP3    H1 3411   5.340   4.026   3.893
 1149TIP3    H2 3412   5.226   3.961   3.818
 1150TIP3   OH2 3413   2.605   2.584   5.002
 1150TIP3    H1 3414   2.561   2.662   4.966
 1150TIP3    H2 3415   2.539   2.542   5.056
 1151TIP3   OH2 3416   4.201   1.663   2.463
 1151TIP3    H1 3417   4.157   1.683   2.381
 1151TIP3    H2 3418   4.272   1.604   2.438
 1152TIP3   OH2 3419   2.183   4.095   2.576
 1152TIP3    H1 3420   2.225   4.044   2.506
 1152TIP3    H2 3421   2.231   4.178   2.578
 1153TIP3   OH2 3422   3.995   6.150   3.816
 1153TIP3    H1 3423   4.077   6.151   3.865
 1153TIP3    H2 3424   3.927   6.154   3.883
 1154TIP3   OH2 3425   5.349   0.523   3.828
 1154TIP3    H1 3426   5.412   0.487   3.765
 1154TIP3    H2 3427   5.283   0.455   3.839
 1155TIP3   OH2 3428   3.209   1.119   0.434
 1155TIP3    H1 3429   3.259   1.088   0.510
 1155TIP3    H2 3430   3.143   1.178   0.471
 1156TIP3   OH2 3431   3.932   0.309   3.403
 1156TIP3    H1 3432   4.008   0.341   3.354
 1156TIP3    H2 3433   3.861   0.309   3.339
 1157TIP3   OH2 3434   1.187   2.778   0.751
 1157TIP3    H1 3435   1.190   2.870   0.775
 1157TIP3    H2 3436   1.211   2.731   0.831
 1158TIP3   OH2 3437   3.413   0.051   3.271
 1158TIP3    H1 3438   3.329   0.092   3.253
 1158TIP3    H2 3439   3.392  -0.022   3.330
 1159TIP3   OH2 3440   4.490   2.938   4.766
 1159TIP3    H1 3441   4.487   2.995   4.842
 1159TIP3    H2 3442   4.465   2.852   4.799
 1160TIP3   OH2 3443   6.923   0.603   4.241
 1160TIP3    H1 3444   6.843   0.655   4.241
 1160TIP3    H2 3445   6.981   0.648   4.180
 1161TIP3   OH2 3446   5.559   5.068   0.248
 1161TIP3    H1 3447   5.488   5.008   0.225
 1161TIP3    H2 3448   5.517   5.133   0.304
 1162TIP3   OH2 3449   1.923   3.200   4.361
 1162TIP3    H1 3450   1.986   3.130   4.345
 1162TIP3    H2 3451   1.841   3.168   4.323
 1163TIP3   OH2 3452   3.000   5.916   5.499
 1163TIP3    H1 3453   2.914   5.892   5.532
 1163TIP3    H2 3454   2.983   5.973   5.424
 1164TIP3   OH2 3455   5.921   2.651   1.451
 1164TIP3    H1 3456   5.899   2.733   1.408
 1164TIP3    H2 3457   5.837   2.617   1.481
 1165TIP3   OH2 3458   6.080   0.812   1.099
 1165TIP3    H1 3459   6.124   0.730   1.123
 1165TIP3    H2 3460   6.093   0.820   1.005
 1166TIP3   OH2 3461   1.672   5.380   5.493
 1166TIP3    H1 3462   1.665   5.453   5.432
 1166TIP3    H2 3463   1.629   5.411   5.573
 1167TIP3   OH2 3464   0.609   5.907   2.203
 1167TIP3    H1 3465   0.646   5.956   2.276
 1167TIP3    H2 3466   0.634   5.816   2.219
 1168TIP3   OH2 3467   5.748   3.697   0.140
 1168TIP3    H1 3468   5.835   3.661   0.155
 1168TIP3    H2 3469   5.730   3.749   0.218
 1169TIP3   OH2 3470   7.021   4.328   0.904
 1169TIP3    H1 3471   7.006   4.421   0.920
 1169TIP3    H2 3472   7.083   4.326   0.832
 1170TIP3   OH2 3473   4.130   1.776   1.818
 1170TIP3    H1 3474   4.035   1.785   1.813
 1170TIP3    H2 3475   4.164   1.846   1.764
 1171TIP3   OH2 3476   1.970   0.756   1.142
 1171TIP3    H1 3477   2.054   0.771   1.098
 1171TIP3    H2 3478   1.979   0.670   1.182
 1172TIP3   OH2 3479   5.555   5.665   2.517
 1172TIP3    H1 3480   5.647   5.692   2.521
 1172TIP3    H2 3481   5.551   5.585   2.569
 1173TIP3   OH2 3482   6.600   5.207   4.258
 1173TIP3    H1 3483   6.559   5.123   4.279
 1173TIP3    H2 3484   6.678   5.184   4.207
 1174TIP3   OH2 3485   6.178   4.533   3.124
 1174TIP3    H1 3486   6.210   4.464   3.066
 1174TIP3    H2 3487   6.150   4.486   3.203
 1175TIP3   OH2 3488   2.685   5.368   5.251
 1175TIP3    H1 3489   2.635   5.303   5.300
 1175TIP3    H2 3490   2.774   5.332   5.247
 1176TIP3   OH2 3491   6.038   2.117   0.255
 1176TIP3    H1 3492   6.121   2.070   0.255
 1176TIP3    H2 3493   6.049   2.185   0.322
 1177TIP3   OH2 3494   1.296   3.341   1.510
 1177TIP3    H1 3495   1.249   3.416   1.474
 1177TIP3    H2 3496   1.341   3.302   1.436
 1178TIP3   OH2 3497   4.711   5.335   5.717
 1178TIP3    H1 3498   4.668   5.401   5.771
 1178TIP3    H2 3499   4.798   5.371   5.698
 1179TIP3   OH2 3500   4.093   2.935   3.607
 1179TIP3    H1 3501   4.040   2.929   3.528
 1179TIP3    H2 3502   4.155   3.006   3.589
 1180TIP3   OH2 3503   0.108   5.960   3.178
 1180TIP3    H1 3504   0.114   5.865   3.168
 1180TIP3    H2 3505   0.029   5.974   3.230
 1181TIP3   OH2 3506   4.252   3.896   4.347
 1181TIP3    H1 3507   4.278   3.894   4.439
 1181TIP3    H2 3508   4.288   3.979   4.314
 1182TIP3   OH2 3509   0.883   1.702   0.379
 1182TIP3    H1 3510   0.910   1.783   0.422
 1182TIP3    H2 3511   0.912   1.632   0.437
 1183TIP3   OH2 3512   5.551   3.391   2.887
 1183TIP3    H1 3513   5.633   3.409   2.841
 1183TIP3    H2 3514   5.517   3.477   2.910
 1184TIP3   OH2 3515   5.188   3.639   4.435
 1184TIP3    H1 3516   5.149   3.554   4.414
 1184TIP3    H2 3517   5.122   3.703   4.410
 1185TIP3   OH2 3518   0.511   5.124   2.577
 1185TIP3    H1 3519   0.556   5.124   2.492
 1185TIP3    H2 3520   0.570   5.075   2.635
 1186TIP3   OH2 3521   2.758   5.606   5.361
 1186TIP3    H1 3522   2.731   5.526   5.317
 1186TIP3    H2 3523   2.785   5.578   5.449
 1187TIP3   OH2 3524   2.798   4.043   2.550
 1187TIP3    H1 3525   2.734   4.082   2.609
 1187TIP3    H2 3526   2.760   3.959   2.525
 1188TIP3   OH2 3527   1.727   4.583   1.991
 1188TIP3    H1 3528   1.730   4.554   2.082
 1188TIP3    H2 3529   1.794   4.651   1.985
 1189TIP3   OH2 3530   1.750   1.149   1.180
 1189TIP3    H1 3531   1.734   1.080   1.116
 1189TIP3    H2 3532   1.744   1.230   1.129
 1190TIP3   OH2 3533   5.749   3.200   2.287
 1190TIP3    H1 3534   5.750   3.136   2.217
 1190TIP3    H2 3535   5.768   3.284   2.245
 1191TIP3   OH2 3536   3.179   3.053   2.901
 1191TIP3    H1 3537   3.161   3.031   2.992
 1191TIP3    H2 3538   3.264   3.098   2.904
 1192TIP3   OH2 3539   4.202   1.685   2.066
 1192TIP3    H1 3540   4.288   1.645   2.073
 1192TIP3    H2 3541   4.202   1.727   1.980
 1193TIP3   OH2 3542   2.580   6.526   5.635
 1193TIP3    H1 3543   2.485   6.526   5.650
 1193TIP3    H2 3544   2.616   6.567   5.714
 1194TIP3   OH2 3545   2.520  -0.027   0.436
 1194TIP3    H1 3546   2.504   0.052   0.488
 1194TIP3    H2 3547   2.573   0.003   0.363
 1195TIP3   OH2 3548   6.717   0.622   0.100
 1195TIP3    H1 3549   6.647   0.619   0.035
 1195TIP3    H2 3550   6.770   0.698   0.076
 1196TIP3   OH2 3551   6.554   1.562   1.366
 1196TIP3    H1 3552   6.509   1.512   1.298
 1196TIP3    H2 3553   6.483   1.596   1.421
 1197TIP3   OH2 3554   4.281   4.013   5.332
 1197TIP3    H1 3555   4.298   4.081   5.267
 1197TIP3    H2 3556   4.309   3.932   5.289
 1198TIP3   OH2 3557   0.088   1.303   0.660
 1198TIP3    H1 3558  -0.006   1.323   0.660
 1198TIP3    H2 3559   0.119   1.335   0.575
 1199TIP3   OH2 3560   6.177   0.678   5.321
 1199TIP3    H1 3561   6.112   0.745   5.341
 1199TIP3    H2 3562   6.176   0.670   5.225
 1200TIP3   OH2 3563   0.438   5.216   0.684
 1200TIP3    H1 3564   0.451   5.256   0.771
 1200TIP3    H2 3565   0.360   5.161   0.695
 1201TIP3   OH2 3566   1.451   2.880   2.405
 1201TIP3    H1 3567   1.525   2.820   2.400
 1201TIP3    H2 3568   1.374   2.826   2.388
 1202TIP3   OH2 3569   3.809   6.257   5.907
 1202TIP3    H1 3570   3.835   6.298   5.824
 1202TIP3    H2 3571   3.887   6.210   5.936
 1203TIP3   OH2 3572   1.654   6.762   2.250
 1203TIP3    H1 3573   1.620   6.840   2.292
 1203TIP3    H2 3574   1.695   6.793   2.169
 1204TIP3   OH2 3575   2.152   1.153   3.109
 1204TIP3    H1 3576   2.062   1.122   3.099
 1204TIP3    H2 3577   2.175   1.187   3.023
 1205TIP3   OH2 3578   5.470   2.339   1.173
 1205TIP3    H1 3579   5.393   2.326   1.228
 1205TIP3    H2 3580   5.488   2.253   1.136
 1206TIP3   OH2 3581   2.680   0.916   3.374
 1206TIP3    H1 3582   2.623   0.979   3.330
 1206TIP3    H2 3583   2.671   0.936   3.467
 1207TIP3   OH2 3584   2.860   1.807   1.856
 1207TIP3    H1 3585   2.860   1.715   1.830
 1207TIP3    H2 3586   2.933   1.845   1.807
 1208TIP3   OH2 3587   0.541   3.856   3.277
 1208TIP3    H1 3588   0.621   3.863   3.330
 1208TIP3    H2 3589   0.472   3.836   3.341
 1209TIP3   OH2 3590   5.520   5.387   4.685
 1209TIP3    H1 3591   5.605   5.423   4.709
 1209TIP3    H2 3592   5.463   5.409   4.758
 1210TIP3   OH2 3593   1.377   1.289   0.844
 1210TIP3    H1 3594   1.323   1.329   0.776
 1210TIP3    H2 3595   1.322   1.290   0.922
 1211TIP3   OH2 3596   6.207   5.383   0.537
 1211TIP3    H1 3597   6.207   5.422   0.450
 1211TIP3    H2 3598   6.182   5.455   0.596
 1212TIP3   OH2 3599   3.608   0.554   3.753
 1212TIP3    H1 3600   3.606   0.641   3.713
 1212TIP3    H2 3601   3.701   0.536   3.765
 1213TIP3   OH2 3602   3.916   5.807   1.661
 1213TIP3    H1 3603   3.870   5.777   1.582
 1213TIP3    H2 3604   3.909   5.733   1.722
 1214TIP3   OH2 3605   1.237   2.194   5.150
 1214TIP3    H1 3606   1.299   2.237   5.209
 1214TIP3    H2 3607   1.287   2.173   5.072
 1215TIP3   OH2 3608   4.496   6.243   3.041
 1215TIP3    H1 3609   4.539   6.283   2.965
 1215TIP3    H2 3610   4.412   6.211   3.007
 1216TIP3   OH2 3611   1.714   5.726   1.264
 1216TIP3    H1 3612   1.809   5.731   1.270
 1216TIP3    H2 3613   1.697   5.714   1.170
 1217TIP3   OH2 3614   1.058   0.265   1.183
 1217TIP3    H1 3615   1.142   0.261   1.136
 1217TIP3    H2 3616   1.060   0.350   1.227
 1218TIP3   OH2 3617   2.217   4.363   1.598
 1218TIP3    H1 3618   2.212   4.459   1.599
 1218TIP3    H2 3619   2.167   4.337   1.521
 1219TIP3   OH2 3620   3.951   0.150   4.692
 1219TIP3    H1 3621   3.864   0.188   4.708
 1219TIP3    H2 3622   3.943   0.059   4.719
 1220TIP3   OH2 3623   0.041   3.379   1.778
 1220TIP3    H1 3624   0.006   3.389   1.689
 1220TIP3    H2 3625  -0.001   3.450   1.828
 1221TIP3   OH2 3626   5.175   0.661   3.648
 1221TIP3    H1 3627   5.239   0.620   3.707
 1221TIP3    H2 3628   5.204   0.636   3.560
 1222TIP3   OH2 3629   3.031   1.112   0.814
 1222TIP3    H1 3630   3.013   1.019   0.828
 1222TIP3    H2 3631   2.950   1.147   0.776
 1223TIP3   OH2 3632   3.377   6.143   5.383
 1223TIP3    H1 3633   3.358   6.104   5.297
 1223TIP3    H2 3634   3.468   6.120   5.400
 1224TIP3   OH2 3635   0.336   5.762   0.384
 1224TIP3    H1 3636   0.260   5.712   0.414
 1224TIP3    H2 3637   0.305   5.809   0.307
 1225TIP3   OH2 3638   6.092   4.100   0.648
 1225TIP3    H1 3639   6.106   4.046   0.725
 1225TIP3    H2 3640   6.163   4.164   0.649
 1226TIP3   OH2 3641   6.312   2.067   2.117
 1226TIP3    H1 3642   6.270   1.981   2.116
 1226TIP3    H2 3643   6.279   2.109   2.196
 1227TIP3   OH2 3644   2.350   1.659   4.447
 1227TIP3    H1 3645   2.268   1.611   4.461
 1227TIP3    H2 3646   2.367   1.652   4.353
 1228TIP3   OH2 3647   0.058   6.337   3.705
 1228TIP3    H1 3648   0.058   6.431   3.685
 1228TIP3    H2 3649  -0.027   6.306   3.676
 1229TIP3   OH2 3650   3.740   0.221   0.707
 1229TIP3    H1 3651   3.716   0.197   0.617
 1229TIP3    H2 3652   3.679   0.292   0.730
 1230TIP3   OH2 3653   4.965   2.062   3.497
 1230TIP3    H1 3654   5.003   1.978   3.522
 1230TIP3    H2 3655   5.013   2.087   3.418
 1231TIP3   OH2 3656   6.550   1.210   2.210
 1231TIP3    H1 3657   6.520   1.142   2.148
 1231TIP3    H2 3658   6.646   1.202   2.209
 1232TIP3   OH2 3659   4.167   2.324   0.449
 1232TIP3    H1 3660   4.171   2.231   0.428
 1232TIP3    H2 3661   4.151   2.367   0.365
 1233TIP3   OH2 3662   2.834   5.027   3.866
 1233TIP3    H1 3663   2.870   4.961   3.926
 1233TIP3    H2 3664   2.773   5.078   3.921
 1234TIP3   OH2 3665   5.241   5.128   1.187
 1234TIP3    H1 3666   5.284   5.101   1.106
 1234TIP3    H2 3667   5.303   5.188   1.229
 1235TIP3   OH2 3668   1.226   6.122   2.312
 1235TIP3    H1 3669   1.246   6.029   2.322
 1235TIP3    H2 3670   1.312   6.165   2.310
 1236TIP3   OH2 3671   0.901   5.245   1.501
 1236TIP3    H1 3672   0.827   5.241   1.562
 1236TIP3    H2 3673   0.972   5.285   1.553
 1237TIP3   OH2 3674   4.313   3.885   1.923
 1237TIP3    H1 3675   4.233   3.933   1.945
 1237TIP3    H2 3676   4.285   3.821   1.857
 1238TIP3   OH2 3677   0.356   0.623   1.820
 1238TIP3    H1 3678   0.272   0.577   1.823
 1238TIP3    H2 3679   0.402   0.595   1.899
 1239TIP3   OH2 3680   1.655   2.292   3.586
 1239TIP3    H1 3681   1.593   2.276   3.516
 1239TIP3    H2 3682   1.606   2.277   3.667
 1240TIP3   OH2 3683   2.545   6.011   1.974
 1240TIP3    H1 3684   2.541   5.998   2.069
 1240TIP3    H2 3685   2.573   6.102   1.964
 1241TIP3   OH2 3686   4.658   5.075   5.699
 1241TIP3    H1 3687   4.665   5.171   5.700
 1241TIP3    H2 3688   4.727   5.045   5.757
 1242TIP3   OH2 3689   2.083   4.775   0.402
 1242TIP3    H1 3690   2.041   4.812   0.324
 1242TIP3    H2 3691   2.013   4.727   0.446
 1243TIP3   OH2 3692   5.861   3.265   3.890
 1243TIP3    H1 3693   5.911   3.257   3.808
 1243TIP3    H2 3694   5.815   3.182   3.897
 1244TIP3   OH2 3695   2.132   3.560   2.460
 1244TIP3    H1 3696   2.084   3.480   2.438
 1244TIP3    H2 3697   2.201   3.565   2.394
 1245TIP3   OH2 3698   6.593   6.771   4.922
 1245TIP3    H1 3699   6.628   6.852   4.885
 1245TIP3    H2 3700   6.514   6.754   4.872
 1246TIP3   OH2 3701   6.808   6.291   4.392
 1246TIP3    H1 3702   6.717   6.321   4.395
 1246TIP3    H2 3703   6.802   6.196   4.403
 1247TIP3   OH2 3704   0.416   1.395   2.124
 1247TIP3    H1 3705   0.455   1.412   2.210
 1247TIP3    H2 3706   0.322   1.397   2.139
 1248TIP3   OH2 3707   2.519   3.644   4.778
 1248TIP3    H1 3708   2.610   3.671   4.782
 1248TIP3    H2 3709   2.513   3.591   4.698
 1249TIP3   OH2 3710   4.994   0.933   0.553
 1249TIP3    H1 3711   5.039   0.849   0.563
 1249TIP3    H2 3712   5.023   0.965   0.467
 1250TIP3   OH2 3713   1.184   1.087   2.119
 1250TIP3    H1 3714   1.113   1.071   2.057
 1250TIP3    H2 3715   1.250   1.134   2.068
 1251TIP3   OH2 3716   2.555   1.633   5.766
 1251TIP3    H1 3717   2.614   1.562   5.794
 1251TIP3    H2 3718   2.598   1.713   5.795
 1252TIP3   OH2 3719   2.655   1.773   2.458
 1252TIP3    H1 3720   2.714   1.712   2.414
 1252TIP3    H2 3721   2.573   1.726   2.466
 1253TIP3   OH2 3722   5.899   2.007   0.694
 1253TIP3    H1 3723   5.958   2.082   0.697
 1253TIP3    H2 3724   5.894   1.976   0.785
 1254TIP3   OH2 3725   2.131   4.244   1.136
 1254TIP3    H1 3726   2.196   4.285   1.079
 1254TIP3    H2 3727   2.152   4.276   1.224
 1255TIP3   OH2 3728   3.454   5.972   3.095
 1255TIP3    H1 3729   3.392   5.940   3.160
 1255TIP3    H2 3730   3.454   6.067   3.107
 1256TIP3   OH2 3731   0.613   0.623   4.785
 1256TIP3    H1 3732   0.692   0.589   4.826
 1256TIP3    H2 3733   0.631   0.715   4.769
 1257TIP3   OH2 3734   4.361   1.173   0.854
 1257TIP3    H1 3735   4.407   1.219   0.785
 1257TIP3    H2 3736   4.271   1.166   0.823
 1258TIP3   OH2 3737   2.042   1.683   0.514
 1258TIP3    H1 3738   2.077   1.739   0.583
 1258TIP3    H2 3739   1.961   1.726   0.487
 1259TIP3   OH2 3740   3.444   4.011   4.123
 1259TIP3    H1 3741   3.387   3.934   4.125
 1259TIP3    H2 3742   3.400   4.072   4.063
 1260TIP3   OH2 3743   0.585   3.841   3.880
 1260TIP3    H1 3744   0.614   3.811   3.794
 1260TIP3    H2 3745   0.519   3.907   3.861
 1261TIP3   OH2 3746   4.421   2.830   2.374
 1261TIP3    H1 3747   4.470   2.778   2.438
 1261TIP3    H2 3748   4.400   2.911   2.420
 1262TIP3   OH2 3749   3.656   2.785   1.890
 1262TIP3    H1 3750   3.587   2.807   1.952
 1262TIP3    H2 3751   3.653   2.855   1.825
 1263TIP3   OH2 3752   7.187   4.517   2.105
 1263TIP3    H1 3753   7.148   4.430   2.109
 1263TIP3    H2 3754   7.201   4.533   2.012
 1264TIP3   OH2 3755   6.267   6.306   5.554
 1264TIP3    H1 3756   6.218   6.276   5.478
 1264TIP3    H2 3757   6.359   6.290   5.531
 1265TIP3   OH2 3758   6.536   5.161   4.969
 1265TIP3    H1 3759   6.591   5.170   5.047
 1265TIP3    H2 3760   6.562   5.077   4.930
 1266TIP3   OH2 3761   5.989   2.462   5.539
 1266TIP3    H1 3762   6.040   2.381   5.540
 1266TIP3    H2 3763   5.908   2.439   5.493
 1267TIP3   OH2 3764   4.907   0.414   2.961
 1267TIP3    H1 3765   4.988   0.406   2.910
 1267TIP3    H2 3766   4.932   0.467   3.037
 1268TIP3   OH2 3767   6.549   3.692   3.952
 1268TIP3    H1 3768   6.593   3.773   3.979
 1268TIP3    H2 3769   6.534   3.704   3.858
 1269TIP3   OH2 3770   3.156   2.033   5.010
 1269TIP3    H1 3771   3.200   2.118   5.017
 1269TIP3    H2 3772   3.223   1.969   5.033
 1270TIP3   OH2 3773   2.135   5.269   5.439
 1270TIP3    H1 3774   2.105   5.353   5.404
 1270TIP3    H2 3775   2.100   5.266   5.528
 1271TIP3   OH2 3776   0.934   2.401   5.375
 1271TIP3    H1 3777   0.900   2.432   5.292
 1271TIP3    H2 3778   1.006   2.462   5.396
 1272TIP3   OH2 3779   4.323   5.886   4.333
 1272TIP3    H1 3780   4.318   5.937   4.414
 1272TIP3    H2 3781   4.251   5.921   4.280
 1273TIP3   OH2 3782   2.853   5.641   3.304
 1273TIP3    H1 3783   2.889   5.589   3.231
 1273TIP3    H2 3784   2.859   5.732   3.275
 1274TIP3   OH2 3785   6.952   3.142   3.471
 1274TIP3    H1 3786   6.865   3.152   3.433
 1274TIP3    H2 3787   6.953   3.202   3.545
 1275TIP3   OH2 3788   4.443   0.080   1.757
 1275TIP3    H1 3789   4.441   0.017   1.830
 1275TIP3    H2 3790   4.354   0.078   1.722
 1276TIP3   OH2 3791   3.790   3.587   5.888
 1276TIP3    H1 3792   3.739   3.633   5.955
 1276TIP3    H2 3793   3.753   3.616   5.805
 1277TIP3   OH2 3794   0.477   6.139   2.459
 1277TIP3    H1 3795   0.425   6.071   2.416
 1277TIP3    H2 3796   0.442   6.145   2.547
 1278TIP3   OH2 3797   6.754   6.073   5.519
 1278TIP3    H1 3798   6.755   6.034   5.607
 1278TIP3    H2 3799   6.695   6.018   5.468
 1279TIP3   OH2 3800   2.885   0.270   4.567
 1279TIP3    H1 3801   2.960   0.213   4.551
 1279TIP3    H2 3802   2.861   0.253   4.658
 1280TIP3   OH2 3803   0.342   4.820   2.937
 1280TIP3    H1 3804   0.349   4.812   2.842
 1280TIP3    H2 3805   0.251   4.845   2.953
 1281TIP3   OH2 3806   0.050   6.019   5.456
 1281TIP3    H1 3807  -0.028   5.980   5.417
 1281TIP3    H2 3808   0.057   5.977   5.542
 1282TIP3   OH2 3809   3.966   6.652   5.622
 1282TIP3    H1 3810   3.884   6.698   5.637
 1282TIP3    H2 3811   3.987   6.671   5.530
 1283TIP3   OH2 3812   0.620   1.924   0.901
 1283TIP3    H1 3813   0.679   1.925   0.826
 1283TIP3    H2 3814   0.674   1.949   0.975
 1284TIP3   OH2 3815   3.642   2.826   2.641
 1284TIP3    H1 3816   3.633   2.916   2.610
 1284TIP3    H2 3817   3.552   2.797   2.658
 1285TIP3   OH2 3818   5.540   1.868   0.648
 1285TIP3    H1 3819   5.565   1.958   0.667
 1285TIP3    H2 3820   5.495   1.838   0.727
 1286TIP3   OH2 3821   1.599   5.516   0.250
 1286TIP3    H1 3822   1.673   5.483   0.199
 1286TIP3    H2 3823   1.522   5.476   0.209
 1287TIP3   OH2 3824   0.968   6.682   5.650
 1287TIP3    H1 3825   1.049   6.732   5.641
 1287TIP3    H2 3826   0.992   6.594   5.622
 1288TIP3   OH2 3827   4.983   3.984   3.177
 1288TIP3    H1 3828   5.013   4.038   3.250
 1288TIP3    H2 3829   4.915   4.036   3.135
 1289TIP3   OH2 3830   2.533   2.783   1.585
 1289TIP3    H1 3831   2.445   2.749   1.604
 1289TIP3    H2 3832   2.521   2.838   1.508
 1290TIP3   OH2 3833   6.560   6.364   4.406
 1290TIP3    H1 3834   6.522   6.344   4.320
 1290TIP3    H2 3835   6.496   6.331   4.469
 1291TIP3   OH2 3836   6.692   3.004   0.051
 1291TIP3    H1 3837   6.719   2.912   0.062
 1291TIP3    H2 3838   6.774   3.053   0.055
 1292TIP3   OH2 3839   1.499   6.178   1.800
 1292TIP3    H1 3840   1.442   6.251   1.824
 1292TIP3    H2 3841   1.494   6.174   1.705
 1293TIP3   OH2 3842   3.943   0.102   1.328
 1293TIP3    H1 3843   3.967   0.193   1.310
 1293TIP3    H2 3844   3.903   0.072   1.246
 1294TIP3   OH2 3845   3.608   2.563   0.706
 1294TIP3    H1 3846   3.665   2.498   0.664
 1294TIP3    H2 3847   3.654   2.585   0.787
 1295TIP3   OH2 3848   0.480   4.743   5.206
 1295TIP3    H1 3849   0.562   4.734   5.254
 1295TIP3    H2 3850   0.496   4.814   5.143
 1296TIP3   OH2 3851   7.072   4.387   3.953
 1296TIP3    H1 3852   7.138   4.340   3.901
 1296TIP3    H2 3853   6.991   4.338   3.939
 1297TIP3   OH2 3854   2.056   1.566   5.697
 1297TIP3    H1 3855   2.005   1.647   5.687
 1297TIP3    H2 3856   2.122   1.571   5.627
 1298TIP3   OH2 3857   4.670   0.941   0.741
 1298TIP3    H1 3858   4.646   1.029   0.770
 1298TIP3    H2 3859   4.608   0.921   0.671
 1299TIP3   OH2 3860   0.309   3.911   5.242
 1299TIP3    H1 3861   0.325   3.854   5.317
 1299TIP3    H2 3862   0.315   4.000   5.278
 1300TIP3   OH2 3863   6.732   4.502   3.637
 1300TIP3    H1 3864   6.690   4.572   3.687
 1300TIP3    H2 3865   6.669   4.429   3.641
 1301TIP3   OH2 3866   1.083   3.951   3.952
 1301TIP3    H1 3867   1.128   3.949   3.867
 1301TIP3    H2 3868   1.007   3.894   3.940
 1302TIP3   OH2 3869   4.967   5.307   5.331
 1302TIP3    H1 3870   4.980   5.252   5.408
 1302TIP3    H2 3871   5.009   5.390   5.354
 1303TIP3   OH2 3872   6.074   2.793   2.833
 1303TIP3    H1 3873   6.016   2.719   2.850
 1303TIP3    H2 3874   6.156   2.771   2.876
 1304TIP3   OH2 3875   7.177   4.967   0.648
 1304TIP3    H1 3876   7.150   4.879   0.621
 1304TIP3    H2 3877   7.101   5.022   0.632
 1305TIP3   OH2 3878   0.490   2.626   4.718
 1305TIP3    H1 3879   0.551   2.567   4.764
 1305TIP3    H2 3880   0.443   2.569   4.657
 1306TIP3   OH2 3881   5.650   2.257   0.936
 1306TIP3    H1 3882   5.727   2.243   0.992
 1306TIP3    H2 3883   5.595   2.180   0.953
 1307TIP3   OH2 3884   1.309   6.258   3.827
 1307TIP3    H1 3885   1.324   6.168   3.800
 1307TIP3    H2 3886   1.251   6.294   3.759
 1308TIP3   OH2 3887   4.172   2.538   1.565
 1308TIP3    H1 3888   4.138   2.498   1.645
 1308TIP3    H2 3889   4.252   2.584   1.593
 1309TIP3   OH2 3890   1.132   3.419   3.656
 1309TIP3    H1 3891   1.148   3.479   3.730
 1309TIP3    H2 3892   1.065   3.358   3.689
 1310TIP3   OH2 3893   2.270   3.251   0.702
 1310TIP3    H1 3894   2.297   3.221   0.789
 1310TIP3    H2 3895   2.197   3.194   0.679
 1311TIP3   OH2 3896   3.740   4.719   5.130
 1311TIP3    H1 3897   3.822   4.768   5.126
 1311TIP3    H2 3898   3.690   4.751   5.054
 1312TIP3   OH2 3899   1.326   5.981   5.839
 1312TIP3    H1 3900   1.237   6.017   5.837
 1312TIP3    H2 3901   1.317   5.896   5.883
 1313TIP3   OH2 3902   2.217   3.476   3.212
 1313TIP3    H1 3903   2.251   3.549   3.264
 1313TIP3    H2 3904   2.128   3.463   3.243
 1314TIP3   OH2 3905   1.944   2.772   1.883
 1314TIP3    H1 3906   2.015   2.763   1.946
 1314TIP3    H2 3907   1.877   2.710   1.913
 1315TIP3   OH2 3908   1.935   6.440   1.247
 1315TIP3    H1 3909   1.904   6.351   1.258
 1315TIP3    H2 3910   1.961   6.468   1.334
 1316TIP3   OH2 3911   5.327   5.317   5.332
 1316TIP3    H1 3912   5.368   5.296   5.248
 1316TIP3    H2 3913   5.386   5.280   5.397
 1317TIP3   OH2 3914   0.975   2.890   3.149
 1317TIP3    H1 3915   1.068   2.884   3.125
 1317TIP3    H2 3916   0.929   2.838   3.083
 1318TIP3   OH2 3917   4.973   1.436   5.606
 1318TIP3    H1 3918   4.991   1.411   5.515
 1318TIP3    H2 3919   4.905   1.502   5.599
 1319TIP3   OH2 3920   0.068   1.602   2.619
 1319TIP3    H1 3921   0.079   1.509   2.602
 1319TIP3    H2 3922   0.010   1.633   2.550
 1320TIP3   OH2 3923   1.481   2.257   2.515
 1320TIP3    H1 3924   1.521   2.170   2.503
 1320TIP3    H2 3925   1.412   2.260   2.448
 1321TIP3   OH2 3926   0.295   6.274   0.495
 1321TIP3    H1 3927   0.391   6.270   0.494
 1321TIP3    H2 3928   0.275   6.361   0.462
 1322TIP3   OH2 3929   2.644   6.215   3.758
 1322TIP3    H1 3930   2.633   6.204   3.664
 1322TIP3    H2 3931   2.572   6.165   3.796
 1323TIP3   OH2 3932   4.851   2.780   2.377
 1323TIP3    H1 3933   4.810   2.854   2.331
 1323TIP3    H2 3934   4.853   2.710   2.312
 1324TIP3   OH2 3935   2.468   5.870   1.639
 1324TIP3    H1 3936   2.468   5.817   1.719
 1324TIP3    H2 3937   2.560   5.874   1.612
 1325TIP3   OH2 3938   5.636   5.512   3.774
 1325TIP3    H1 3939   5.684   5.592   3.797
 1325TIP3    H2 3940   5.697   5.441   3.794
 1326TIP3   OH2 3941   3.716   6.589   0.700
 1326TIP3    H1 3942   3.772   6.590   0.777
 1326TIP3    H2 3943   3.753   6.521   0.644
 1327TIP3   OH2 3944   0.112   0.182   4.878
 1327TIP3    H1 3945   0.112   0.170   4.783
 1327TIP3    H2 3946   0.079   0.099   4.913
 1328TIP3   OH2 3947   0.720   1.952   3.152
 1328TIP3    H1 3948   0.809   1.953   3.115
 1328TIP3    H2 3949   0.724   1.887   3.222
 1329TIP3   OH2 3950   2.933   0.102   5.841
 1329TIP3    H1 3951   2.887   0.104   5.925
 1329TIP3    H2 3952   2.982   0.184   5.839
 1330TIP3   OH2 3953   2.930   4.831   2.505
 1330TIP3    H1 3954   2.956   4.920   2.529
 1330TIP3    H2 3955   2.955   4.823   2.413
 1331TIP3   OH2 3956   4.061   0.368   4.970
 1331TIP3    H1 3957   4.011   0.293   5.003
 1331TIP3    H2 3958   3.996   0.424   4.928
 1332TIP3   OH2 3959   4.565   6.343   2.038
 1332TIP3    H1 3960   4.482   6.325   2.083
 1332TIP3    H2 3961   4.545   6.416   1.979
 1333TIP3   OH2 3962   1.401   0.826   1.291
 1333TIP3    H1 3963   1.356   0.861   1.367
 1333TIP3    H2 3964   1.341   0.761   1.254
 1334TIP3   OH2 3965   2.304   4.718   5.300
 1334TIP3    H1 3966   2.317   4.808   5.270
 1334TIP3    H2 3967   2.358   4.665   5.242
 1335TIP3   OH2 3968   7.136   3.212   4.716
 1335TIP3    H1 3969   7.125   3.147   4.785
 1335TIP3    H2 3970   7.194   3.278   4.754
 1336TIP3   OH2 3971   2.579   3.933   1.692
 1336TIP3    H1 3972   2.527   3.981   1.627
 1336TIP3    H2 3973   2.655   3.988   1.708
 1337TIP3   OH2 3974   7.112   1.552   0.508
 1337TIP3    H1 3975   7.144   1.596   0.429
 1337TIP3    H2 3976   7.102   1.460   0.482
 1338TIP3   OH2 3977   2.357   4.473   3.288
 1338TIP3    H1 3978   2.293   4.428   3.234
 1338TIP3    H2 3979   2.401   4.403   3.337
 1339TIP3   OH2 3980   2.786   3.868   3.580
 1339TIP3    H1 3981   2.750   3.787   3.614
 1339TIP3    H2 3982   2.751   3.875   3.491
 1340TIP3   OH2 3983   0.928   2.166   3.423
 1340TIP3    H1 3984   0.994   2.192   3.358
 1340TIP3    H2 3985   0.946   2.073   3.439
 1341TIP3   OH2 3986   2.516   2.204   1.026
 1341TIP3    H1 3987   2.494   2.246   0.943
 1341TIP3    H2 3988   2.501   2.272   1.092
 1342TIP3   OH2 3989   3.723   0.712   1.496
 1342TIP3    H1 3990   3.778   0.641   1.530
 1342TIP3    H2 3991   3.679   0.747   1.574
 1343TIP3   OH2 3992   6.122   0.582   2.085
 1343TIP3    H1 3993   6.093   0.558   2.173
 1343TIP3    H2 3994   6.158   0.670   2.095
 1344TIP3   OH2 3995   5.226   4.779   5.070
 1344TIP3    H1 3996   5.227   4.814   4.981
 1344TIP3    H2 3997   5.269   4.847   5.123
 1345TIP3   OH2 3998   5.718   4.299   4.666
 1345TIP3    H1 3999   5.733   4.392   4.649
 1345TIP3    H2 4000   5.724   4.257   4.580
 1346TIP3   OH2 4001   0.485   1.519   5.466
 1346TIP3    H1 4002   0.394   1.549   5.467
 1346TIP3    H2 4003   0.533   1.587   5.514
 1347TIP3   OH2 4004   3.943   0.492   0.865
 1347TIP3    H1 4005   3.972   0.401   0.850
 1347TIP3    H2 4006   3.911   0.492   0.955
 1348TIP3   OH2 4007   2.425   1.412   1.254
 1348TIP3    H1 4008   2.455   1.473   1.321
 1348TIP3    H2 4009   2.393   1.468   1.183
 1349TIP3   OH2 4010   4.748   4.759   3.198
 1349TIP3    H1 4011   4.764   4.739   3.291
 1349TIP3    H2 4012   4.675   4.701   3.174
 1350TIP3   OH2 4013   4.266   0.469   3.558
 1350TIP3    H1 4014   4.272   0.387   3.607
 1350TIP3    H2 4015   4.335   0.462   3.492
 1351TIP3   OH2 4016   0.281   3.952   5.834
 1351TIP3    H1 4017   0.271   3.870   5.882
 1351TIP3    H2 4018   0.374   3.957   5.813
 1352TIP3   OH2 4019   1.137   5.953   3.139
 1352TIP3    H1 4020   1.079   6.001   3.199
 1352TIP3    H2 4021   1.225   5.983   3.164
 1353TIP3   OH2 4022   1.470   5.358   4.031
 1353TIP3    H1 4023   1.487   5.311   3.949
 1353TIP3    H2 4024   1.541   5.333   4.089
 1354TIP3   OH2 4025   3.699   1.233   3.016
 1354TIP3    H1 4026   3.644   1.169   3.062
 1354TIP3    H2 4027   3.638   1.301   2.988
 1355TIP3   OH2 4028   5.911   2.246   1.451
 1355TIP3    H1 4029   5.967   2.308   1.403
 1355TIP3    H2 4030   5.823   2.261   1.417
 1356TIP3   OH2 4031   5.258   3.715   4.050
 1356TIP3    H1 4032   5.225   3.629   4.022
 1356TIP3    H2 4033   5.214   3.777   3.992
 1357TIP3   OH2 4034   2.692   5.443   0.155
 1357TIP3    H1 4035   2.698   5.410   0.245
 1357TIP3    H2 4036   2.770   5.497   0.144
 1358TIP3   OH2 4037   2.088   5.325   2.283
 1358TIP3    H1 4038   2.182   5.321   2.265
 1358TIP3    H2 4039   2.074   5.415   2.312
 1359TIP3   OH2 4040   1.474   3.261   2.535
 1359TIP3    H1 4041   1.497   3.219   2.452
 1359TIP3    H2 4042   1.552   3.251   2.589
 1360TIP3   OH2 4043   4.883   1.435   2.765
 1360TIP3    H1 4044   4.848   1.373   2.701
 1360TIP3    H2 4045   4.931   1.379   2.827
 1361TIP3   OH2 4046   5.813   2.301   2.755
 1361TIP3    H1 4047   5.791   2.268   2.842
 1361TIP3    H2 4048   5.728   2.319   2.715
 1362TIP3   OH2 4049   3.043   3.423   4.372
 1362TIP3    H1 4050   3.085   3.438   4.457
 1362TIP3    H2 4051   3.115   3.415   4.311
 1363TIP3   OH2 4052   0.427   1.369   3.731
 1363TIP3    H1 4053   0.436   1.305   3.802
 1363TIP3    H2 4054   0.476   1.330   3.658
 1364TIP3   OH2 4055   6.052   5.484   4.618
 1364TIP3    H1 4056   6.025   5.393   4.606
 1364TIP3    H2 4057   5.994   5.534   4.560
 1365TIP3   OH2 4058   0.923   3.282   1.677
 1365TIP3    H1 4059   0.913   3.207   1.736
 1365TIP3    H2 4060   0.957   3.352   1.732
 1366TIP3   OH2 4061   3.710   3.724   0.614
 1366TIP3    H1 4062   3.687   3.632   0.599
 1366TIP3    H2 4063   3.642   3.756   0.673
 1367TIP3   OH2 4064   1.094   6.698   2.525
 1367TIP3    H1 4065   1.142   6.615   2.526
 1367TIP3    H2 4066   1.156   6.762   2.492
 1368TIP3   OH2 4067   0.502   6.444   1.724
 1368TIP3    H1 4068   0.525   6.518   1.781
 1368TIP3    H2 4069   0.483   6.372   1.785
 1369TIP3   OH2 4070   4.423   5.609   1.656
 1369TIP3    H1 4071   4.409   5.519   1.626
 1369TIP3    H2 4072   4.356   5.660   1.611
 1370TIP3   OH2 4073   3.652   2.932   4.029
 1370TIP3    H1 4074   3.731   2.950   4.079
 1370TIP3    H2 4075   3.650   2.836   4.022
 1371TIP3   OH2 4076   3.191   4.476   0.077
 1371TIP3    H1 4077   3.163   4.568   0.071
 1371TIP3    H2 4078   3.233   4.469   0.163
 1372TIP3   OH2 4079   4.912   5.388   0.096
 1372TIP3    H1 4080   4.836   5.442   0.071
 1372TIP3    H2 4081   4.965   5.383   0.016
 1373TIP3   OH2 4082   6.870   0.057   4.615
 1373TIP3    H1 4083   6.856   0.118   4.543
 1373TIP3    H2 4084   6.787   0.010   4.624
 1374TIP3   OH2 4085   6.897   4.590   5.690
 1374TIP3    H1 4086   6.916   4.682   5.674
 1374TIP3    H2 4087   6.971   4.558   5.741
 1375TIP3   OH2 4088   3.677   0.415   5.633
 1375TIP3    H1 4089   3.728   0.469   5.694
 1375TIP3    H2 4090   3.666   0.331   5.678
 1376TIP3   OH2 4091   0.689   5.358   2.824
 1376TIP3    H1 4092   0.626   5.325   2.760
 1376TIP3    H2 4093   0.774   5.329   2.791
 1377TIP3   OH2 4094   5.353   0.752   2.831
 1377TIP3    H1 4095   5.352   0.686   2.762
 1377TIP3    H2 4096   5.303   0.825   2.794
 1378TIP3   OH2 4097   1.501   0.757   1.711
 1378TIP3    H1 4098   1.495   0.662   1.699
 1378TIP3    H2 4099   1.479   0.771   1.803
 1379TIP3   OH2 4100   3.808   4.485   1.202
 1379TIP3    H1 4101   3.840   4.396   1.189
 1379TIP3    H2 4102   3.738   4.476   1.267
 1380TIP3   OH2 4103   4.811   3.144   4.735
 1380TIP3    H1 4104   4.817   3.048   4.739
 1380TIP3    H2 4105   4.897   3.172   4.706
 1381TIP3   OH2 4106   5.544   2.244   2.061
 1381TIP3    H1 4107   5.518   2.266   2.151
 1381TIP3    H2 4108   5.635   2.272   2.055
 1382TIP3   OH2 4109   5.105   0.974   1.798
 1382TIP3    H1 4110   5.052   1.014   1.729
 1382TIP3    H2 4111   5.192   0.966   1.759
 1383TIP3   OH2 4112   4.847   0.353   1.268
 1383TIP3    H1 4113   4.791   0.294   1.218
 1383TIP3    H2 4114   4.804   0.361   1.353
 1384TIP3   OH2 4115   6.320   6.025   5.274
 1384TIP3    H1 4116   6.341   5.956   5.211
 1384TIP3    H2 4117   6.321   6.105   5.223
 1385TIP3   OH2 4118   1.831   4.843   2.859
 1385TIP3    H1 4119   1.758   4.841   2.797
 1385TIP3    H2 4120   1.808   4.778   2.925
 1386TIP3   OH2 4121   4.753   2.006   1.018
 1386TIP3    H1 4122   4.686   2.021   0.951
 1386TIP3    H2 4123   4.835   2.003   0.969
 1387TIP3   OH2 4124   1.029   3.093   0.866
 1387TIP3    H1 4125   1.005   3.065   0.954
 1387TIP3    H2 4126   0.991   3.180   0.857
 1388TIP3   OH2 4127   7.187   0.824   4.302
 1388TIP3    H1 4128   7.150   0.892   4.358
 1388TIP3    H2 4129   7.264   0.865   4.263
 1389TIP3   OH2 4130   3.192   2.864   0.239
 1389TIP3    H1 4131   3.191   2.876   0.144
 1389TIP3    H2 4132   3.277   2.898   0.267
 1390TIP3   OH2 4133   3.569   3.889   2.749
 1390TIP3    H1 4134   3.592   3.824   2.815
 1390TIP3    H2 4135   3.576   3.841   2.666
 1391TIP3   OH2 4136   3.132   2.113   2.685
 1391TIP3    H1 4137   3.042   2.083   2.672
 1391TIP3    H2 4138   3.187   2.041   2.654
 1392TIP3   OH2 4139   6.705   1.362   3.734
 1392TIP3    H1 4140   6.632   1.420   3.757
 1392TIP3    H2 4141   6.668   1.299   3.673
 1393TIP3   OH2 4142   3.171   3.638   3.796
 1393TIP3    H1 4143   3.082   3.673   3.799
 1393TIP3    H2 4144   3.214   3.674   3.874
 1394TIP3   OH2 4145   6.856   2.793   1.911
 1394TIP3    H1 4146   6.935   2.813   1.860
 1394TIP3    H2 4147   6.887   2.784   2.001
 1395TIP3   OH2 4148   0.921   1.547   2.005
 1395TIP3    H1 4149   0.939   1.619   1.945
 1395TIP3    H2 4150   0.825   1.546   2.014
 1396TIP3   OH2 4151   2.403   6.606   0.149
 1396TIP3    H1 4152   2.339   6.535   0.155
 1396TIP3    H2 4153   2.439   6.613   0.237
 1397TIP3   OH2 4154   6.621   1.707   1.722
 1397TIP3    H1 4155   6.599   1.778   1.782
 1397TIP3    H2 4156   6.536   1.671   1.696
 1398TIP3   OH2 4157   6.383   2.505   2.555
 1398TIP3    H1 4158   6.328   2.496   2.477
 1398TIP3    H2 4159   6.433   2.424   2.558
 1399TIP3   OH2 4160   1.247   2.859   1.360
 1399TIP3    H1 4161   1.156   2.835   1.374
 1399TIP3    H2 4162   1.254   2.949   1.394
 1400TIP3   OH2 4163   2.762   5.285   3.426
 1400TIP3    H1 4164   2.816   5.207   3.413
 1400TIP3    H2 4165   2.723   5.301   3.340
 1401TIP3   OH2 4166   5.052   0.833   4.046
 1401TIP3    H1 4167   5.110   0.882   3.988
 1401TIP3    H2 4168   5.074   0.864   4.134
 1402TIP3   OH2 4169   6.276   4.550   4.119
 1402TIP3    H1 4170   6.353   4.502   4.150
 1402TIP3    H2 4171   6.222   4.562   4.197
 1403TIP3   OH2 4172   6.747   1.207   0.340
 1403TIP3    H1 4173   6.790   1.162   0.268
 1403TIP3    H2 4174   6.773   1.299   0.331
 1404TIP3   OH2 4175   5.351   0.409   5.481
 1404TIP3    H1 4176   5.335   0.315   5.470
 1404TIP3    H2 4177   5.368   0.419   5.575
 1405TIP3   OH2 4178   6.404   6.448   0.810
 1405TIP3    H1 4179   6.364   6.485   0.732
 1405TIP3    H2 4180   6.360   6.363   0.822
 1406TIP3   OH2 4181   0.510   0.767   2.562
 1406TIP3    H1 4182   0.526   0.761   2.468
 1406TIP3    H2 4183   0.414   0.774   2.570
 1407TIP3   OH2 4184   1.486   2.555   2.509
 1407TIP3    H1 4185   1.394   2.550   2.483
 1407TIP3    H2 4186   1.493   2.496   2.584
 1408TIP3   OH2 4187   4.226   2.284   3.963
 1408TIP3    H1 4188   4.233   2.189   3.964
 1408TIP3    H2 4189   4.244   2.309   3.873
 1409TIP3   OH2 4190   1.720   5.853   2.075
 1409TIP3    H1 4191   1.713   5.942   2.042
 1409TIP3    H2 4192   1.737   5.800   1.997
 1410TIP3   OH2 4193   4.470   5.986   1.775
 1410TIP3    H1 4194   4.395   5.972   1.717
 1410TIP3    H2 4195   4.436   6.041   1.845
 1411TIP3   OH2 4196   0.065   0.796   1.129
 1411TIP3    H1 4197   0.013   0.716   1.120
 1411TIP3    H2 4198   0.019   0.848   1.194
 1412TIP3   OH2 4199   0.299   5.927   2.767
 1412TIP3    H1 4200   0.215   5.965   2.740
 1412TIP3    H2 4201   0.290   5.834   2.749
 1413TIP3   OH2 4202   0.884   5.491   1.358
 1413TIP3    H1 4203   0.956   5.527   1.305
 1413TIP3    H2 4204   0.914   5.404   1.384
 1414TIP3   OH2 4205   2.876   1.379   2.890
 1414TIP3    H1 4206   2.885   1.290   2.858
 1414TIP3    H2 4207   2.855   1.431   2.813
 1415TIP3   OH2 4208   1.475   2.507   1.731
 1415TIP3    H1 4209   1.396   2.513   1.784
 1415TIP3    H2 4210   1.547   2.503   1.794
 1416TIP3   OH2 4211   1.563   1.751   3.566
 1416TIP3    H1 4212   1.634   1.722   3.508
 1416TIP3    H2 4213   1.596   1.832   3.605
 1417TIP3   OH2 4214   4.380   1.581   0.415
 1417TIP3    H1 4215   4.426   1.559   0.496
 1417TIP3    H2 4216   4.293   1.607   0.444
 1418TIP3   OH2 4217   3.055   4.785   3.616
 1418TIP3    H1 4218   3.088   4.759   3.530
 1418TIP3    H2 4219   3.129   4.774   3.675
 1419TIP3   OH2 4220   2.791   4.217   4.733
 1419TIP3    H1 4221   2.820   4.155   4.800
 1419TIP3    H2 4222   2.708   4.181   4.702
 1420TIP3   OH2 4223   3.033   3.619   0.384
 1420TIP3    H1 4224   2.962   3.565   0.420
 1420TIP3    H2 4225   3.049   3.582   0.297
 1421TIP3   OH2 4226   5.058   4.343   5.766
 1421TIP3    H1 4227   5.038   4.347   5.860
 1421TIP3    H2 4228   5.012   4.264   5.736
 1422TIP3   OH2 4229   5.070   6.560   3.848
 1422TIP3    H1 4230   5.127   6.489   3.878
 1422TIP3    H2 4231   5.125   6.638   3.850
 1423TIP3   OH2 4232   5.033   3.106   0.139
 1423TIP3    H1 4233   5.056   3.076   0.227
 1423TIP3    H2 4234   4.938   3.114   0.141
 1424TIP3   OH2 4235   1.797   6.392   5.229
 1424TIP3    H1 4236   1.745   6.341   5.291
 1424TIP3    H2 4237   1.836   6.326   5.171
 1425TIP3   OH2 4238   1.879   5.466   2.508
 1425TIP3    H1 4239   1.873   5.503   2.419
 1425TIP3    H2 4240   1.839   5.532   2.564
 1426TIP3   OH2 4241   0.292   5.103   5.792
 1426TIP3    H1 4242   0.326   5.141   5.711
 1426TIP3    H2 4243   0.244   5.175   5.833
 1427TIP3   OH2 4244   4.730   0.064   3.825
 1427TIP3    H1 4245   4.753   0.157   3.829
 1427TIP3    H2 4246   4.634   0.063   3.821
 1428TIP3   OH2 4247   7.039   1.667   3.050
 1428TIP3    H1 4248   6.981   1.664   2.974
 1428TIP3    H2 4249   7.049   1.576   3.077
 1429TIP3   OH2 4250   6.305   4.931   3.920
 1429TIP3    H1 4251   6.302   5.026   3.927
 1429TIP3    H2 4252   6.213   4.904   3.913
 1430TIP3   OH2 4253   0.731   2.889   1.531
 1430TIP3    H1 4254   0.730   2.941   1.611
 1430TIP3    H2 4255   0.650   2.839   1.533
 1431TIP3   OH2 4256   6.910   2.351   0.778
 1431TIP3    H1 4257   6.973   2.404   0.828
 1431TIP3    H2 4258   6.896   2.400   0.697
 1432TIP3   OH2 4259   6.715   2.606   4.955
 1432TIP3    H1 4260   6.779   2.677   4.945
 1432TIP3    H2 4261   6.697   2.578   4.865
 1433TIP3   OH2 4262   5.005   0.777   3.165
 1433TIP3    H1 4263   5.073   0.744   3.106
 1433TIP3    H2 4264   4.939   0.815   3.108
 1434TIP3   OH2 4265   3.715   2.416   3.847
 1434TIP3    H1 4266   3.634   2.422   3.897
 1434TIP3    H2 4267   3.686   2.393   3.758
 1435TIP3   OH2 4268   2.285   3.573   3.513
 1435TIP3    H1 4269   2.286   3.669   3.509
 1435TIP3    H2 4270   2.376   3.547   3.502
 1436TIP3   OH2 4271   3.651   4.272   3.189
 1436TIP3    H1 4272   3.715   4.203   3.170
 1436TIP3    H2 4273   3.697   4.330   3.251
 1437TIP3   OH2 4274   4.769   2.696   3.914
 1437TIP3    H1 4275   4.828   2.745   3.856
 1437TIP3    H2 4276   4.692   2.752   3.921
 1438TIP3   OH2 4277   2.914   4.862   5.064
 1438TIP3    H1 4278   3.003   4.861   5.029
 1438TIP3    H2 4279   2.923   4.823   5.151
 1439TIP3   OH2 4280   1.824   0.759   5.014
 1439TIP3    H1 4281   1.760   0.826   5.037
 1439TIP3    H2 4282   1.847   0.778   4.923
 1440TIP3   OH2 4283   2.294   4.693   1.832
 1440TIP3    H1 4284   2.215   4.642   1.848
 1440TIP3    H2 4285   2.310   4.683   1.738
 1441TIP3   OH2 4286   2.190   6.275   4.805
 1441TIP3    H1 4287   2.185   6.232   4.891
 1441TIP3    H2 4288   2.102   6.270   4.770
 1442TIP3   OH2 4289   3.968   4.614   1.780
 1442TIP3    H1 4290   3.954   4.697   1.734
 1442TIP3    H2 4291   3.989   4.552   1.711
 1443TIP3   OH2 4292   0.753   6.278   3.419
 1443TIP3    H1 4293   0.842   6.274   3.382
 1443TIP3    H2 4294   0.738   6.371   3.434
 1444TIP3   OH2 4295   6.582   1.038   3.742
 1444TIP3    H1 4296   6.575   1.108   3.677
 1444TIP3    H2 4297   6.637   0.971   3.700
 1445TIP3   OH2 4298   6.661   2.453   5.550
 1445TIP3    H1 4299   6.732   2.407   5.505
 1445TIP3    H2 4300   6.699   2.538   5.573
 1446TIP3   OH2 4301   4.637   1.831   5.080
 1446TIP3    H1 4302   4.574   1.897   5.108
 1446TIP3    H2 4303   4.723   1.869   5.098
 1447TIP3   OH2 4304   4.257   0.052   4.995
 1447TIP3    H1 4305   4.198   0.067   4.921
 1447TIP3    H2 4306   4.344   0.048   4.956
 1448TIP3   OH2 4307   6.027   1.645   0.107
 1448TIP3    H1 4308   6.015   1.573   0.169
 1448TIP3    H2 4309   6.012   1.606   0.022
 1449TIP3   OH2 4310   4.856   1.736   5.758
 1449TIP3    H1 4311   4.852   1.812   5.700
 1449TIP3    H2 4312   4.790   1.676   5.723
 1450TIP3   OH2 4313   3.486   5.851   0.143
 1450TIP3    H1 4314   3.500   5.890   0.229
 1450TIP3    H2 4315   3.571   5.816   0.119
 1451TIP3   OH2 4316   2.861   1.238   4.566
 1451TIP3    H1 4317   2.921   1.169   4.538
 1451TIP3    H2 4318   2.782   1.222   4.516
 1452TIP3   OH2 4319   0.077   2.268   4.298
 1452TIP3    H1 4320   0.127   2.345   4.325
 1452TIP3    H2 4321   0.140   2.212   4.254
 1453TIP3   OH2 4322   2.640   4.340   3.061
 1453TIP3    H1 4323   2.583   4.300   3.126
 1453TIP3    H2 4324   2.581   4.387   3.002
 1454TIP3   OH2 4325   7.159   2.674   3.373
 1454TIP3    H1 4326   7.073   2.643   3.402
 1454TIP3    H2 4327   7.178   2.749   3.430
 1455TIP3   OH2 4328   1.218   0.179   3.143
 1455TIP3    H1 4329   1.252   0.260   3.104
 1455TIP3    H2 4330   1.272   0.110   3.106
 1456TIP3   OH2 4331   3.214   5.828   5.088
 1456TIP3    H1 4332   3.205   5.919   5.117
 1456TIP3    H2 4333   3.139   5.815   5.029
 1457TIP3   OH2 4334   2.123   3.082   2.082
 1457TIP3    H1 4335   2.066   3.158   2.076
 1457TIP3    H2 4336   2.156   3.084   2.172
 1458TIP3   OH2 4337   3.477   5.936   0.392
 1458TIP3    H1 4338   3.511   5.853   0.426
 1458TIP3    H2 4339   3.384   5.935   0.415
 1459TIP3   OH2 4340   4.098   6.238   4.295
 1459TIP3    H1 4341   4.063   6.156   4.260
 1459TIP3    H2 4342   4.021   6.292   4.312
 1460TIP3   OH2 4343   5.633   4.238   3.893
 1460TIP3    H1 4344   5.612   4.209   3.981
 1460TIP3    H2 4345   5.550   4.270   3.857
 1461TIP3   OH2 4346   0.278   2.127   1.887
 1461TIP3    H1 4347   0.251   2.039   1.859
 1461TIP3    H2 4348   0.201   2.163   1.931
 1462TIP3   OH2 4349   1.904   6.130   5.110
 1462TIP3    H1 4350   1.947   6.071   5.048
 1462TIP3    H2 4351   1.813   6.134   5.079
 1463TIP3   OH2 4352   0.230   3.067   4.155
 1463TIP3    H1 4353   0.309   3.058   4.209
 1463TIP3    H2 4354   0.180   3.137   4.196
 1464TIP3   OH2 4355   0.409   5.473   0.305
 1464TIP3    H1 4356   0.479   5.523   0.345
 1464TIP3    H2 4357   0.410   5.499   0.213
 1465TIP3   OH2 4358   0.112   1.772   1.482
 1465TIP3    H1 4359   0.099   1.838   1.414
 1465TIP3    H2 4360   0.152   1.698   1.436
 1466TIP3   OH2 4361   4.081   1.196   1.541
 1466TIP3    H1 4362   4.043   1.122   1.589
 1466TIP3    H2 4363   4.156   1.158   1.495
 1467TIP3   OH2 4364   2.333   3.237   5.601
 1467TIP3    H1 4365   2.384   3.157   5.614
 1467TIP3    H2 4366   2.398   3.308   5.607
 1468TIP3   OH2 4367   1.116   4.074   0.897
 1468TIP3    H1 4368   1.191   4.015   0.891
 1468TIP3    H2 4369   1.075   4.052   0.981
 1469TIP3   OH2 4370   5.397   2.227   4.638
 1469TIP3    H1 4371   5.416   2.319   4.619
 1469TIP3    H2 4372   5.353   2.229   4.723
 1470TIP3   OH2 4373   2.772   0.995   2.304
 1470TIP3    H1 4374   2.836   1.010   2.374
 1470TIP3    H2 4375   2.707   1.064   2.315
 1471TIP3   OH2 4376   0.281   4.475   3.892
 1471TIP3    H1 4377   0.212   4.418   3.925
 1471TIP3    H2 4378   0.259   4.491   3.801
 1472TIP3   OH2 4379   3.554   4.408   0.686
 1472TIP3    H1 4380   3.575   4.316   0.673
 1472TIP3    H2 4381   3.459   4.414   0.670
 1473TIP3   OH2 4382   3.729   5.483   0.126
 1473TIP3    H1 4383   3.727   5.577   0.143
 1473TIP3    H2 4384   3.685   5.473   0.042
 1474TIP3   OH2 4385   7.011   6.265   0.632
 1474TIP3    H1 4386   7.074   6.221   0.690
 1474TIP3    H2 4387   6.971   6.193   0.583
 1475TIP3   OH2 4388   1.469   0.283   5.615
 1475TIP3    H1 4389   1.534   0.328   5.669
 1475TIP3    H2 4390   1.405   0.249   5.678
 1476TIP3   OH2 4391   7.082   1.503   1.775
 1476TIP3    H1 4392   7.167   1.528   1.740
 1476TIP3    H2 4393   7.041   1.587   1.799
 1477TIP3   OH2 4394   6.347   4.546   3.453
 1477TIP3    H1 4395   6.312   4.631   3.481
 1477TIP3    H2 4396   6.441   4.561   3.443
 1478TIP3   OH2 4397   7.115   4.982   2.330
 1478TIP3    H1 4398   7.208   4.962   2.318
 1478TIP3    H2 4399   7.070   4.906   2.293
 1479TIP3   OH2 4400   4.991   6.720   4.133
 1479TIP3    H1 4401   5.049   6.775   4.185
 1479TIP3    H2 4402   5.027   6.726   4.044
 1480TIP3   OH2 4403   7.075   1.320   1.246
 1480TIP3    H1 4404   7.005   1.373   1.283
 1480TIP3    H2 4405   7.146   1.324   1.310
 1481TIP3   OH2 4406   0.168   4.120   2.807
 1481TIP3    H1 4407   0.077   4.117   2.775
 1481TIP3    H2 4408   0.204   4.200   2.768
 1482TIP3   OH2 4409   4.700   1.820   5.505
 1482TIP3    H1 4410   4.783   1.867   5.500
 1482TIP3    H2 4411   4.725   1.728   5.496
 1483TIP3   OH2 4412   3.648   0.318   5.127
 1483TIP3    H1 4413   3.695   0.399   5.104
 1483TIP3    H2 4414   3.570   0.319   5.071
 1484TIP3   OH2 4415   1.918   6.220   2.473
 1484TIP3    H1 4416   1.963   6.182   2.548
 1484TIP3    H2 4417   1.837   6.255   2.509
 1485TIP3   OH2 4418   6.256   0.427   3.684
 1485TIP3    H1 4419   6.178   0.457   3.732
 1485TIP3    H2 4420   6.283   0.347   3.730
 1486TIP3   OH2 4421   3.037   4.515   2.485
 1486TIP3    H1 4422   3.059   4.557   2.568
 1486TIP3    H2 4423   3.081   4.569   2.419
 1487TIP3   OH2 4424   3.114   3.406   4.046
 1487TIP3    H1 4425   3.128   3.381   3.954
 1487TIP3    H2 4426   3.161   3.340   4.097
 1488TIP3   OH2 4427   6.767   1.164   1.850
 1488TIP3    H1 4428   6.736   1.210   1.772
 1488TIP3    H2 4429   6.707   1.090   1.860
 1489TIP3   OH2 4430   4.579   2.195   1.486
 1489TIP3    H1 4431   4.510   2.259   1.503
 1489TIP3    H2 4432   4.559   2.160   1.399
 1490TIP3   OH2 4433   6.728   1.707   3.620
 1490TIP3    H1 4434   6.671   1.672   3.689
 1490TIP3    H2 4435   6.755   1.793   3.653
 1491TIP3   OH2 4436   0.165   4.244   1.096
 1491TIP3    H1 4437   0.191   4.316   1.154
 1491TIP3    H2 4438   0.219   4.170   1.125
 1492TIP3   OH2 4439   1.321   3.228   5.471
 1492TIP3    H1 4440   1.395   3.240   5.412
 1492TIP3    H2 4441   1.282   3.315   5.478
 1493TIP3   OH2 4442   2.678   1.421   3.479
 1493TIP3    H1 4443   2.593   1.379   3.490
 1493TIP3    H2 4444   2.692   1.423   3.384
 1494TIP3   OH2 4445   5.363   3.916   2.926
 1494TIP3    H1 4446   5.340   3.854   2.856
 1494TIP3    H2 4447   5.361   4.001   2.883
 1495TIP3   OH2 4448   6.218   2.776   1.140
 1495TIP3    H1 4449   6.282   2.832   1.185
 1495TIP3    H2 4450   6.136   2.792   1.186
 1496TIP3   OH2 4451   2.116   0.361   2.064
 1496TIP3    H1 4452   2.112   0.354   1.968
 1496TIP3    H2 4453   2.095   0.453   2.082
 1497TIP3   OH2 4454   4.404   2.879   5.427
 1497TIP3    H1 4455   4.453   2.904   5.505
 1497TIP3    H2 4456   4.381   2.962   5.385
 1498TIP3   OH2 4457   1.217   3.337   4.369
 1498TIP3    H1 4458   1.225   3.432   4.362
 1498TIP3    H2 4459   1.306   3.304   4.355
 1499TIP3   OH2 4460   5.136   6.031   3.684
 1499TIP3    H1 4461   5.047   5.999   3.692
 1499TIP3    H2 4462   5.180   5.969   3.627
 1500TIP3   OH2 4463   0.260   5.090   3.275
 1500TIP3    H1 4464   0.314   5.065   3.201
 1500TIP3    H2 4465   0.322   5.121   3.341
 1501TIP3   OH2 4466   1.068   6.719   2.208
 1501TIP3    H1 4467   1.073   6.800   2.157
 1501TIP3    H2 4468   1.029   6.746   2.291
 1502TIP3   OH2 4469   3.714   1.565   2.172
 1502TIP3    H1 4470   3.713   1.595   2.263
 1502TIP3    H2 4471   3.807   1.554   2.151
 1503TIP3   OH2 4472   5.002   4.117   1.340
 1503TIP3    H1 4473   4.982   4.023   1.348
 1503TIP3    H2 4474   4.921   4.161   1.365
 1504TIP3   OH2 4475   6.672   4.553   3.367
 1504TIP3    H1 4476   6.706   4.561   3.456
 1504TIP3    H2 4477   6.719   4.621   3.317
 1505TIP3   OH2 4478   5.738   5.471   4.826
 1505TIP3    H1 4479   5.717   5.384   4.861
 1505TIP3    H2 4480   5.833   5.472   4.821
 1506TIP3   OH2 4481   2.493   3.558   3.053
 1506TIP3    H1 4482   2.426   3.495   3.027
 1506TIP3    H2 4483   2.558   3.555   2.983
 1507TIP3   OH2 4484   1.776   5.298   1.810
 1507TIP3    H1 4485   1.718   5.357   1.858
 1507TIP3    H2 4486   1.728   5.277   1.729
 1508TIP3   OH2 4487   2.456   4.439   1.268
 1508TIP3    H1 4488   2.491   4.390   1.343
 1508TIP3    H2 4489   2.520   4.508   1.252
 1509TIP3   OH2 4490   0.511   5.974   3.358
 1509TIP3    H1 4491   0.430   6.023   3.365
 1509TIP3    H2 4492   0.485   5.886   3.333
 1510TIP3   OH2 4493   2.783   2.796   2.423
 1510TIP3    H1 4494   2.720   2.726   2.440
 1510TIP3    H2 4495   2.802   2.789   2.329
 1511TIP3   OH2 4496   0.137   3.663   3.789
 1511TIP3    H1 4497   0.177   3.580   3.760
 1511TIP3    H2 4498   0.064   3.676   3.729
 1512TIP3   OH2 4499   0.021   3.494   4.556
 1512TIP3    H1 4500   0.055   3.557   4.619
 1512TIP3    H2 4501   0.068   3.413   4.576
 1513TIP3   OH2 4502   1.233   5.377   3.332
 1513TIP3    H1 4503   1.297   5.321   3.289
 1513TIP3    H2 4504   1.235   5.351   3.424
 1514TIP3   OH2 4505   2.649   0.771   4.718
 1514TIP3    H1 4506   2.671   0.747   4.628
 1514TIP3    H2 4507   2.727   0.747   4.768
 1515TIP3   OH2 4508   5.816   0.023   3.134
 1515TIP3    H1 4509   5.865   0.094   3.092
 1515TIP3    H2 4510   5.874  -0.008   3.203
 1516TIP3   OH2 4511   0.736   2.795   0.784
 1516TIP3    H1 4512   0.655   2.815   0.736
 1516TIP3    H2 4513   0.796   2.765   0.716
 1517TIP3   OH2 4514   5.171   1.900   3.901
 1517TIP3    H1 4515   5.230   1.872   3.831
 1517TIP3    H2 4516   5.205   1.859   3.980
 1518TIP3   OH2 4517   1.265   5.650   3.308
 1518TIP3    H1 4518   1.187   5.682   3.262
 1518TIP3    H2 4519   1.259   5.555   3.303
 1519TIP3   OH2 4520   3.201   4.200   4.776
 1519TIP3    H1 4521   3.247   4.269   4.729
 1519TIP3    H2 4522   3.139   4.165   4.712
 1520TIP3   OH2 4523   5.380   0.543   1.903
 1520TIP3    H1 4524   5.441   0.472   1.880
 1520TIP3    H2 4525   5.316   0.543   1.831
 1521TIP3   OH2 4526   0.228   0.788   5.472
 1521TIP3    H1 4527   0.319   0.782   5.444
 1521TIP3    H2 4528   0.201   0.876   5.446
 1522TIP3   OH2 4529   4.905   2.053   2.475
 1522TIP3    H1 4530   4.984   2.104   2.459
 1522TIP3    H2 4531   4.933   1.961   2.471
 1523TIP3   OH2 4532   1.186   2.043   4.138
 1523TIP3    H1 4533   1.141   2.118   4.101
 1523TIP3    H2 4534   1.153   2.036   4.228
 1524TIP3   OH2 4535   2.737   3.258   5.573
 1524TIP3    H1 4536   2.655   3.275   5.525
 1524TIP3    H2 4537   2.709   3.218   5.655
 1525TIP3   OH2 4538   0.878   0.034   2.623
 1525TIP3    H1 4539   0.853   0.125   2.608
 1525TIP3    H2 4540   0.874  -0.006   2.535
 1526TIP3   OH2 4541   1.774   3.621   1.462
 1526TIP3    H1 4542   1.729   3.672   1.529
 1526TIP3    H2 4543   1.824   3.556   1.510
 1527TIP3   OH2 4544   0.108   6.693   4.813
 1527TIP3    H1 4545   0.055   6.746   4.873
 1527TIP3    H2 4546   0.094   6.603   4.843
 1528TIP3   OH2 4547   3.208   1.504   0.356
 1528TIP3    H1 4548   3.166   1.426   0.391
 1528TIP3    H2 4549   3.301   1.484   0.357
 1529TIP3   OH2 4550   6.247   0.269   5.674
 1529TIP3    H1 4551   6.235   0.180   5.706
 1529TIP3    H2 4552   6.318   0.263   5.610
 1530TIP3   OH2 4553   2.963   2.990   2.536
 1530TIP3    H1 4554   2.914   2.932   2.478
 1530TIP3    H2 4555   2.959   3.076   2.494
 1531TIP3   OH2 4556   5.772   2.684   1.879
 1531TIP3    H1 4557   5.735   2.772   1.871
 1531TIP3    H2 4558   5.821   2.686   1.961
 1532TIP3   OH2 4559   1.178   4.655   4.032
 1532TIP3    H1 4560   1.153   4.692   3.947
 1532TIP3    H2 4561   1.185   4.730   4.090
 1533TIP3   OH2 4562   1.398   2.038   2.084
 1533TIP3    H1 4563   1.333   2.009   2.020
 1533TIP3    H2 4564   1.475   1.983   2.067
 1534TIP3   OH2 4565   1.747   0.492   3.378
 1534TIP3    H1 4566   1.764   0.586   3.384
 1534TIP3    H2 4567   1.824   0.457   3.332
 1535TIP3   OH2 4568   2.282   6.038   5.438
 1535TIP3    H1 4569   2.222   6.086   5.495
 1535TIP3    H2 4570   2.228   5.969   5.399
 1536TIP3   OH2 4571   5.945   3.976   1.769
 1536TIP3    H1 4572   5.868   3.974   1.711
 1536TIP3    H2 4573   5.909   3.972   1.857
 1537TIP3   OH2 4574   1.687   0.117   5.542
 1537TIP3    H1 4575   1.769   0.156   5.514
 1537TIP3    H2 4576   1.638   0.189   5.582
 1538TIP3   OH2 4577   5.471   0.245   2.217
 1538TIP3    H1 4578   5.510   0.216   2.299
 1538TIP3    H2 4579   5.483   0.340   2.216
 1539TIP3   OH2 4580   3.437   2.839   3.088
 1539TIP3    H1 4581   3.438   2.747   3.116
 1539TIP3    H2 4582   3.444   2.835   2.993
 1540TIP3   OH2 4583   1.209   4.192   2.546
 1540TIP3    H1 4584   1.215   4.174   2.640
 1540TIP3    H2 4585   1.140   4.132   2.516
 1541TIP3   OH2 4586   2.853   2.559   3.573
 1541TIP3    H1 4587   2.894   2.613   3.506
 1541TIP3    H2 4588   2.762   2.550   3.544
 1542TIP3   OH2 4589   3.361   5.440   2.922
 1542TIP3    H1 4590   3.413   5.461   3.000
 1542TIP3    H2 4591   3.284   5.497   2.929
 1543TIP3   OH2 4592   0.110   6.372   0.721
 1543TIP3    H1 4593   0.097   6.394   0.629
 1543TIP3    H2 4594   0.193   6.416   0.744
 1544TIP3   OH2 4595   1.810   3.223   0.262
 1544TIP3    H1 4596   1.739   3.158   0.262
 1544TIP3    H2 4597   1.790   3.281   0.189
 1545TIP3   OH2 4598   0.964   3.777   4.308
 1545TIP3    H1 4599   1.029   3.770   4.238
 1545TIP3    H2 4600   1.001   3.727   4.381
 1546TIP3   OH2 4601   3.908   1.894   4.238
 1546TIP3    H1 4602   3.822   1.904   4.195
 1546TIP3    H2 4603   3.920   1.977   4.286
 1547TIP3   OH2 4604   5.707   3.363   4.644
 1547TIP3    H1 4605   5.684   3.453   4.666
 1547TIP3    H2 4606   5.696   3.315   4.726
 1548TIP3   OH2 4607   5.313   0.360   0.588
 1548TIP3    H1 4608   5.402   0.392   0.604
 1548TIP3    H2 4609   5.290   0.398   0.503
 1549TIP3   OH2 4610   2.974   6.231   1.398
 1549TIP3    H1 4611   2.941   6.177   1.325
 1549TIP3    H2 4612   2.923   6.203   1.473
 1550TIP3   OH2 4613   6.729   2.650   3.016
 1550TIP3    H1 4614   6.765   2.568   3.048
 1550TIP3    H2 4615   6.666   2.624   2.949
 1551TIP3   OH2 4616   4.607   6.549   3.321
 1551TIP3    H1 4617   4.672   6.587   3.380
 1551TIP3    H2 4618   4.656   6.488   3.267
 1552TIP3   OH2 4619   5.380   3.029   4.786
 1552TIP3    H1 4620   5.370   3.105   4.844
 1552TIP3    H2 4621   5.395   3.066   4.699
 1553TIP3   OH2 4622   0.447   6.441   2.927
 1553TIP3    H1 4623   0.521   6.441   2.988
 1553TIP3    H2 4624   0.480   6.483   2.848
 1554TIP3   OH2 4625   2.854   5.428   2.486
 1554TIP3    H1 4626   2.878   5.519   2.504
 1554TIP3    H2 4627   2.777   5.412   2.541
 1555TIP3   OH2 4628   1.631   4.428   2.606
 1555TIP3    H1 4629   1.680   4.376   2.670
 1555TIP3    H2 4630   1.588   4.364   2.551
 1556TIP3   OH2 4631   5.030   6.472   0.567
 1556TIP3    H1 4632   4.971   6.525   0.514
 1556TIP3    H2 4633   4.976   6.438   0.638
 1557TIP3   OH2 4634   5.951   4.547   5.516
 1557TIP3    H1 4635   5.870   4.524   5.563
 1557TIP3    H2 4636   5.981   4.627   5.558
 1558TIP3   OH2 4637   2.633   4.689   0.500
 1558TIP3    H1 4638   2.640   4.657   0.410
 1558TIP3    H2 4639   2.626   4.610   0.554
 1559TIP3   OH2 4640   4.521   0.431   2.893
 1559TIP3    H1 4641   4.593   0.423   2.831
 1559TIP3    H2 4642   4.453   0.479   2.844
 1560TIP3   OH2 4643   0.546   0.724   4.177
 1560TIP3    H1 4644   0.629   0.688   4.147
 1560TIP3    H2 4645   0.559   0.819   4.176
 1561TIP3   OH2 4646   4.204   1.885   5.049
 1561TIP3    H1 4647   4.148   1.962   5.058
 1561TIP3    H2 4648   4.269   1.895   5.119
 1562TIP3   OH2 4649   1.796   3.699   2.170
 1562TIP3    H1 4650   1.713   3.702   2.123
 1562TIP3    H2 4651   1.789   3.624   2.229
 1563TIP3   OH2 4652   5.748   6.381   1.779
 1563TIP3    H1 4653   5.838   6.353   1.791
 1563TIP3    H2 4654   5.718   6.333   1.702
 1564TIP3   OH2 4655   0.530   1.706   0.120
 1564TIP3    H1 4656   0.593   1.635   0.122
 1564TIP3    H2 4657   0.572   1.774   0.067
 1565TIP3   OH2 4658   2.149   5.090   4.410
 1565TIP3    H1 4659   2.081   5.037   4.369
 1565TIP3    H2 4660   2.102   5.145   4.472
 1566TIP3   OH2 4661   5.641   5.421   2.612
 1566TIP3    H1 4662   5.665   5.346   2.666
 1566TIP3    H2 4663   5.665   5.396   2.523
 1567TIP3   OH2 4664   3.223   3.240   2.233
 1567TIP3    H1 4665   3.238   3.150   2.204
 1567TIP3    H2 4666   3.239   3.294   2.156
 1568TIP3   OH2 4667   3.177   5.282   2.654
 1568TIP3    H1 4668   3.214   5.242   2.733
 1568TIP3    H2 4669   3.126   5.356   2.686
 1569TIP3   OH2 4670   1.213   6.779   4.187
 1569TIP3    H1 4671   1.217   6.735   4.102
 1569TIP3    H2 4672   1.305   6.792   4.212
 1570TIP3   OH2 4673   0.906   1.762   5.293
 1570TIP3    H1 4674   0.851   1.820   5.240
 1570TIP3    H2 4675   0.867   1.675   5.282
 1571TIP3   OH2 4676   6.575   5.505   1.414
 1571TIP3    H1 4677   6.616   5.589   1.438
 1571TIP3    H2 4678   6.581   5.453   1.494
 1572TIP3   OH2 4679   2.364   1.555   1.031
 1572TIP3    H1 4680   2.338   1.539   0.941
 1572TIP3    H2 4681   2.362   1.650   1.040
 1573TIP3   OH2 4682   1.285   6.308   5.572
 1573TIP3    H1 4683   1.300   6.304   5.667
 1573TIP3    H2 4684   1.297   6.218   5.543
 1574TIP3   OH2 4685   7.076   3.217   2.060
 1574TIP3    H1 4686   7.105   3.305   2.083
 1574TIP3    H2 4687   7.020   3.229   1.983
 1575TIP3   OH2 4688   4.403   3.719   5.724
 1575TIP3    H1 4689   4.346   3.780   5.677
 1575TIP3    H2 4690   4.464   3.775   5.772
 1576TIP3   OH2 4691   4.494   1.078   3.075
 1576TIP3    H1 4692   4.541   1.075   3.158
 1576TIP3    H2 4693   4.408   1.114   3.098
 1577TIP3   OH2 4694   4.915   5.148   4.420
 1577TIP3    H1 4695   4.955   5.099   4.348
 1577TIP3    H2 4696   4.935   5.240   4.400
 1578TIP3   OH2 4697   4.572   1.299   5.290
 1578TIP3    H1 4698   4.626   1.228   5.254
 1578TIP3    H2 4699   4.484   1.280   5.258
 1579TIP3   OH2 4700   0.787   4.382   0.651
 1579TIP3    H1 4701   0.715   4.367   0.713
 1579TIP3    H2 4702   0.851   4.432   0.701
 1580TIP3   OH2 4703   2.429   4.598   3.779
 1580TIP3    H1 4704   2.437   4.652   3.700
 1580TIP3    H2 4705   2.340   4.614   3.810
 1581TIP3   OH2 4706   0.739   2.402   3.389
 1581TIP3    H1 4707   0.761   2.408   3.296
 1581TIP3    H2 4708   0.760   2.311   3.413
 1582TIP3   OH2 4709   7.095   6.565   0.068
 1582TIP3    H1 4710   7.092   6.634   0.001
 1582TIP3    H2 4711   7.094   6.612   0.151
 1583TIP3   OH2 4712   2.859   5.685   1.235
 1583TIP3    H1 4713   2.804   5.611   1.259
 1583TIP3    H2 4714   2.817   5.723   1.158
 1584TIP3   OH2 4715   5.439   5.463   3.034
 1584TIP3    H1 4716   5.407   5.544   2.995
 1584TIP3    H2 4717   5.367   5.433   3.090
 1585TIP3   OH2 4718   3.084   5.472   0.984
 1585TIP3    H1 4719   3.038   5.550   1.015
 1585TIP3    H2 4720   3.132   5.502   0.906
 1586TIP3   OH2 4721   4.485   6.098   1.305
 1586TIP3    H1 4722   4.431   6.126   1.232
 1586TIP3    H2 4723   4.509   6.179   1.351
 1587TIP3   OH2 4724   2.468   1.528   3.637
 1587TIP3    H1 4725   2.437   1.577   3.713
 1587TIP3    H2 4726   2.471   1.593   3.566
 1588TIP3   OH2 4727   4.818   5.027   5.400
 1588TIP3    H1 4728   4.845   5.083   5.474
 1588TIP3    H2 4729   4.757   5.081   5.350
 1589TIP3   OH2 4730   1.575   3.504   4.920
 1589TIP3    H1 4731   1.499   3.562   4.927
 1589TIP3    H2 4732   1.572   3.472   4.830
 1590TIP3   OH2 4733   0.323   0.787   4.737
 1590TIP3    H1 4734   0.383   0.862   4.734
 1590TIP3    H2 4735   0.323   0.754   4.648
 1591TIP3   OH2 4736   2.944   1.028   2.554
 1591TIP3    H1 4737   3.011   0.965   2.528
 1591TIP3    H2 4738   2.878   0.977   2.601
 1592TIP3   OH2 4739   4.759   2.587   0.378
 1592TIP3    H1 4740   4.749   2.675   0.413
 1592TIP3    H2 4741   4.706   2.531   0.435
 1593TIP3   OH2 4742   3.908   2.275   2.402
 1593TIP3    H1 4743   3.962   2.329   2.345
 1593TIP3    H2 4744   3.969   2.213   2.442
 1594TIP3   OH2 4745   4.223   6.646   4.853
 1594TIP3    H1 4746   4.221   6.643   4.758
 1594TIP3    H2 4747   4.234   6.739   4.874
 1595TIP3   OH2 4748   2.526   2.595   3.858
 1595TIP3    H1 4749   2.456   2.660   3.861
 1595TIP3    H2 4750   2.559   2.590   3.948
 1596TIP3   OH2 4751   0.284   2.897   3.331
 1596TIP3    H1 4752   0.266   2.990   3.324
 1596TIP3    H2 4753   0.214   2.855   3.282
 1597TIP3   OH2 4754   3.448   1.430   5.127
 1597TIP3    H1 4755   3.502   1.453   5.203
 1597TIP3    H2 4756   3.408   1.347   5.150
 1598TIP3   OH2 4757   6.732   3.824   5.749
 1598TIP3    H1 4758   6.680   3.751   5.783
 1598TIP3    H2 4759   6.698   3.900   5.795
 1599TIP3   OH2 4760   0.155   4.799   2.367
 1599TIP3    H1 4761   0.111   4.715   2.354
 1599TIP3    H2 4762   0.235   4.792   2.316
 1600TIP3   OH2 4763   2.514   0.809   5.369
 1600TIP3    H1 4764   2.598   0.839   5.403
 1600TIP3    H2 4765   2.527   0.807   5.274
 1601TIP3   OH2 4766   4.570   1.459   3.676
 1601TIP3    H1 4767   4.574   1.545   3.634
 1601TIP3    H2 4768   4.507   1.471   3.747
 1602TIP3   OH2 4769   0.444   0.990   0.933
 1602TIP3    H1 4770   0.483   1.060   0.986
 1602TIP3    H2 4771   0.379   1.033   0.879
 1603TIP3   OH2 4772   3.178   6.411   1.468
 1603TIP3    H1 4773   3.101   6.374   1.425
 1603TIP3    H2 4774   3.144   6.484   1.520
 1604TIP3   OH2 4775   5.643   5.019   5.833
 1604TIP3    H1 4776   5.606   4.942   5.876
 1604TIP3    H2 4777   5.688   5.067   5.903
 1605TIP3   OH2 4778   4.338   2.723   4.045
 1605TIP3    H1 4779   4.412   2.760   4.093
 1605TIP3    H2 4780   4.362   2.732   3.953
 1606TIP3   OH2 4781   0.933   2.241   0.219
 1606TIP3    H1 4782   0.959   2.205   0.134
 1606TIP3    H2 4783   1.013   2.241   0.271
 1607TIP3   OH2 4784   6.244   1.835   3.953
 1607TIP3    H1 4785   6.338   1.841   3.972
 1607TIP3    H2 4786   6.237   1.765   3.889
 1608TIP3   OH2 4787   5.573   1.628   4.315
 1608TIP3    H1 4788   5.628   1.697   4.279
 1608TIP3    H2 4789   5.603   1.618   4.405
 1609TIP3   OH2 4790   3.806   3.700   0.951
 1609TIP3    H1 4791   3.886   3.658   0.984
 1609TIP3    H2 4792   3.747   3.627   0.933
 1610TIP3   OH2 4793   1.702   4.656   4.568
 1610TIP3    H1 4794   1.648   4.718   4.519
 1610TIP3    H2 4795   1.781   4.644   4.514
 1611TIP3   OH2 4796   5.383   1.300   3.876
 1611TIP3    H1 4797   5.336   1.242   3.816
 1611TIP3    H2 4798   5.411   1.374   3.822
 1612TIP3   OH2 4799   1.824   6.191   1.271
 1612TIP3    H1 4800   1.785   6.134   1.338
 1612TIP3    H2 4801   1.860   6.130   1.206
 1613TIP3   OH2 4802   1.669   3.490   2.366
 1613TIP3    H1 4803   1.703   3.466   2.452
 1613TIP3    H2 4804   1.575   3.501   2.381
 1614TIP3   OH2 4805   2.301   4.665   2.830
 1614TIP3    H1 4806   2.348   4.744   2.858
 1614TIP3    H2 4807   2.299   4.671   2.735
 1615TIP3   OH2 4808   3.696   1.342   1.771
 1615TIP3    H1 4809   3.702   1.281   1.844
 1615TIP3    H2 4810   3.602   1.356   1.759
 1616TIP3   OH2 4811   6.122   5.182   1.789
 1616TIP3    H1 4812   6.208   5.208   1.756
 1616TIP3    H2 4813   6.140   5.145   1.876
 1617TIP3   OH2 4814   2.597   1.418   2.984
 1617TIP3    H1 4815   2.649   1.338   2.977
 1617TIP3    H2 4816   2.652   1.487   2.947
 1618TIP3   OH2 4817   1.989   3.800   3.241
 1618TIP3    H1 4818   2.011   3.780   3.332
 1618TIP3    H2 4819   2.014   3.892   3.230
 1619TIP3   OH2 4820   5.357   1.935   3.215
 1619TIP3    H1 4821   5.395   2.004   3.160
 1619TIP3    H2 4822   5.277   1.909   3.170
 1620TIP3   OH2 4823   5.111   6.239   5.641
 1620TIP3    H1 4824   5.071   6.326   5.641
 1620TIP3    H2 4825   5.047   6.183   5.599
 1621TIP3   OH2 4826   1.216   3.753   2.825
 1621TIP3    H1 4827   1.154   3.819   2.793
 1621TIP3    H2 4828   1.163   3.675   2.840
 1622TIP3   OH2 4829   7.028   5.617   0.938
 1622TIP3    H1 4830   6.991   5.532   0.964
 1622TIP3    H2 4831   6.958   5.660   0.889
 1623TIP3   OH2 4832   6.301   2.167   1.815
 1623TIP3    H1 4833   6.252   2.238   1.774
 1623TIP3    H2 4834   6.238   2.128   1.877
 1624TIP3   OH2 4835   3.266   6.323   2.920
 1624TIP3    H1 4836   3.257   6.395   2.858
 1624TIP3    H2 4837   3.193   6.265   2.899
 1625TIP3   OH2 4838   0.155   5.469   4.583
 1625TIP3    H1 4839   0.106   5.409   4.526
 1625TIP3    H2 4840   0.119   5.555   4.565
 1626TIP3   OH2 4841   3.152   1.819   3.070
 1626TIP3    H1 4842   3.159   1.731   3.034
 1626TIP3    H2 4843   3.139   1.805   3.164
 1627TIP3   OH2 4844   1.767   1.608   1.643
 1627TIP3    H1 4845   1.819   1.536   1.680
 1627TIP3    H2 4846   1.803   1.620   1.555
 1628TIP3   OH2 4847   5.778   2.666   2.926
 1628TIP3    H1 4848   5.823   2.748   2.946
 1628TIP3    H2 4849   5.760   2.627   3.012
 1629TIP3   OH2 4850   0.406   6.196   2.715
 1629TIP3    H1 4851   0.359   6.274   2.745
 1629TIP3    H2 4852   0.363   6.123   2.759
 1630TIP3   OH2 4853   2.633   0.231   0.909
 1630TIP3    H1 4854   2.610   0.233   1.002
 1630TIP3    H2 4855   2.695   0.304   0.899
 1631TIP3   OH2 4856   4.882   5.478   2.071
 1631TIP3    H1 4857   4.929   5.436   1.999
 1631TIP3    H2 4858   4.942   5.546   2.102
 1632TIP3   OH2 4859   3.598   3.684   5.145
 1632TIP3    H1 4860   3.584   3.663   5.053
 1632TIP3    H2 4861   3.682   3.728   5.148
 1633TIP3   OH2 4862   0.294   2.128   0.300
 1633TIP3    H1 4863   0.207   2.166   0.291
 1633TIP3    H2 4864   0.289   2.072   0.377
 1634TIP3   OH2 4865   1.005   5.167   3.842
 1634TIP3    H1 4866   0.941   5.101   3.868
 1634TIP3    H2 4867   1.052   5.188   3.922
 1635TIP3   OH2 4868   0.059   5.347   0.934
 1635TIP3    H1 4869  -0.030   5.323   0.906
 1635TIP3    H2 4870   0.067   5.440   0.912
 1636TIP3   OH2 4871   6.713   5.321   2.209
 1636TIP3    H1 4872   6.772   5.356   2.143
 1636TIP3    H2 4873   6.755   5.240   2.238
 1637TIP3   OH2 4874   1.043   2.912   2.365
 1637TIP3    H1 4875   0.981   2.840   2.358
 1637TIP3    H2 4876   1.040   2.955   2.279
 1638TIP3   OH2 4877   1.604   1.370   0.399
 1638TIP3    H1 4878   1.625   1.438   0.464
 1638TIP3    H2 4879   1.662   1.390   0.326
 1639TIP3   OH2 4880   2.527   3.638   5.105
 1639TIP3    H1 4881   2.478   3.673   5.030
 1639TIP3    H2 4882   2.609   3.688   5.106
 1640TIP3   OH2 4883   3.731   6.127   1.211
 1640TIP3    H1 4884   3.640   6.138   1.236
 1640TIP3    H2 4885   3.769   6.215   1.220
 1641TIP3   OH2 4886   6.010   1.000   4.467
 1641TIP3    H1 4887   6.016   1.091   4.496
 1641TIP3    H2 4888   5.998   0.950   4.547
 1642TIP3   OH2 4889   7.199   2.504   5.850
 1642TIP3    H1 4890   7.129   2.500   5.785
 1642TIP3    H2 4891   7.264   2.441   5.818
 1643TIP3   OH2 4892   3.592   3.700   4.842
 1643TIP3    H1 4893   3.505   3.694   4.802
 1643TIP3    H2 4894   3.644   3.750   4.779
 1644TIP3   OH2 4895   6.831   5.944   4.188
 1644TIP3    H1 4896   6.904   5.893   4.153
 1644TIP3    H2 4897   6.825   5.917   4.279
 1645TIP3   OH2 4898   1.574   3.714   0.979
 1645TIP3    H1 4899   1.570   3.618   0.970
 1645TIP3    H2 4900   1.667   3.731   0.998
 1646TIP3   OH2 4901   5.108   6.197   0.068
 1646TIP3    H1 4902   5.077   6.262   0.131
 1646TIP3    H2 4903   5.203   6.206   0.068
 1647TIP3   OH2 4904   2.405   6.118   0.306
 1647TIP3    H1 4905   2.403   6.151   0.396
 1647TIP3    H2 4906   2.413   6.023   0.316
 1648TIP3   OH2 4907   6.099   4.832   2.250
 1648TIP3    H1 4908   6.137   4.818   2.163
 1648TIP3    H2 4909   6.169   4.807   2.310
 1649TIP3   OH2 4910   6.658   5.613   2.989
 1649TIP3    H1 4911   6.639   5.695   3.035
 1649TIP3    H2 4912   6.604   5.547   3.034
 1650TIP3   OH2 4913   5.611   5.745   1.435
 1650TIP3    H1 4914   5.605   5.729   1.341
 1650TIP3    H2 4915   5.578   5.664   1.475
 1651TIP3   OH2 4916   3.956   3.140   2.999
 1651TIP3    H1 4917   4.007   3.059   2.997
 1651TIP3    H2 4918   4.015   3.204   3.040
 1652TIP3   OH2 4919   6.054   0.817   5.570
 1652TIP3    H1 4920   5.985   0.752   5.559
 1652TIP3    H2 4921   6.050   0.870   5.490
 1653TIP3   OH2 4922   4.011   2.738   2.322
 1653TIP3    H1 4923   3.956   2.788   2.262
 1653TIP3    H2 4924   4.084   2.708   2.268
 1654TIP3   OH2 4925   6.223   2.247   1.255
 1654TIP3    H1 4926   6.172   2.305   1.312
 1654TIP3    H2 4927   6.277   2.196   1.314
 1655TIP3   OH2 4928   1.730   1.916   5.369
 1655TIP3    H1 4929   1.666   1.964   5.315
 1655TIP3    H2 4930   1.808   1.912   5.314
 1656TIP3   OH2 4931   6.961   6.546   1.895
 1656TIP3    H1 4932   6.866   6.548   1.906
 1656TIP3    H2 4933   6.974   6.565   1.802
 1657TIP3   OH2 4934   6.309   2.171   3.670
 1657TIP3    H1 4935   6.247   2.141   3.736
 1657TIP3    H2 4936   6.375   2.102   3.665
 1658TIP3   OH2 4937   3.672   2.526   4.718
 1658TIP3    H1 4938   3.730   2.449   4.722
 1658TIP3    H2 4939   3.725   2.597   4.753
 1659TIP3   OH2 4940   4.761   2.545   0.813
 1659TIP3    H1 4941   4.757   2.506   0.726
 1659TIP3    H2 4942   4.723   2.632   0.803
 1660TIP3   OH2 4943   1.193   0.603   2.610
 1660TIP3    H1 4944   1.257   0.620   2.540
 1660TIP3    H2 4945   1.124   0.551   2.567
 1661TIP3   OH2 4946   1.866   3.743   1.794
 1661TIP3    H1 4947   1.771   3.733   1.797
 1661TIP3    H2 4948   1.881   3.810   1.727
 1662TIP3   OH2 4949   5.167   5.596   4.228
 1662TIP3    H1 4950   5.211   5.627   4.307
 1662TIP3    H2 4951   5.123   5.673   4.192
 1663TIP3   OH2 4952   3.383  -0.012   4.344
 1663TIP3    H1 4953   3.416   0.018   4.429
 1663TIP3    H2 4954   3.453   0.008   4.282
 1664TIP3   OH2 4955   3.765   5.987   3.694
 1664TIP3    H1 4956   3.846   6.030   3.667
 1664TIP3    H2 4957   3.717   5.976   3.612
 1665TIP3   OH2 4958   7.058   0.503   2.265
 1665TIP3    H1 4959   7.000   0.475   2.336
 1665TIP3    H2 4960   7.000   0.538   2.198
 1666TIP3   OH2 4961   7.102   4.231   1.127
 1666TIP3    H1 4962   7.049   4.247   1.050
 1666TIP3    H2 4963   7.183   4.279   1.111
 1667TIP3   OH2 4964   1.764   1.844   5.069
 1667TIP3    H1 4965   1.766   1.755   5.103
 1667TIP3    H2 4966   1.829   1.845   4.999
 1668TIP3   OH2 4967   2.900   0.260   2.530
 1668TIP3    H1 4968   2.856   0.344   2.538
 1668TIP3    H2 4969   2.856   0.216   2.457
 1669TIP3   OH2 4970   1.398   0.689   1.960
 1669TIP3    H1 4971   1.368   0.778   1.939
 1669TIP3    H2 4972   1.359   0.670   2.045
 1670TIP3   OH2 4973   2.946   4.223   0.267
 1670TIP3    H1 4974   2.986   4.157   0.210
 1670TIP3    H2 4975   2.944   4.302   0.213
 1671TIP3   OH2 4976   6.806   1.454   4.436
 1671TIP3    H1 4977   6.823   1.433   4.344
 1671TIP3    H2 4978   6.797   1.549   4.438
 1672TIP3   OH2 4979   6.716   5.953   1.224
 1672TIP3    H1 4980   6.741   5.868   1.262
 1672TIP3    H2 4981   6.666   5.997   1.292
 1673TIP3   OH2 4982   2.589   1.315   0.729
 1673TIP3    H1 4983   2.565   1.369   0.804
 1673TIP3    H2 4984   2.507   1.272   0.703
 1674TIP3   OH2 4985   0.173   2.509   2.502
 1674TIP3    H1 4986   0.109   2.569   2.465
 1674TIP3    H2 4987   0.254   2.529   2.455
 1675TIP3   OH2 4988   2.424   1.110   4.061
 1675TIP3    H1 4989   2.415   1.048   4.134
 1675TIP3    H2 4990   2.436   1.195   4.103
 1676TIP3   OH2 4991   4.173   6.239   0.350
 1676TIP3    H1 4992   4.203   6.293   0.423
 1676TIP3    H2 4993   4.253   6.205   0.310
 1677TIP3   OH2 4994   3.322   2.285   1.241
 1677TIP3    H1 4995   3.393   2.236   1.281
 1677TIP3    H2 4996   3.251   2.221   1.232
 1678TIP3   OH2 4997   2.426   3.965   1.254
 1678TIP3    H1 4998   2.448   4.034   1.191
 1678TIP3    H2 4999   2.341   3.932   1.225
 1679TIP3   OH2 5000   2.204   4.991   0.512
 1679TIP3    H1 5001   2.161   4.908   0.491
 1679TIP3    H2 5002   2.241   5.020   0.428
 1680TIP3   OH2 5003   5.669   5.749   4.841
 1680TIP3    H1 5004   5.666   5.778   4.933
 1680TIP3    H2 5005   5.667   5.654   4.847
 1681TIP3   OH2 5006   6.508   0.624   5.038
 1681TIP3    H1 5007   6.491   0.530   5.031
 1681TIP3    H2 5008   6.560   0.633   5.118
 1682TIP3   OH2 5009   1.685   0.187   3.235
 1682TIP3    H1 5010   1.760   0.231   3.195
 1682TIP3    H2 5011   1.637   0.149   3.161
 1683TIP3   OH2 5012   0.460   2.625   4.213
 1683TIP3    H1 5013   0.539   2.673   4.187
 1683TIP3    H2 5014   0.446   2.562   4.142
 1684TIP3   OH2 5015   2.083   0.165   5.773
 1684TIP3    H1 5016   2.121   0.149   5.687
 1684TIP3    H2 5017   2.073   0.260   5.777
 1685TIP3   OH2 5018   0.894   2.874   5.250
 1685TIP3    H1 5019   0.805   2.872   5.285
 1685TIP3    H2 5020   0.947   2.825   5.313
 1686TIP3   OH2 5021   0.522   1.460   2.367
 1686TIP3    H1 5022   0.444   1.433   2.415
 1686TIP3    H2 5023   0.540   1.549   2.400
 1687TIP3   OH2 5024   0.103   3.943   2.479
 1687TIP3    H1 5025   0.057   3.940   2.562
 1687TIP3    H2 5026   0.193   3.920   2.500
 1688TIP3   OH2 5027   1.571   3.666   3.826
 1688TIP3    H1 5028   1.540   3.679   3.737
 1688TIP3    H2 5029   1.580   3.754   3.862
 1689TIP3   OH2 5030   1.561   2.752   1.192
 1689TIP3    H1 5031   1.594   2.813   1.258
 1689TIP3    H2 5032   1.467   2.744   1.212
 1690TIP3   OH2 5033   1.914   4.519   1.284
 1690TIP3    H1 5034   2.008   4.502   1.282
 1690TIP3    H2 5035   1.889   4.509   1.376
 1691TIP3   OH2 5036   0.469   2.173   2.699
 1691TIP3    H1 5037   0.560   2.192   2.677
 1691TIP3    H2 5038   0.420   2.250   2.668
 1692TIP3   OH2 5039   4.892   2.343   4.285
 1692TIP3    H1 5040   4.959   2.342   4.354
 1692TIP3    H2 5041   4.861   2.252   4.281
 1693TIP3   OH2 5042   1.969   0.001   1.788
 1693TIP3    H1 5043   2.015  -0.047   1.719
 1693TIP3    H2 5044   2.015   0.085   1.793
 1694TIP3   OH2 5045   1.578   4.688   2.398
 1694TIP3    H1 5046   1.526   4.735   2.333
 1694TIP3    H2 5047   1.525   4.690   2.477
 1695TIP3   OH2 5048   0.260   2.623   2.860
 1695TIP3    H1 5049   0.260   2.564   2.936
 1695TIP3    H2 5050   0.167   2.638   2.842
 1696TIP3   OH2 5051   4.311   6.179   0.598
 1696TIP3    H1 5052   4.386   6.144   0.550
 1696TIP3    H2 5053   4.251   6.105   0.607
 1697TIP3   OH2 5054   3.662   5.967   2.183
 1697TIP3    H1 5055   3.611   5.895   2.147
 1697TIP3    H2 5056   3.597   6.036   2.198
 1698TIP3   OH2 5057   6.957   1.126   4.040
 1698TIP3    H1 5058   6.930   1.192   3.976
 1698TIP3    H2 5059   7.031   1.082   3.999
 1699TIP3   OH2 5060   0.787   0.179   2.892
 1699TIP3    H1 5061   0.785   0.268   2.925
 1699TIP3    H2 5062   0.820   0.187   2.802
 1700TIP3   OH2 5063   2.761   0.342   1.392
 1700TIP3    H1 5064   2.739   0.434   1.401
 1700TIP3    H2 5065   2.839   0.330   1.446
 1701TIP3   OH2 5066   5.371   4.974   0.987
 1701TIP3    H1 5067   5.463   4.968   1.013
 1701TIP3    H2 5068   5.350   4.887   0.953
 1702TIP3   OH2 5069   3.247   0.322   1.892
 1702TIP3    H1 5070   3.262   0.339   1.799
 1702TIP3    H2 5071   3.335   0.317   1.931
 1703TIP3   OH2 5072   0.240   0.019   0.072
 1703TIP3    H1 5073   0.250   0.095   0.128
 1703TIP3    H2 5074   0.149  -0.007   0.082
 1704TIP3   OH2 5075   2.751   6.557   4.057
 1704TIP3    H1 5076   2.732   6.543   4.150
 1704TIP3    H2 5077   2.669   6.592   4.021
 1705TIP3   OH2 5078   0.554   0.733   1.334
 1705TIP3    H1 5079   0.584   0.759   1.246
 1705TIP3    H2 5080   0.459   0.723   1.324
 1706TIP3   OH2 5081   6.969   0.292   1.145
 1706TIP3    H1 5082   7.001   0.320   1.059
 1706TIP3    H2 5083   6.879   0.326   1.149
 1707TIP3   OH2 5084   0.896   0.977   4.304
 1707TIP3    H1 5085   0.894   0.894   4.351
 1707TIP3    H2 5086   0.975   0.972   4.250
 1708TIP3   OH2 5087   0.157   4.268   2.419
 1708TIP3    H1 5088   0.247   4.256   2.451
 1708TIP3    H2 5089   0.103   4.221   2.483
 1709TIP3   OH2 5090   2.311   5.322   1.688
 1709TIP3    H1 5091   2.251   5.357   1.755
 1709TIP3    H2 5092   2.301   5.381   1.614
 1710TIP3   OH2 5093   1.445   5.298   5.678
 1710TIP3    H1 5094   1.512   5.270   5.740
 1710TIP3    H2 5095   1.364   5.297   5.729
 1711TIP3   OH2 5096   1.189   5.563   1.229
 1711TIP3    H1 5097   1.267   5.619   1.220
 1711TIP3    H2 5098   1.204   5.491   1.167
 1712TIP3   OH2 5099   4.840   0.682   1.053
 1712TIP3    H1 5100   4.792   0.600   1.066
 1712TIP3    H2 5101   4.891   0.668   0.973
 1713TIP3   OH2 5102   1.890   2.357   3.708
 1713TIP3    H1 5103   1.804   2.332   3.675
 1713TIP3    H2 5104   1.897   2.312   3.792
 1714TIP3   OH2 5105   2.780   3.349   0.026
 1714TIP3    H1 5106   2.836   3.337   0.103
 1714TIP3    H2 5107   2.701   3.298   0.046
 1715TIP3   OH2 5108   6.300   2.506   3.420
 1715TIP3    H1 5109   6.314   2.418   3.386
 1715TIP3    H2 5110   6.212   2.504   3.457
 1716TIP3   OH2 5111   4.577   6.629   0.314
 1716TIP3    H1 5112   4.553   6.718   0.338
 1716TIP3    H2 5113   4.577   6.629   0.218
 1717TIP3   OH2 5114   2.771   4.675   1.571
 1717TIP3    H1 5115   2.692   4.727   1.585
 1717TIP3    H2 5116   2.842   4.740   1.570
 1718TIP3   OH2 5117   5.692   4.261   1.750
 1718TIP3    H1 5118   5.668   4.169   1.743
 1718TIP3    H2 5119   5.717   4.273   1.842
 1719TIP3   OH2 5120   6.558   2.721   0.295
 1719TIP3    H1 5121   6.481   2.732   0.239
 1719TIP3    H2 5122   6.527   2.667   0.368
 1720TIP3   OH2 5123   2.346   0.436   4.450
 1720TIP3    H1 5124   2.396   0.442   4.532
 1720TIP3    H2 5125   2.322   0.343   4.444
 1721TIP3   OH2 5126   7.048   5.311   0.602
 1721TIP3    H1 5127   7.059   5.306   0.507
 1721TIP3    H2 5128   7.136   5.324   0.636
 1722TIP3   OH2 5129   0.826   6.177   4.464
 1722TIP3    H1 5130   0.779   6.213   4.540
 1722TIP3    H2 5131   0.756   6.148   4.405
 1723TIP3   OH2 5132   2.127   3.567   1.542
 1723TIP3    H1 5133   2.135   3.521   1.458
 1723TIP3    H2 5134   2.049   3.530   1.582
 1724TIP3   OH2 5135   7.161   6.159   0.831
 1724TIP3    H1 5136   7.226   6.225   0.807
 1724TIP3    H2 5137   7.152   6.167   0.926
 1725TIP3   OH2 5138   0.486   3.254   1.904
 1725TIP3    H1 5139   0.445   3.245   1.990
 1725TIP3    H2 5140   0.443   3.330   1.865
 1726TIP3   OH2 5141   1.214   6.080   0.862
 1726TIP3    H1 5142   1.180   5.991   0.863
 1726TIP3    H2 5143   1.218   6.106   0.954
 1727TIP3   OH2 5144   6.208   6.290   1.423
 1727TIP3    H1 5145   6.251   6.354   1.479
 1727TIP3    H2 5146   6.130   6.336   1.391
 1728TIP3   OH2 5147   3.213   4.083   0.648
 1728TIP3    H1 5148   3.207   4.000   0.695
 1728TIP3    H2 5149   3.306   4.105   0.650
 1729TIP3   OH2 5150   7.057   0.770   4.078
 1729TIP3    H1 5151   7.090   0.803   4.162
 1729TIP3    H2 5152   7.112   0.814   4.012
 1730TIP3   OH2 5153   1.599   0.769   2.541
 1730TIP3    H1 5154   1.541   0.725   2.479
 1730TIP3    H2 5155   1.640   0.698   2.591
 1731TIP3   OH2 5156   2.759   2.706   2.757
 1731TIP3    H1 5157   2.815   2.778   2.726
 1731TIP3    H2 5158   2.673   2.724   2.719
 1732TIP3   OH2 5159   6.758   0.322   5.603
 1732TIP3    H1 5160   6.674   0.353   5.635
 1732TIP3    H2 5161   6.773   0.373   5.523
 1733TIP3   OH2 5162   5.712   0.883   4.110
 1733TIP3    H1 5163   5.725   0.867   4.203
 1733TIP3    H2 5164   5.750   0.807   4.066
 1734TIP3   OH2 5165   4.653   6.088   0.771
 1734TIP3    H1 5166   4.647   6.007   0.822
 1734TIP3    H2 5167   4.747   6.110   0.773
 1735TIP3   OH2 5168   1.647   5.524   1.932
 1735TIP3    H1 5169   1.718   5.588   1.931
 1735TIP3    H2 5170   1.569   5.573   1.906
 1736TIP3   OH2 5171   1.610   1.793   0.948
 1736TIP3    H1 5172   1.701   1.772   0.925
 1736TIP3    H2 5173   1.618   1.852   1.023
 1737TIP3   OH2 5174   2.185   0.968   4.678
 1737TIP3    H1 5175   2.192   0.899   4.612
 1737TIP3    H2 5176   2.217   1.047   4.633
 1738TIP3   OH2 5177   1.944   5.008   5.877
 1738TIP3    H1 5178   1.911   5.072   5.814
 1738TIP3    H2 5179   1.906   4.924   5.849
 1739TIP3   OH2 5180   2.815   0.059   2.298
 1739TIP3    H1 5181   2.905   0.047   2.267
 1739TIP3    H2 5182   2.796  -0.019   2.349
 1740TIP3   OH2 5183   0.376   1.358   1.540
 1740TIP3    H1 5184   0.343   1.412   1.612
 1740TIP3    H2 5185   0.373   1.269   1.574
 1741TIP3   OH2 5186   3.638   4.716   2.534
 1741TIP3    H1 5187   3.614   4.656   2.603
 1741TIP3    H2 5188   3.648   4.801   2.578
 1742TIP3   OH2 5189   2.431   1.504   2.710
 1742TIP3    H1 5190   2.474   1.567   2.767
 1742TIP3    H2 5191   2.431   1.546   2.624
 1743TIP3   OH2 5192   1.516   1.764   1.758
 1743TIP3    H1 5193   1.602   1.805   1.755
 1743TIP3    H2 5194   1.533   1.670   1.757
 1744TIP3   OH2 5195   5.228   1.771   4.131
 1744TIP3    H1 5196   5.136   1.758   4.152
 1744TIP3    H2 5197   5.275   1.709   4.187
 1745TIP3   OH2 5198   4.830   3.233   2.498
 1745TIP3    H1 5199   4.766   3.179   2.544
 1745TIP3    H2 5200   4.915   3.196   2.524
 1746TIP3   OH2 5201   6.268   5.538   4.949
 1746TIP3    H1 5202   6.336   5.597   4.916
 1746TIP3    H2 5203   6.201   5.596   4.985
 1747TIP3   OH2 5204   1.676   0.020   0.869
 1747TIP3    H1 5205   1.612   0.052   0.805
 1747TIP3    H2 5206   1.737  -0.032   0.817
 1748TIP3   OH2 5207   0.281   5.848   1.879
 1748TIP3    H1 5208   0.327   5.770   1.851
 1748TIP3    H2 5209   0.188   5.826   1.870
 1749TIP3   OH2 5210   5.535   6.570   5.656
 1749TIP3    H1 5211   5.617   6.533   5.623
 1749TIP3    H2 5212   5.543   6.567   5.751
 1750TIP3   OH2 5213   4.740   0.284   3.620
 1750TIP3    H1 5214   4.656   0.238   3.628
 1750TIP3    H2 5215   4.793   0.227   3.564
 1751TIP3   OH2 5216   0.811   0.475   4.942
 1751TIP3    H1 5217   0.865   0.492   5.019
 1751TIP3    H2 5218   0.743   0.415   4.973
 1752TIP3   OH2 5219   0.349   4.727   4.191
 1752TIP3    H1 5220   0.407   4.657   4.161
 1752TIP3    H2 5221   0.398   4.807   4.176
 1753TIP3   OH2 5222   6.115   5.626   2.054
 1753TIP3    H1 5223   6.084   5.544   2.016
 1753TIP3    H2 5224   6.107   5.613   2.149
 1754TIP3   OH2 5225   4.246   4.880   4.916
 1754TIP3    H1 5226   4.270   4.792   4.947
 1754TIP3    H2 5227   4.329   4.918   4.887
 1755TIP3   OH2 5228   6.379   5.754   2.140
 1755TIP3    H1 5229   6.445   5.687   2.128
 1755TIP3    H2 5230   6.300   5.718   2.099
 1756TIP3   OH2 5231   4.807   2.705   2.648
 1756TIP3    H1 5232   4.844   2.725   2.562
 1756TIP3    H2 5233   4.882   2.681   2.702
 1757TIP3   OH2 5234   0.101   4.949   2.980
 1757TIP3    H1 5235   0.124   5.008   2.908
 1757TIP3    H2 5236   0.010   4.971   3.000
 1758TIP3   OH2 5237   7.192   3.078   5.120
 1758TIP3    H1 5238   7.200   3.030   5.037
 1758TIP3    H2 5239   7.241   3.025   5.183
 1759TIP3   OH2 5240   2.982   3.135   3.341
 1759TIP3    H1 5241   3.068   3.171   3.318
 1759TIP3    H2 5242   2.969   3.159   3.433
 1760TIP3   OH2 5243   0.776   2.515   4.181
 1760TIP3    H1 5244   0.777   2.531   4.276
 1760TIP3    H2 5245   0.774   2.603   4.142
 1761TIP3   OH2 5246   1.892   6.484   0.729
 1761TIP3    H1 5247   1.985   6.488   0.708
 1761TIP3    H2 5248   1.851   6.450   0.649
 1762TIP3   OH2 5249   0.586   3.319   5.597
 1762TIP3    H1 5250   0.676   3.302   5.568
 1762TIP3    H2 5251   0.572   3.257   5.667
 1763TIP3   OH2 5252   6.309   3.022   4.485
 1763TIP3    H1 5253   6.218   2.996   4.466
 1763TIP3    H2 5254   6.315   3.019   4.581
 1764TIP3   OH2 5255   5.945   1.650   2.701
 1764TIP3    H1 5256   5.993   1.733   2.707
 1764TIP3    H2 5257   5.892   1.647   2.781
 1765TIP3   OH2 5258   5.371   4.624   5.345
 1765TIP3    H1 5259   5.323   4.558   5.395
 1765TIP3    H2 5260   5.343   4.708   5.382
 1766TIP3   OH2 5261   2.257   6.494   4.346
 1766TIP3    H1 5262   2.335   6.533   4.308
 1766TIP3    H2 5263   2.213   6.452   4.272
 1767TIP3   OH2 5264   4.310   2.760   3.607
 1767TIP3    H1 5265   4.362   2.831   3.568
 1767TIP3    H2 5266   4.221   2.795   3.609
 1768TIP3   OH2 5267   5.270   3.041   0.449
 1768TIP3    H1 5268   5.243   3.076   0.534
 1768TIP3    H2 5269   5.190   3.002   0.414
 1769TIP3   OH2 5270   0.054   3.162   2.633
 1769TIP3    H1 5271   0.066   3.254   2.656
 1769TIP3    H2 5272  -0.034   3.141   2.665
 1770TIP3   OH2 5273   5.966   2.990   2.195
 1770TIP3    H1 5274   5.915   2.951   2.266
 1770TIP3    H2 5275   5.991   3.076   2.226
 1771TIP3   OH2 5276   5.484   0.045   5.137
 1771TIP3    H1 5277   5.475  -0.006   5.217
 1771TIP3    H2 5278   5.527   0.126   5.165
 1772TIP3   OH2 5279   6.476   3.513   5.527
 1772TIP3    H1 5280   6.491   3.436   5.471
 1772TIP3    H2 5281   6.529   3.582   5.487
 1773TIP3   OH2 5282   4.817   3.098   3.903
 1773TIP3    H1 5283   4.744   3.101   3.841
 1773TIP3    H2 5284   4.892   3.068   3.851
 1774TIP3   OH2 5285   6.871   3.925   3.042
 1774TIP3    H1 5286   6.955   3.965   3.062
 1774TIP3    H2 5287   6.806   3.990   3.068
 1775TIP3   OH2 5288   2.672   2.302   3.780
 1775TIP3    H1 5289   2.592   2.249   3.784
 1775TIP3    H2 5290   2.641   2.392   3.783
 1776TIP3   OH2 5291   1.248   1.341   0.100
 1776TIP3    H1 5292   1.255   1.431   0.133
 1776TIP3    H2 5293   1.319   1.294   0.144
 1777TIP3   OH2 5294   2.044   2.857   5.660
 1777TIP3    H1 5295   2.051   2.949   5.635
 1777TIP3    H2 5296   1.953   2.846   5.688
 1778TIP3   OH2 5297   2.920   3.805   5.422
 1778TIP3    H1 5298   3.010   3.799   5.389
 1778TIP3    H2 5299   2.895   3.896   5.409
 1779TIP3   OH2 5300   0.715   2.042   5.092
 1779TIP3    H1 5301   0.660   2.117   5.072
 1779TIP3    H2 5302   0.654   1.968   5.098
 1780TIP3   OH2 5303   7.052   6.724   4.949
 1780TIP3    H1 5304   6.989   6.686   4.888
 1780TIP3    H2 5305   7.032   6.817   4.949
 1781TIP3   OH2 5306   1.672   0.717   4.287
 1781TIP3    H1 5307   1.608   0.646   4.291
 1781TIP3    H2 5308   1.682   0.736   4.194
 1782TIP3   OH2 5309   4.799   2.922   5.815
 1782TIP3    H1 5310   4.776   3.014   5.828
 1782TIP3    H2 5311   4.747   2.875   5.880
 1783TIP3   OH2 5312   3.330   6.666   5.332
 1783TIP3    H1 5313   3.360   6.666   5.423
 1783TIP3    H2 5314   3.243   6.627   5.336
 1784TIP3   OH2 5315   0.575   4.802   2.448
 1784TIP3    H1 5316   0.651   4.858   2.464
 1784TIP3    H2 5317   0.554   4.765   2.534
 1785TIP3   OH2 5318   4.214   5.794   2.981
 1785TIP3    H1 5319   4.219   5.890   2.984
 1785TIP3    H2 5320   4.289   5.765   3.033
 1786TIP3   OH2 5321   2.800   4.202   3.426
 1786TIP3    H1 5322   2.856   4.165   3.494
 1786TIP3    H2 5323   2.768   4.127   3.377
 1787TIP3   OH2 5324   6.952   3.145   0.076
 1787TIP3    H1 5325   7.036   3.171   0.038
 1787TIP3    H2 5326   6.887   3.198   0.029
 1788TIP3   OH2 5327   1.968   5.416   3.513
 1788TIP3    H1 5328   1.994   5.434   3.603
 1788TIP3    H2 5329   1.965   5.321   3.508
 1789TIP3   OH2 5330   4.755   3.535   0.365
 1789TIP3    H1 5331   4.784   3.568   0.450
 1789TIP3    H2 5332   4.813   3.577   0.302
 1790TIP3   OH2 5333   6.593   6.675   3.162
 1790TIP3    H1 5334   6.607   6.629   3.245
 1790TIP3    H2 5335   6.544   6.753   3.186
 1791TIP3   OH2 5336   4.506   0.145   1.453
 1791TIP3    H1 5337   4.414   0.119   1.453
 1791TIP3    H2 5338   4.504   0.238   1.476
 1792TIP3   OH2 5339   7.168   0.055   2.716
 1792TIP3    H1 5340   7.247   0.096   2.751
 1792TIP3    H2 5341   7.141  -0.006   2.784
 1793TIP3   OH2 5342   5.771   5.992   0.662
 1793TIP3    H1 5343   5.865   5.974   0.662
 1793TIP3    H2 5344   5.759   6.055   0.591
 1794TIP3   OH2 5345   4.229   4.734   2.303
 1794TIP3    H1 5346   4.137   4.731   2.277
 1794TIP3    H2 5347   4.258   4.643   2.297
 1795TIP3   OH2 5348   5.688   1.775   3.538
 1795TIP3    H1 5349   5.751   1.779   3.609
 1795TIP3    H2 5350   5.687   1.682   3.512
 1796TIP3   OH2 5351   2.671   1.627   4.969
 1796TIP3    H1 5352   2.715   1.712   4.977
 1796TIP3    H2 5353   2.674   1.607   4.876
 1797TIP3   OH2 5354   2.851   0.004   5.547
 1797TIP3    H1 5355   2.812   0.072   5.492
 1797TIP3    H2 5356   2.819   0.025   5.635
 1798TIP3   OH2 5357   4.224   5.426   4.024
 1798TIP3    H1 5358   4.311   5.460   4.002
 1798TIP3    H2 5359   4.175   5.502   4.055
 1799TIP3   OH2 5360   2.290   4.436   5.285
 1799TIP3    H1 5361   2.307   4.375   5.213
 1799TIP3    H2 5362   2.213   4.400   5.330
 1800TIP3   OH2 5363   4.550   0.341   3.937
 1800TIP3    H1 5364   4.508   0.366   4.019
 1800TIP3    H2 5365   4.634   0.388   3.937
 1801TIP3   OH2 5366   6.016   0.851   2.297
 1801TIP3    H1 5367   5.922   0.834   2.284
 1801TIP3    H2 5368   6.054   0.765   2.316
 1802TIP3   OH2 5369   5.209   1.016   1.141
 1802TIP3    H1 5370   5.185   0.927   1.165
 1802TIP3    H2 5371   5.304   1.019   1.153
 1803TIP3   OH2 5372   3.034   4.625   5.583
 1803TIP3    H1 5373   3.119   4.588   5.561
 1803TIP3    H2 5374   3.044   4.656   5.673
 1804TIP3   OH2 5375   0.287   5.566   1.155
 1804TIP3    H1 5376   0.317   5.584   1.067
 1804TIP3    H2 5377   0.206   5.616   1.165
 1805TIP3   OH2 5378   4.964   4.307   2.983
 1805TIP3    H1 5379   4.958   4.355   3.066
 1805TIP3    H2 5380   4.908   4.230   2.996
 1806TIP3   OH2 5381   3.226   1.178   4.508
 1806TIP3    H1 5382   3.268   1.233   4.574
 1806TIP3    H2 5383   3.189   1.106   4.558
 1807TIP3   OH2 5384   4.791   0.044   4.955
 1807TIP3    H1 5385   4.853   0.014   5.021
 1807TIP3    H2 5386   4.791  -0.025   4.888
 1808TIP3   OH2 5387   1.611   3.735   0.031
 1808TIP3    H1 5388   1.582   3.650  -0.002
 1808TIP3    H2 5389   1.530   3.785   0.043
 1809TIP3   OH2 5390   6.631   4.538   0.383
 1809TIP3    H1 5391   6.549   4.581   0.358
 1809TIP3    H2 5392   6.614   4.504   0.471
 1810TIP3   OH2 5393   2.707   5.808   1.523
 1810TIP3    H1 5394   2.791   5.849   1.543
 1810TIP3    H2 5395   2.704   5.730   1.578
 1811TIP3   OH2 5396   0.875   0.996   1.248
 1811TIP3    H1 5397   0.839   1.074   1.207
 1811TIP3    H2 5398   0.966   1.020   1.269
 1812TIP3   OH2 5399   0.648   5.202   4.862
 1812TIP3    H1 5400   0.554   5.219   4.875
 1812TIP3    H2 5401   0.651   5.122   4.810
 1813TIP3   OH2 5402   1.270   5.178   4.935
 1813TIP3    H1 5403   1.262   5.109   5.000
 1813TIP3    H2 5404   1.365   5.191   4.926
 1814TIP3   OH2 5405   5.833   3.982   2.455
 1814TIP3    H1 5406   5.791   4.042   2.517
 1814TIP3    H2 5407   5.779   3.903   2.457
 1815TIP3   OH2 5408   7.026   4.992   2.783
 1815TIP3    H1 5409   7.018   5.011   2.876
 1815TIP3    H2 5410   7.030   5.078   2.741
 1816TIP3   OH2 5411   2.151   1.488   2.781
 1816TIP3    H1 5412   2.246   1.486   2.795
 1816TIP3    H2 5413   2.137   1.563   2.722
 1817TIP3   OH2 5414   1.977   0.285   0.578
 1817TIP3    H1 5415   1.978   0.380   0.574
 1817TIP3    H2 5416   1.915   0.264   0.648
 1818TIP3   OH2 5417   7.104   5.157   2.538
 1818TIP3    H1 5418   7.094   5.083   2.478
 1818TIP3    H2 5419   7.118   5.232   2.481
 1819TIP3   OH2 5420   0.688   6.252   2.697
 1819TIP3    H1 5421   0.607   6.205   2.677
 1819TIP3    H2 5422   0.732   6.196   2.762
 1820TIP3   OH2 5423   4.936   1.107   2.250
 1820TIP3    H1 5424   4.998   1.097   2.178
 1820TIP3    H2 5425   4.924   1.201   2.259
 1821TIP3   OH2 5426   0.318   6.273   1.106
 1821TIP3    H1 5427   0.397   6.258   1.157
 1821TIP3    H2 5428   0.331   6.359   1.066
 1822TIP3   OH2 5429   3.614   1.873   4.138
 1822TIP3    H1 5430   3.664   1.939   4.089
 1822TIP3    H2 5431   3.540   1.852   4.081
 1823TIP3   OH2 5432   4.583   4.560   1.179
 1823TIP3    H1 5433   4.544   4.633   1.130
 1823TIP3    H2 5434   4.612   4.600   1.261
 1824TIP3   OH2 5435   2.075   2.420   2.377
 1824TIP3    H1 5436   2.114   2.339   2.342
 1824TIP3    H2 5437   2.141   2.487   2.361
 1825TIP3   OH2 5438   2.932   6.780   3.156
 1825TIP3    H1 5439   3.006   6.755   3.211
 1825TIP3    H2 5440   2.961   6.858   3.110
 1826TIP3   OH2 5441   5.004   5.970   4.051
 1826TIP3    H1 5442   5.013   5.946   4.143
 1826TIP3    H2 5443   4.910   5.981   4.038
 1827TIP3   OH2 5444   4.330   3.585   2.447
 1827TIP3    H1 5445   4.400   3.520   2.448
 1827TIP3    H2 5446   4.339   3.630   2.363
 1828TIP3   OH2 5447   0.389   6.641   2.486
 1828TIP3    H1 5448   0.444   6.617   2.560
 1828TIP3    H2 5449   0.373   6.559   2.440
 1829TIP3   OH2 5450   0.632   3.219   4.480
 1829TIP3    H1 5451   0.679   3.265   4.410
 1829TIP3    H2 5452   0.612   3.288   4.544
 1830TIP3   OH2 5453   0.082   1.987   1.021
 1830TIP3    H1 5454   0.172   2.016   1.010
 1830TIP3    H2 5455   0.088   1.905   1.069
 1831TIP3   OH2 5456   3.037   3.468   4.995
 1831TIP3    H1 5457   3.035   3.466   5.090
 1831TIP3    H2 5458   3.020   3.559   4.971
 1832TIP3   OH2 5459   4.228   0.153   1.325
 1832TIP3    H1 5460   4.234   0.194   1.239
 1832TIP3    H2 5461   4.197   0.064   1.308
 1833TIP3   OH2 5462   1.697   1.504   4.865
 1833TIP3    H1 5463   1.611   1.462   4.854
 1833TIP3    H2 5464   1.676   1.596   4.882
 1834TIP3   OH2 5465   5.198   4.638   2.834
 1834TIP3    H1 5466   5.284   4.665   2.803
 1834TIP3    H2 5467   5.149   4.720   2.844
 1835TIP3   OH2 5468   0.629   3.436   3.741
 1835TIP3    H1 5469   0.724   3.444   3.732
 1835TIP3    H2 5470   0.604   3.373   3.674
 1836TIP3   OH2 5471   1.859   5.101   2.698
 1836TIP3    H1 5472   1.808   5.023   2.677
 1836TIP3    H2 5473   1.945   5.085   2.660
 1837TIP3   OH2 5474   5.820   5.168   0.105
 1837TIP3    H1 5475   5.793   5.091   0.155
 1837TIP3    H2 5476   5.738   5.209   0.076
 1838TIP3   OH2 5477   1.314   0.599   0.189
 1838TIP3    H1 5478   1.282   0.541   0.120
 1838TIP3    H2 5479   1.396   0.635   0.155
 1839TIP3   OH2 5480   2.301   5.650   2.557
 1839TIP3    H1 5481   2.220   5.695   2.581
 1839TIP3    H2 5482   2.354   5.653   2.637
 1840TIP3   OH2 5483   0.180   6.640   1.405
 1840TIP3    H1 5484   0.155   6.691   1.482
 1840TIP3    H2 5485   0.271   6.615   1.421
 1841TIP3   OH2 5486   0.693   4.686   0.723
 1841TIP3    H1 5487   0.651   4.701   0.807
 1841TIP3    H2 5488   0.785   4.710   0.737
 1842TIP3   OH2 5489   3.458   4.863   4.402
 1842TIP3    H1 5490   3.516   4.939   4.388
 1842TIP3    H2 5491   3.512   4.788   4.377
 1843TIP3   OH2 5492   4.155   4.845   1.998
 1843TIP3    H1 5493   4.069   4.865   1.961
 1843TIP3    H2 5494   4.208   4.923   1.978
 1844TIP3   OH2 5495   4.846   1.369   5.033
 1844TIP3    H1 5496   4.904   1.411   4.970
 1844TIP3    H2 5497   4.757   1.386   5.001
 1845TIP3   OH2 5498   5.907   2.297   4.428
 1845TIP3    H1 5499   5.920   2.308   4.522
 1845TIP3    H2 5500   5.843   2.365   4.405
 1846TIP3   OH2 5501   7.136   4.015   4.504
 1846TIP3    H1 5502   7.065   4.078   4.498
 1846TIP3    H2 5503   7.122   3.956   4.430
 1847TIP3   OH2 5504   1.119   0.329   1.650
 1847TIP3    H1 5505   1.132   0.424   1.638
 1847TIP3    H2 5506   1.040   0.309   1.600
 1848TIP3   OH2 5507   1.560   0.038   1.896
 1848TIP3    H1 5508   1.485   0.047   1.954
 1848TIP3    H2 5509   1.624   0.101   1.929
 1849TIP3   OH2 5510   3.987   4.075   2.201
 1849TIP3    H1 5511   4.033   4.118   2.273
 1849TIP3    H2 5512   3.924   4.140   2.171
 1850TIP3   OH2 5513   1.575   5.013   1.704
 1850TIP3    H1 5514   1.602   4.934   1.657
 1850TIP3    H2 5515   1.565   4.985   1.795
 1851TIP3   OH2 5516   1.010   4.250   3.322
 1851TIP3    H1 5517   1.101   4.222   3.323
 1851TIP3    H2 5518   0.961   4.170   3.301
 1852TIP3   OH2 5519   3.941   3.813   5.683
 1852TIP3    H1 5520   4.032   3.787   5.695
 1852TIP3    H2 5521   3.918   3.780   5.596
 1853TIP3   OH2 5522   0.658   2.272   2.150
 1853TIP3    H1 5523   0.602   2.255   2.074
 1853TIP3    H2 5524   0.685   2.186   2.180
 1854TIP3   OH2 5525   3.681   6.273   2.267
 1854TIP3    H1 5526   3.719   6.211   2.204
 1854TIP3    H2 5527   3.753   6.332   2.288
 1855TIP3   OH2 5528   4.268   0.618   4.777
 1855TIP3    H1 5529   4.254   0.525   4.793
 1855TIP3    H2 5530   4.244   0.630   4.685
 1856TIP3   OH2 5531   4.429   5.763   2.023
 1856TIP3    H1 5532   4.434   5.839   1.965
 1856TIP3    H2 5533   4.492   5.701   1.987
 1857TIP3   OH2 5534   6.389   1.061   4.926
 1857TIP3    H1 5535   6.391   0.979   4.878
 1857TIP3    H2 5536   6.468   1.060   4.979
 1858TIP3   OH2 5537   1.207   5.910   4.429
 1858TIP3    H1 5538   1.197   5.826   4.384
 1858TIP3    H2 5539   1.159   5.900   4.511
 1859TIP3   OH2 5540   6.162   6.323   3.968
 1859TIP3    H1 5541   6.163   6.273   3.886
 1859TIP3    H2 5542   6.237   6.382   3.962
 1860TIP3   OH2 5543   4.415   1.537   2.356
 1860TIP3    H1 5544   4.484   1.495   2.407
 1860TIP3    H2 5545   4.461   1.601   2.302
 1861TIP3   OH2 5546   3.375   0.185   2.250
 1861TIP3    H1 5547   3.318   0.225   2.316
 1861TIP3    H2 5548   3.315   0.140   2.190
 1862TIP3   OH2 5549   3.463   0.080   4.567
 1862TIP3    H1 5550   3.385   0.114   4.611
 1862TIP3    H2 5551   3.497   0.014   4.628
 1863TIP3   OH2 5552   4.431   4.296   1.154
 1863TIP3    H1 5553   4.379   4.260   1.083
 1863TIP3    H2 5554   4.482   4.366   1.114
 1864TIP3   OH2 5555   3.204   2.614   1.532
 1864TIP3    H1 5556   3.274   2.680   1.541
 1864TIP3    H2 5557   3.249   2.530   1.543
 1865TIP3   OH2 5558   4.091   6.361   2.135
 1865TIP3    H1 5559   4.169   6.353   2.190
 1865TIP3    H2 5560   4.081   6.274   2.096
 1866TIP3   OH2 5561   6.373   4.070   3.891
 1866TIP3    H1 5562   6.338   4.068   3.980
 1866TIP3    H2 5563   6.340   4.152   3.854
 1867TIP3   OH2 5564   1.881   1.543   1.394
 1867TIP3    H1 5565   1.963   1.568   1.352
 1867TIP3    H2 5566   1.820   1.614   1.371
 1868TIP3   OH2 5567   0.751   1.195   4.027
 1868TIP3    H1 5568   0.805   1.246   3.967
 1868TIP3    H2 5569   0.669   1.243   4.034
 1869TIP3   OH2 5570   1.160   6.276   0.698
 1869TIP3    H1 5571   1.164   6.197   0.753
 1869TIP3    H2 5572   1.235   6.329   0.726
 1870TIP3   OH2 5573   5.833   1.612   0.832
 1870TIP3    H1 5574   5.786   1.630   0.913
 1870TIP3    H2 5575   5.765   1.610   0.765
 1871TIP3   OH2 5576   3.823   3.747   2.553
 1871TIP3    H1 5577   3.843   3.841   2.560
 1871TIP3    H2 5578   3.909   3.705   2.548
 1872TIP3   OH2 5579   6.766   6.451   1.147
 1872TIP3    H1 5580   6.783   6.362   1.116
 1872TIP3    H2 5581   6.708   6.489   1.082
 1873TIP3   OH2 5582   5.987   4.270   1.314
 1873TIP3    H1 5583   5.908   4.275   1.262
 1873TIP3    H2 5584   5.957   4.280   1.405
 1874TIP3   OH2 5585   1.250   1.002   2.734
 1874TIP3    H1 5586   1.268   1.096   2.737
 1874TIP3    H2 5587   1.308   0.969   2.667
 1875TIP3   OH2 5588   2.965   0.813   0.888
 1875TIP3    H1 5589   2.909   0.767   0.950
 1875TIP3    H2 5590   2.962   0.760   0.809
 1876TIP3   OH2 5591   1.438   4.625   0.756
 1876TIP3    H1 5592   1.463   4.533   0.758
 1876TIP3    H2 5593   1.362   4.630   0.815
 1877TIP3   OH2 5594   1.821   2.965   5.128
 1877TIP3    H1 5595   1.857   3.024   5.062
 1877TIP3    H2 5596   1.832   3.013   5.211
 1878TIP3   OH2 5597   6.158   3.688   2.775
 1878TIP3    H1 5598   6.213   3.661   2.701
 1878TIP3    H2 5599   6.069   3.667   2.747
 1879TIP3   OH2 5600   1.870   3.797   3.699
 1879TIP3    H1 5601   1.929   3.822   3.627
 1879TIP3    H2 5602   1.791   3.767   3.655
 1880TIP3   OH2 5603   3.462   1.770   5.634
 1880TIP3    H1 5604   3.443   1.862   5.655
 1880TIP3    H2 5605   3.379   1.736   5.600
 1881TIP3   OH2 5606   6.646   5.396   1.670
 1881TIP3    H1 5607   6.711   5.347   1.722
 1881TIP3    H2 5608   6.627   5.474   1.723
 1882TIP3   OH2 5609   7.212   1.138   3.020
 1882TIP3    H1 5610   7.173   1.085   2.951
 1882TIP3    H2 5611   7.197   1.228   2.992
 1883TIP3   OH2 5612   4.914   4.811   0.362
 1883TIP3    H1 5613   4.820   4.792   0.365
 1883TIP3    H2 5614   4.919   4.898   0.325
 1884TIP3   OH2 5615   4.003   4.848   0.590
 1884TIP3    H1 5616   3.910   4.865   0.601
 1884TIP3    H2 5617   4.044   4.887   0.667
 1885TIP3   OH2 5618   2.930   2.087   0.491
 1885TIP3    H1 5619   2.906   2.122   0.405
 1885TIP3    H2 5620   3.015   2.044   0.477
 1886TIP3   OH2 5621   3.570   0.244   3.183
 1886TIP3    H1 5622   3.523   0.166   3.213
 1886TIP3    H2 5623   3.502   0.300   3.146
 1887TIP3   OH2 5624   5.808   5.960   2.331
 1887TIP3    H1 5625   5.863   5.955   2.409
 1887TIP3    H2 5626   5.719   5.967   2.364
 1888TIP3   OH2 5627   3.083   4.881   4.103
 1888TIP3    H1 5628   3.119   4.861   4.189
 1888TIP3    H2 5629   3.128   4.820   4.044
 1889TIP3   OH2 5630   7.173   3.324   5.248
 1889TIP3    H1 5631   7.157   3.248   5.192
 1889TIP3    H2 5632   7.215   3.288   5.326
 1890TIP3   OH2 5633   2.933   0.648   5.354
 1890TIP3    H1 5634   3.004   0.699   5.393
 1890TIP3    H2 5635   2.883   0.712   5.302
 1891TIP3   OH2 5636   6.042   2.690   4.503
 1891TIP3    H1 5637   5.995   2.751   4.446
 1891TIP3    H2 5638   6.085   2.629   4.444
 1892TIP3   OH2 5639   3.549   1.752   5.362
 1892TIP3    H1 5640   3.643   1.765   5.350
 1892TIP3    H2 5641   3.538   1.746   5.457
 1893TIP3   OH2 5642   3.531   2.286   4.105
 1893TIP3    H1 5643   3.496   2.200   4.083
 1893TIP3    H2 5644   3.506   2.299   4.197
 1894TIP3   OH2 5645   5.041   4.297   4.344
 1894TIP3    H1 5646   5.092   4.218   4.323
 1894TIP3    H2 5647   4.950   4.268   4.341
 1895TIP3   OH2 5648   5.576   1.324   2.361
 1895TIP3    H1 5649   5.642   1.256   2.375
 1895TIP3    H2 5650   5.625   1.398   2.323
 1896TIP3   OH2 5651   3.903   5.158   3.313
 1896TIP3    H1 5652   3.932   5.221   3.379
 1896TIP3    H2 5653   3.841   5.102   3.359
 1897TIP3   OH2 5654   6.399   1.775   1.522
 1897TIP3    H1 5655   6.388   1.770   1.617
 1897TIP3    H2 5656   6.314   1.751   1.486
 1898TIP3   OH2 5657   5.042   4.637   0.162
 1898TIP3    H1 5658   5.000   4.680   0.236
 1898TIP3    H2 5659   4.970   4.619   0.101
 1899TIP3   OH2 5660   2.404   1.049   5.625
 1899TIP3    H1 5661   2.424   0.990   5.697
 1899TIP3    H2 5662   2.355   1.121   5.665
 1900TIP3   OH2 5663   2.183   1.007   2.830
 1900TIP3    H1 5664   2.114   1.055   2.784
 1900TIP3    H2 5665   2.262   1.057   2.814
 1901TIP3   OH2 5666   2.455   5.445   3.511
 1901TIP3    H1 5667   2.412   5.362   3.493
 1901TIP3    H2 5668   2.510   5.427   3.588
 1902TIP3   OH2 5669   1.729   4.491   2.283
 1902TIP3    H1 5670   1.672   4.557   2.324
 1902TIP3    H2 5671   1.772   4.448   2.357
 1903TIP3   OH2 5672   4.624   6.566   1.143
 1903TIP3    H1 5673   4.555   6.625   1.174
 1903TIP3    H2 5674   4.705   6.606   1.174
 1904TIP3   OH2 5675   6.047   5.041   4.166
 1904TIP3    H1 5676   6.016   5.055   4.077
 1904TIP3    H2 5677   5.991   4.971   4.200
 1905TIP3   OH2 5678   5.579   1.048   0.040
 1905TIP3    H1 5679   5.561   1.057   0.133
 1905TIP3    H2 5680   5.496   1.019   0.002
 1906TIP3   OH2 5681   1.790   4.342   1.475
 1906TIP3    H1 5682   1.703   4.304   1.462
 1906TIP3    H2 5683   1.777   4.413   1.537
 1907TIP3   OH2 5684   1.247   2.418   0.705
 1907TIP3    H1 5685   1.207   2.461   0.630
 1907TIP3    H2 5686   1.195   2.338   0.717
 1908TIP3   OH2 5687   1.099   6.112   1.123
 1908TIP3    H1 5688   1.046   6.187   1.150
 1908TIP3    H2 5689   1.035   6.044   1.102
 1909TIP3   OH2 5690   3.660   0.823   1.747
 1909TIP3    H1 5691   3.568   0.817   1.774
 1909TIP3    H2 5692   3.708   0.826   1.830
 1910TIP3   OH2 5693   7.013   3.998   0.567
 1910TIP3    H1 5694   7.019   3.904   0.552
 1910TIP3    H2 5695   6.949   4.028   0.502
 1911TIP3   OH2 5696   4.926   5.883   0.885
 1911TIP3    H1 5697   4.986   5.939   0.836
 1911TIP3    H2 5698   4.974   5.859   0.964
 1912TIP3   OH2 5699   3.534   5.902   2.680
 1912TIP3    H1 5700   3.509   5.987   2.717
 1912TIP3    H2 5701   3.613   5.921   2.630
 1913TIP3   OH2 5702   3.832   5.880   4.089
 1913TIP3    H1 5703   3.861   5.794   4.058
 1913TIP3    H2 5704   3.752   5.897   4.040
 1914TIP3   OH2 5705   0.470   4.104   4.236
 1914TIP3    H1 5706   0.533   4.170   4.263
 1914TIP3    H2 5707   0.486   4.092   4.143
 1915TIP3   OH2 5708   6.466   4.188   1.155
 1915TIP3    H1 5709   6.543   4.163   1.207
 1915TIP3    H2 5710   6.395   4.193   1.218
 1916TIP3   OH2 5711   5.202   3.678   3.518
 1916TIP3    H1 5712   5.125   3.649   3.568
 1916TIP3    H2 5713   5.190   3.772   3.507
 1917TIP3   OH2 5714   0.420   2.251   4.434
 1917TIP3    H1 5715   0.470   2.171   4.448
 1917TIP3    H2 5716   0.349   2.247   4.498
 1918TIP3   OH2 5717   6.514   6.583   0.166
 1918TIP3    H1 5718   6.598   6.581   0.121
 1918TIP3    H2 5719   6.457   6.525   0.114
 1919TIP3   OH2 5720   4.318   5.779   5.816
 1919TIP3    H1 5721   4.360   5.733   5.888
 1919TIP3    H2 5722   4.246   5.721   5.790
 1920TIP3   OH2 5723   1.346   2.988   5.202
 1920TIP3    H1 5724   1.325   3.051   5.271
 1920TIP3    H2 5725   1.434   2.957   5.224
 1921TIP3   OH2 5726   5.135   0.137   0.094
 1921TIP3    H1 5727   5.221   0.158   0.060
 1921TIP3    H2 5728   5.080   0.213   0.071
 1922TIP3   OH2 5729   4.726   0.487   5.739
 1922TIP3    H1 5730   4.729   0.399   5.777
 1922TIP3    H2 5731   4.653   0.530   5.783
 1923TIP3   OH2 5732   4.016   4.314   0.077
 1923TIP3    H1 5733   4.040   4.249   0.143
 1923TIP3    H2 5734   3.955   4.373   0.122
 1924TIP3   OH2 5735   4.096   1.124   2.033
 1924TIP3    H1 5736   4.014   1.138   2.080
 1924TIP3    H2 5737   4.069   1.094   1.946
 1925TIP3   OH2 5738   2.649   1.513   5.375
 1925TIP3    H1 5739   2.705   1.498   5.299
 1925TIP3    H2 5740   2.659   1.434   5.428
 1926TIP3   OH2 5741   1.580   2.610   4.833
 1926TIP3    H1 5742   1.516   2.622   4.903
 1926TIP3    H2 5743   1.660   2.652   4.865
 1927TIP3   OH2 5744   4.645   5.848   4.505
 1927TIP3    H1 5745   4.607   5.794   4.436
 1927TIP3    H2 5746   4.687   5.920   4.459
 1928TIP3   OH2 5747   5.176   0.984   5.295
 1928TIP3    H1 5748   5.201   1.068   5.256
 1928TIP3    H2 5749   5.081   0.988   5.302
 1929TIP3   OH2 5750   4.452   1.691   4.787
 1929TIP3    H1 5751   4.455   1.786   4.777
 1929TIP3    H2 5752   4.362   1.672   4.814
 1930TIP3   OH2 5753   0.599   2.822   5.416
 1930TIP3    H1 5754   0.580   2.825   5.510
 1930TIP3    H2 5755   0.548   2.894   5.379
 1931TIP3   OH2 5756   4.049   0.473   2.199
 1931TIP3    H1 5757   4.033   0.421   2.120
 1931TIP3    H2 5758   4.025   0.562   2.174
 1932TIP3   OH2 5759   3.212   2.533   1.263
 1932TIP3    H1 5760   3.237   2.441   1.261
 1932TIP3    H2 5761   3.208   2.555   1.356
 1933TIP3   OH2 5762   3.002   3.047   0.300
 1933TIP3    H1 5763   3.052   3.085   0.373
 1933TIP3    H2 5764   3.051   2.968   0.277
 1934TIP3   OH2 5765   2.918   3.409   0.678
 1934TIP3    H1 5766   2.848   3.444   0.621
 1934TIP3    H2 5767   2.872   3.379   0.756
 1935TIP3   OH2 5768   0.267   3.348   2.288
 1935TIP3    H1 5769   0.360   3.354   2.267
 1935TIP3    H2 5770   0.254   3.258   2.317
 1936TIP3   OH2 5771   1.644   6.134   2.119
 1936TIP3    H1 5772   1.556   6.099   2.105
 1936TIP3    H2 5773   1.638   6.225   2.092
 1937TIP3   OH2 5774   3.274   2.075   3.551
 1937TIP3    H1 5775   3.266   2.154   3.498
 1937TIP3    H2 5776   3.220   2.092   3.628
 1938TIP3   OH2 5777   3.032   0.907   1.637
 1938TIP3    H1 5778   2.977   0.893   1.560
 1938TIP3    H2 5779   2.975   0.950   1.700
 1939TIP3   OH2 5780   5.891   2.178   1.707
 1939TIP3    H1 5781   5.945   2.168   1.628
 1939TIP3    H2 5782   5.882   2.272   1.718
 1940TIP3   OH2 5783   4.900   4.139   5.639
 1940TIP3    H1 5784   4.843   4.096   5.575
 1940TIP3    H2 5785   4.876   4.101   5.723
 1941TIP3   OH2 5786   4.544   1.450   4.049
 1941TIP3    H1 5787   4.634   1.440   4.080
 1941TIP3    H2 5788   4.522   1.365   4.011
 1942TIP3   OH2 5789   0.558   0.643   4.504
 1942TIP3    H1 5790   0.466   0.651   4.481
 1942TIP3    H2 5791   0.558   0.600   4.590
 1943TIP3   OH2 5792   1.236   3.812   2.055
 1943TIP3    H1 5793   1.173   3.857   2.112
 1943TIP3    H2 5794   1.311   3.794   2.112
 1944TIP3   OH2 5795   0.334   1.281   5.197
 1944TIP3    H1 5796   0.309   1.231   5.119
 1944TIP3    H2 5797   0.252   1.295   5.244
 1945TIP3   OH2 5798   6.013   6.114   3.811
 1945TIP3    H1 5799   6.066   6.049   3.766
 1945TIP3    H2 5800   6.034   6.196   3.767
 1946TIP3   OH2 5801   0.781   2.397   3.123
 1946TIP3    H1 5802   0.865   2.410   3.077
 1946TIP3    H2 5803   0.732   2.338   3.067
 1947TIP3   OH2 5804   2.040   2.689   1.633
 1947TIP3    H1 5805   2.000   2.737   1.707
 1947TIP3    H2 5806   2.029   2.748   1.558
 1948TIP3   OH2 5807   2.951   6.742   0.442
 1948TIP3    H1 5808   2.971   6.831   0.412
 1948TIP3    H2 5809   2.972   6.686   0.367
 1949TIP3   OH2 5810   3.882   0.069   3.007
 1949TIP3    H1 5811   3.958   0.015   2.982
 1949TIP3    H2 5812   3.829   0.073   2.927
 1950TIP3   OH2 5813   4.507   2.293   2.780
 1950TIP3    H1 5814   4.458   2.222   2.822
 1950TIP3    H2 5815   4.506   2.271   2.687
 1951TIP3   OH2 5816   1.748   6.111   3.173
 1951TIP3    H1 5817   1.721   6.202   3.159
 1951TIP3    H2 5818   1.703   6.062   3.104
 1952TIP3   OH2 5819   0.995   2.030   4.352
 1952TIP3    H1 5820   0.925   2.082   4.312
 1952TIP3    H2 5821   0.960   1.941   4.356
 1953TIP3   OH2 5822   3.589   4.465   0.049
 1953TIP3    H1 5823   3.570   4.554   0.079
 1953TIP3    H2 5824   3.557   4.462  -0.041
 1954TIP3   OH2 5825   5.987   2.665   5.312
 1954TIP3    H1 5826   5.945   2.716   5.382
 1954TIP3    H2 5827   6.011   2.582   5.353
 1955TIP3   OH2 5828   1.463   1.099   3.476
 1955TIP3    H1 5829   1.522   1.085   3.550
 1955TIP3    H2 5830   1.483   1.028   3.415
 1956TIP3   OH2 5831   5.547   3.949   0.616
 1956TIP3    H1 5832   5.481   4.016   0.596
 1956TIP3    H2 5833   5.509   3.899   0.687
 1957TIP3   OH2 5834   6.471   5.602   0.673
 1957TIP3    H1 5835   6.472   5.688   0.630
 1957TIP3    H2 5836   6.379   5.589   0.698
 1958TIP3   OH2 5837   1.537   5.406   3.539
 1958TIP3    H1 5838   1.490   5.432   3.618
 1958TIP3    H2 5839   1.542   5.486   3.486
 1959TIP3   OH2 5840   4.748   0.438   4.121
 1959TIP3    H1 5841   4.813   0.417   4.189
 1959TIP3    H2 5842   4.794   0.500   4.064
 1960TIP3   OH2 5843   6.201   3.809   3.309
 1960TIP3    H1 5844   6.184   3.799   3.215
 1960TIP3    H2 5845   6.244   3.727   3.335
 1961TIP3   OH2 5846   4.401   5.676   3.683
 1961TIP3    H1 5847   4.360   5.615   3.622
 1961TIP3    H2 5848   4.495   5.655   3.678
 1962TIP3   OH2 5849   0.493   3.727   3.005
 1962TIP3    H1 5850   0.450   3.792   2.950
 1962TIP3    H2 5851   0.487   3.762   3.094
 1963TIP3   OH2 5852   4.559   5.624   5.536
 1963TIP3    H1 5853   4.629   5.581   5.487
 1963TIP3    H2 5854   4.603   5.692   5.586
 1964TIP3   OH2 5855   1.170   3.874   0.245
 1964TIP3    H1 5856   1.145   3.837   0.330
 1964TIP3    H2 5857   1.160   3.802   0.183
 1965TIP3   OH2 5858   6.163   2.952   3.096
 1965TIP3    H1 5859   6.194   2.873   3.052
 1965TIP3    H2 5860   6.068   2.938   3.105
 1966TIP3   OH2 5861   3.363   5.533   5.835
 1966TIP3    H1 5862   3.275   5.561   5.809
 1966TIP3    H2 5863   3.408   5.514   5.753
 1967TIP3   OH2 5864   5.248   6.335   4.406
 1967TIP3    H1 5865   5.328   6.287   4.384
 1967TIP3    H2 5866   5.223   6.302   4.493
 1968TIP3   OH2 5867   4.910   2.271   2.760
 1968TIP3    H1 5868   4.917   2.224   2.677
 1968TIP3    H2 5869   5.001   2.283   2.788
 1969TIP3   OH2 5870   3.403   5.790   4.882
 1969TIP3    H1 5871   3.331   5.754   4.935
 1969TIP3    H2 5872   3.372   5.876   4.854
 1970TIP3   OH2 5873   1.937   2.003   0.750
 1970TIP3    H1 5874   1.898   2.090   0.757
 1970TIP3    H2 5875   2.013   2.016   0.694
 1971TIP3   OH2 5876   5.440   3.669   3.033
 1971TIP3    H1 5877   5.438   3.757   2.994
 1971TIP3    H2 5878   5.533   3.645   3.032
 1972TIP3   OH2 5879   6.678   6.177   0.819
 1972TIP3    H1 5880   6.678   6.088   0.854
 1972TIP3    H2 5881   6.609   6.176   0.752
 1973TIP3   OH2 5882   4.198   2.624   0.866
 1973TIP3    H1 5883   4.208   2.563   0.793
 1973TIP3    H2 5884   4.125   2.680   0.842
 1974TIP3   OH2 5885   1.405   0.247   0.412
 1974TIP3    H1 5886   1.449   0.320   0.456
 1974TIP3    H2 5887   1.320   0.240   0.455
 1975TIP3   OH2 5888   0.803   1.536   2.531
 1975TIP3    H1 5889   0.716   1.572   2.545
 1975TIP3    H2 5890   0.848   1.603   2.479
 1976TIP3   OH2 5891   0.357   1.898   4.000
 1976TIP3    H1 5892   0.381   1.928   3.913
 1976TIP3    H2 5893   0.302   1.822   3.985
 1977TIP3   OH2 5894   5.991   5.914   2.531
 1977TIP3    H1 5895   6.004   6.004   2.563
 1977TIP3    H2 5896   6.079   5.885   2.506
 1978TIP3   OH2 5897   3.309   3.528   5.021
 1978TIP3    H1 5898   3.239   3.468   4.996
 1978TIP3    H2 5899   3.280   3.614   4.989
 1979TIP3   OH2 5900   1.920   2.113   3.573
 1979TIP3    H1 5901   1.995   2.158   3.535
 1979TIP3    H2 5902   1.848   2.175   3.566
 1980TIP3   OH2 5903   3.171   5.086   4.345
 1980TIP3    H1 5904   3.080   5.075   4.375
 1980TIP3    H2 5905   3.204   4.996   4.334
 1981TIP3   OH2 5906   0.368   1.023   3.550
 1981TIP3    H1 5907   0.284   0.978   3.539
 1981TIP3    H2 5908   0.367   1.092   3.484
 1982TIP3   OH2 5909   4.908   0.094   2.275
 1982TIP3    H1 5910   4.822   0.115   2.238
 1982TIP3    H2 5911   4.905  -0.001   2.290
 1983TIP3   OH2 5912   1.696   6.629   5.469
 1983TIP3    H1 5913   1.697   6.616   5.375
 1983TIP3    H2 5914   1.631   6.566   5.502
 1984TIP3   OH2 5915   2.699   3.951   3.307
 1984TIP3    H1 5916   2.701   3.870   3.256
 1984TIP3    H2 5917   2.606   3.971   3.317
 1985TIP3   OH2 5918   1.867   3.926   0.609
 1985TIP3    H1 5919   1.940   3.869   0.636
 1985TIP3    H2 5920   1.791   3.868   0.607
 1986TIP3   OH2 5921   4.700   5.680   5.054
 1986TIP3    H1 5922   4.751   5.725   4.987
 1986TIP3    H2 5923   4.754   5.604   5.078
 1987TIP3   OH2 5924   2.837   0.488   0.158
 1987TIP3    H1 5925   2.928   0.461   0.170
 1987TIP3    H2 5926   2.800   0.422   0.099
 1988TIP3   OH2 5927   3.873   4.521   0.215
 1988TIP3    H1 5928   3.801   4.502   0.154
 1988TIP3    H2 5929   3.847   4.601   0.259
 1989TIP3   OH2 5930   4.591   2.207   3.594
 1989TIP3    H1 5931   4.516   2.153   3.618
 1989TIP3    H2 5932   4.640   2.217   3.676
 1990TIP3   OH2 5933   3.246   2.905   4.452
 1990TIP3    H1 5934   3.306   2.932   4.521
 1990TIP3    H2 5935   3.203   2.826   4.486
 1991TIP3   OH2 5936   3.178   4.102   1.693
 1991TIP3    H1 5937   3.266   4.080   1.662
 1991TIP3    H2 5938   3.130   4.123   1.613
 1992TIP3   OH2 5939   6.435   4.927   2.178
 1992TIP3    H1 5940   6.402   4.928   2.268
 1992TIP3    H2 5941   6.495   4.852   2.176
 1993TIP3   OH2 5942   5.501   1.539   5.304
 1993TIP3    H1 5943   5.462   1.460   5.268
 1993TIP3    H2 5944   5.533   1.587   5.228
 1994TIP3   OH2 5945   4.442   4.568   3.795
 1994TIP3    H1 5946   4.348   4.552   3.786
 1994TIP3    H2 5947   4.457   4.565   3.890
 1995TIP3   OH2 5948   3.892   6.307   1.539
 1995TIP3    H1 5949   3.829   6.310   1.611
 1995TIP3    H2 5950   3.894   6.216   1.513
 1996TIP3   OH2 5951   5.427   5.194   0.444
 1996TIP3    H1 5952   5.418   5.146   0.527
 1996TIP3    H2 5953   5.405   5.284   0.467
 1997TIP3   OH2 5954   0.197   5.999   1.144
 1997TIP3    H1 5955   0.224   6.088   1.120
 1997TIP3    H2 5956   0.175   5.958   1.060
 1998TIP3   OH2 5957   7.072   6.530   5.104
 1998TIP3    H1 5958   7.032   6.547   5.189
 1998TIP3    H2 5959   7.076   6.615   5.061
 1999TIP3   OH2 5960   3.844   2.878   1.385
 1999TIP3    H1 5961   3.883   2.860   1.300
 1999TIP3    H2 5962   3.758   2.836   1.382
 2000TIP3   OH2 5963   3.877   2.649   4.018
 2000TIP3    H1 5964   3.867   2.678   4.109
 2000TIP3    H2 5965   3.963   2.607   4.016
 2001TIP3   OH2 5966   1.743   0.516   5.111
 2001TIP3    H1 5967   1.751   0.612   5.118
 2001TIP3    H2 5968   1.827   0.488   5.073
 2002TIP3   OH2 5969   6.290   6.256   5.112
 2002TIP3    H1 5970   6.221   6.277   5.049
 2002TIP3    H2 5971   6.363   6.312   5.087
 2003TIP3   OH2 5972   3.510   2.414   5.744
 2003TIP3    H1 5973   3.488   2.425   5.652
 2003TIP3    H2 5974   3.460   2.337   5.772
 2004TIP3   OH2 5975   3.403   0.406   3.706
 2004TIP3    H1 5976   3.446   0.382   3.624
 2004TIP3    H2 5977   3.461   0.471   3.745
 2005TIP3   OH2 5978   0.273   1.100   0.766
 2005TIP3    H1 5979   0.263   1.067   0.677
 2005TIP3    H2 5980   0.218   1.179   0.768
 2006TIP3   OH2 5981   6.412   6.123   2.665
 2006TIP3    H1 5982   6.490   6.068   2.656
 2006TIP3    H2 5983   6.380   6.134   2.576
 2007TIP3   OH2 5984   1.083   5.036   4.621
 2007TIP3    H1 5985   1.097   4.949   4.583
 2007TIP3    H2 5986   1.170   5.078   4.617
 2008TIP3   OH2 5987   1.439   0.814   5.049
 2008TIP3    H1 5988   1.394   0.820   5.134
 2008TIP3    H2 5989   1.462   0.722   5.041
 2009TIP3   OH2 5990   5.214   4.044   2.357
 2009TIP3    H1 5991   5.217   3.955   2.322
 2009TIP3    H2 5992   5.129   4.051   2.400
 2010TIP3   OH2 5993   0.607   3.703   4.841
 2010TIP3    H1 5994   0.545   3.737   4.905
 2010TIP3    H2 5995   0.561   3.629   4.801
 2011TIP3   OH2 5996   0.765   4.474   4.394
 2011TIP3    H1 5997   0.826   4.462   4.468
 2011TIP3    H2 5998   0.768   4.390   4.348
 2012TIP3   OH2 5999   5.630   6.804   0.448
 2012TIP3    H1 6000   5.695   6.734   0.442
 2012TIP3    H2 6001   5.611   6.812   0.541
 2013TIP3   OH2 6002   3.904   4.748   3.568
 2013TIP3    H1 6003   3.816   4.713   3.581
 2013TIP3    H2 6004   3.961   4.671   3.568
 2014TIP3   OH2 6005   3.872   6.007   2.353
 2014TIP3    H1 6006   3.947   6.038   2.302
 2014TIP3    H2 6007   3.803   5.995   2.288
 2015TIP3   OH2 6008   6.584   1.876   0.221
 2015TIP3    H1 6009   6.533   1.929   0.283
 2015TIP3    H2 6010   6.674   1.881   0.253
 2016TIP3   OH2 6011   5.030   2.633   1.471
 2016TIP3    H1 6012   5.007   2.687   1.395
 2016TIP3    H2 6013   5.037   2.696   1.543
 2017TIP3   OH2 6014   5.261   0.576   4.886
 2017TIP3    H1 6015   5.214   0.619   4.957
 2017TIP3    H2 6016   5.264   0.484   4.912
 2018TIP3   OH2 6017   5.305   4.693   3.670
 2018TIP3    H1 6018   5.391   4.650   3.675
 2018TIP3    H2 6019   5.247   4.638   3.722
 2019TIP3   OH2 6020   4.915   4.009   2.526
 2019TIP3    H1 6021   4.883   3.991   2.437
 2019TIP3    H2 6022   4.934   3.923   2.563
 2020TIP3   OH2 6023   1.407   3.987   1.554
 2020TIP3    H1 6024   1.410   3.937   1.635
 2020TIP3    H2 6025   1.422   3.922   1.485
 2021TIP3   OH2 6026   5.984   4.426   3.477
 2021TIP3    H1 6027   5.928   4.382   3.541
 2021TIP3    H2 6028   5.923   4.476   3.422
 2022TIP3   OH2 6029   3.140   2.080   1.225
 2022TIP3    H1 6030   3.157   1.992   1.259
 2022TIP3    H2 6031   3.084   2.066   1.149
 2023TIP3   OH2 6032   4.787   5.485   4.575
 2023TIP3    H1 6033   4.717   5.490   4.639
 2023TIP3    H2 6034   4.855   5.433   4.618
 2024TIP3   OH2 6035   7.126   3.441   3.351
 2024TIP3    H1 6036   7.199   3.485   3.307
 2024TIP3    H2 6037   7.053   3.448   3.289
 2025TIP3   OH2 6038   4.784   6.045   4.398
 2025TIP3    H1 6039   4.795   5.980   4.329
 2025TIP3    H2 6040   4.858   6.104   4.389
 2026TIP3   OH2 6041   1.856   5.766   3.300
 2026TIP3    H1 6042   1.783   5.753   3.239
 2026TIP3    H2 6043   1.933   5.742   3.249
 2027TIP3   OH2 6044   5.541   5.721   0.746
 2027TIP3    H1 6045   5.541   5.654   0.678
 2027TIP3    H2 6046   5.626   5.711   0.789
 2028TIP3   OH2 6047   3.256   5.810   5.414
 2028TIP3    H1 6048   3.338   5.858   5.429
 2028TIP3    H2 6049   3.188   5.868   5.448
 2029TIP3   OH2 6050   6.866   6.166   1.768
 2029TIP3    H1 6051   6.898   6.090   1.720
 2029TIP3    H2 6052   6.883   6.240   1.710
 2030TIP3   OH2 6053   2.258   3.689   1.877
 2030TIP3    H1 6054   2.345   3.650   1.882
 2030TIP3    H2 6055   2.199   3.619   1.906
 2031TIP3   OH2 6056   6.604   0.047   3.334
 2031TIP3    H1 6057   6.611   0.098   3.414
 2031TIP3    H2 6058   6.657  -0.032   3.351
 2032TIP3   OH2 6059   5.174   0.601   1.693
 2032TIP3    H1 6060   5.116   0.556   1.632
 2032TIP3    H2 6061   5.116   0.634   1.762
 2033TIP3   OH2 6062   2.698   3.909   1.996
 2033TIP3    H1 6063   2.760   3.939   2.063
 2033TIP3    H2 6064   2.737   3.937   1.913
 2034TIP3   OH2 6065   0.883   0.340   1.496
 2034TIP3    H1 6066   0.825   0.371   1.566
 2034TIP3    H2 6067   0.847   0.255   1.471
 2035TIP3   OH2 6068   6.670   2.662   4.109
 2035TIP3    H1 6069   6.714   2.696   4.187
 2035TIP3    H2 6070   6.592   2.716   4.100
 2036TIP3   OH2 6071   2.145   6.332   0.759
 2036TIP3    H1 6072   2.127   6.276   0.834
 2036TIP3    H2 6073   2.175   6.272   0.691
 2037TIP3   OH2 6074   2.503   3.346   1.441
 2037TIP3    H1 6075   2.425   3.297   1.414
 2037TIP3    H2 6076   2.478   3.389   1.522
 2038TIP3   OH2 6077   3.553   5.208   3.962
 2038TIP3    H1 6078   3.557   5.118   3.931
 2038TIP3    H2 6079   3.494   5.252   3.900
 2039TIP3   OH2 6080   5.932   6.388   4.098
 2039TIP3    H1 6081   5.867   6.434   4.045
 2039TIP3    H2 6082   6.003   6.367   4.036
 2040TIP3   OH2 6083   6.443   0.718   5.526
 2040TIP3    H1 6084   6.386   0.720   5.450
 2040TIP3    H2 6085   6.481   0.630   5.526
 2041TIP3   OH2 6086   0.925   1.258   5.340
 2041TIP3    H1 6087   0.943   1.164   5.329
 2041TIP3    H2 6088   0.851   1.262   5.400
 2042TIP3   OH2 6089   6.249   5.731   0.121
 2042TIP3    H1 6090   6.217   5.803   0.065
 2042TIP3    H2 6091   6.271   5.661   0.060
 2043TIP3   OH2 6092   0.558   3.125   2.900
 2043TIP3    H1 6093   0.576   3.033   2.881
 2043TIP3    H2 6094   0.596   3.140   2.987
 2044TIP3   OH2 6095   4.893   3.712   0.530
 2044TIP3    H1 6096   4.914   3.795   0.573
 2044TIP3    H2 6097   4.975   3.684   0.490
 2045TIP3   OH2 6098   0.455   5.394   5.342
 2045TIP3    H1 6099   0.541   5.437   5.341
 2045TIP3    H2 6100   0.420   5.410   5.254
 2046TIP3   OH2 6101   5.299   6.260   1.624
 2046TIP3    H1 6102   5.376   6.250   1.680
 2046TIP3    H2 6103   5.241   6.189   1.650
 2047TIP3   OH2 6104   1.145   4.115   4.360
 2047TIP3    H1 6105   1.176   4.130   4.270
 2047TIP3    H2 6106   1.058   4.078   4.349
 2048TIP3   OH2 6107   4.856   6.181   5.388
 2048TIP3    H1 6108   4.905   6.203   5.309
 2048TIP3    H2 6109   4.765   6.173   5.358
 2049TIP3   OH2 6110   1.527   1.222   1.400
 2049TIP3    H1 6111   1.545   1.312   1.372
 2049TIP3    H2 6112   1.589   1.169   1.351
 2050TIP3   OH2 6113   0.481   4.591   1.433
 2050TIP3    H1 6114   0.473   4.565   1.525
 2050TIP3    H2 6115   0.556   4.542   1.400
 2051TIP3   OH2 6116   2.409   0.126   2.881
 2051TIP3    H1 6117   2.348   0.092   2.946
 2051TIP3    H2 6118   2.358   0.130   2.800
 2052TIP3   OH2 6119   1.850   3.778   1.015
 2052TIP3    H1 6120   1.889   3.744   0.934
 2052TIP3    H2 6121   1.894   3.731   1.085
 2053TIP3   OH2 6122   0.818   1.891   4.816
 2053TIP3    H1 6123   0.830   1.796   4.822
 2053TIP3    H2 6124   0.867   1.926   4.890
 2054TIP3   OH2 6125   4.289   3.813   1.251
 2054TIP3    H1 6126   4.344   3.820   1.329
 2054TIP3    H2 6127   4.349   3.835   1.179
 2055TIP3   OH2 6128   0.969   1.481   2.274
 2055TIP3    H1 6129   0.879   1.456   2.253
 2055TIP3    H2 6130   0.995   1.540   2.203
 2056TIP3   OH2 6131   3.411   3.481   5.663
 2056TIP3    H1 6132   3.346   3.520   5.721
 2056TIP3    H2 6133   3.360   3.424   5.605
 2057TIP3   OH2 6134   5.077   1.190   4.552
 2057TIP3    H1 6135   5.059   1.161   4.642
 2057TIP3    H2 6136   5.075   1.285   4.557
 2058TIP3   OH2 6137   3.491   5.556   1.527
 2058TIP3    H1 6138   3.483   5.599   1.442
 2058TIP3    H2 6139   3.485   5.462   1.507
 2059TIP3   OH2 6140   2.811   2.010   2.605
 2059TIP3    H1 6141   2.828   1.979   2.516
 2059TIP3    H2 6142   2.763   2.092   2.593
 2060TIP3   OH2 6143   4.963   2.981   5.040
 2060TIP3    H1 6144   4.896   2.914   5.052
 2060TIP3    H2 6145   5.002   2.961   4.954
 2061TIP3   OH2 6146   6.562   4.886   4.873
 2061TIP3    H1 6147   6.579   4.824   4.944
 2061TIP3    H2 6148   6.549   4.832   4.796
 2062TIP3   OH2 6149   2.444   3.956   0.361
 2062TIP3    H1 6150   2.465   4.000   0.278
 2062TIP3    H2 6151   2.404   3.873   0.334
 2063TIP3   OH2 6152   3.643   4.264   2.299
 2063TIP3    H1 6153   3.650   4.358   2.283
 2063TIP3    H2 6154   3.552   4.251   2.324
 2064TIP3   OH2 6155   2.040   2.347   5.022
 2064TIP3    H1 6156   2.116   2.317   5.071
 2064TIP3    H2 6157   2.005   2.269   4.980
 2065TIP3   OH2 6158   0.268   5.090   1.874
 2065TIP3    H1 6159   0.191   5.058   1.921
 2065TIP3    H2 6160   0.303   5.159   1.930
 2066TIP3   OH2 6161   0.051   4.736   4.985
 2066TIP3    H1 6162   0.119   4.693   5.036
 2066TIP3    H2 6163   0.044   4.823   5.025
 2067TIP3   OH2 6164   5.117   0.336   0.755
 2067TIP3    H1 6165   5.194   0.345   0.699
 2067TIP3    H2 6166   5.133   0.257   0.806
 2068TIP3   OH2 6167   2.910   1.322   1.669
 2068TIP3    H1 6168   2.839   1.263   1.694
 2068TIP3    H2 6169   2.927   1.302   1.577
 2069TIP3   OH2 6170   5.055   5.981   5.511
 2069TIP3    H1 6171   4.962   5.983   5.487
 2069TIP3    H2 6172   5.099   5.949   5.432
 2070TIP3   OH2 6173   0.131   6.394   0.240
 2070TIP3    H1 6174   0.125   6.454   0.314
 2070TIP3    H2 6175   0.052   6.411   0.189
 2071TIP3   OH2 6176   0.831   2.730   2.382
 2071TIP3    H1 6177   0.797   2.651   2.340
 2071TIP3    H2 6178   0.754   2.784   2.399
 2072TIP3   OH2 6179   2.702   2.566   1.298
 2072TIP3    H1 6180   2.788   2.586   1.336
 2072TIP3    H2 6181   2.721   2.544   1.206
 2073TIP3   OH2 6182   6.095   1.547   3.556
 2073TIP3    H1 6183   6.042   1.499   3.620
 2073TIP3    H2 6184   6.036   1.563   3.483
 2074TIP3   OH2 6185   6.823   1.759   5.257
 2074TIP3    H1 6186   6.760   1.826   5.284
 2074TIP3    H2 6187   6.846   1.782   5.167
 2075TIP3   OH2 6188   0.362   3.674   0.271
 2075TIP3    H1 6189   0.355   3.760   0.314
 2075TIP3    H2 6190   0.272   3.641   0.270
 2076TIP3   OH2 6191   6.118   4.613   4.332
 2076TIP3    H1 6192   6.064   4.690   4.347
 2076TIP3    H2 6193   6.084   4.547   4.393
 2077TIP3   OH2 6194  -0.006   3.424   2.168
 2077TIP3    H1 6195   0.075   3.376   2.182
 2077TIP3    H2 6196   0.022   3.510   2.137
 2078TIP3   OH2 6197   2.913   4.789   5.339
 2078TIP3    H1 6198   2.937   4.722   5.402
 2078TIP3    H2 6199   2.935   4.872   5.381
 2079TIP3   OH2 6200   5.210   2.597   0.939
 2079TIP3    H1 6201   5.267   2.587   1.015
 2079TIP3    H2 6202   5.215   2.690   0.916
 2080TIP3   OH2 6203   6.669   5.685   2.716
 2080TIP3    H1 6204   6.735   5.745   2.749
 2080TIP3    H2 6205   6.639   5.637   2.793
 2081TIP3   OH2 6206   3.986   2.971   2.681
 2081TIP3    H1 6207   3.927   3.008   2.746
 2081TIP3    H2 6208   4.033   2.901   2.728
 2082TIP3   OH2 6209   5.100   1.061   2.049
 2082TIP3    H1 6210   5.090   1.015   1.965
 2082TIP3    H2 6211   5.192   1.048   2.073
 2083TIP3   OH2 6212   0.402   5.761   0.952
 2083TIP3    H1 6213   0.463   5.696   0.917
 2083TIP3    H2 6214   0.451   5.805   1.021
 2084TIP3   OH2 6215   1.973   3.931   5.499
 2084TIP3    H1 6216   1.970   3.902   5.591
 2084TIP3    H2 6217   2.055   3.896   5.466
 2085TIP3   OH2 6218   4.389   0.564   3.310
 2085TIP3    H1 6219   4.390   0.646   3.359
 2085TIP3    H2 6220   4.471   0.564   3.261
 2086TIP3   OH2 6221   1.224   5.342   2.082
 2086TIP3    H1 6222   1.289   5.285   2.040
 2086TIP3    H2 6223   1.268   5.426   2.090
 2087TIP3   OH2 6224   6.987   1.750   1.752
 2087TIP3    H1 6225   6.918   1.784   1.696
 2087TIP3    H2 6226   6.989   1.811   1.826
 2088TIP3   OH2 6227   4.654   6.665   2.906
 2088TIP3    H1 6228   4.595   6.682   2.980
 2088TIP3    H2 6229   4.717   6.601   2.940
 2089TIP3   OH2 6230   6.176   0.616   3.421
 2089TIP3    H1 6231   6.091   0.658   3.435
 2089TIP3    H2 6232   6.193   0.569   3.502
 2090TIP3   OH2 6233   5.069   4.289   3.828
 2090TIP3    H1 6234   4.996   4.343   3.858
 2090TIP3    H2 6235   5.107   4.254   3.909
 2091TIP3   OH2 6236   4.386   1.445   1.011
 2091TIP3    H1 6237   4.460   1.466   0.954
 2091TIP3    H2 6238   4.373   1.351   1.001
 2092TIP3   OH2 6239   0.904   6.196   3.739
 2092TIP3    H1 6240   0.873   6.285   3.754
 2092TIP3    H2 6241   0.994   6.206   3.709
 2093TIP3   OH2 6242   6.634   1.997   2.719
 2093TIP3    H1 6243   6.612   1.939   2.646
 2093TIP3    H2 6244   6.572   1.973   2.788
 2094TIP3   OH2 6245   0.976   1.312   5.704
 2094TIP3    H1 6246   0.997   1.391   5.754
 2094TIP3    H2 6247   0.902   1.337   5.649
 2095TIP3   OH2 6248   5.789   4.896   5.111
 2095TIP3    H1 6249   5.838   4.967   5.069
 2095TIP3    H2 6250   5.854   4.827   5.123
 2096TIP3   OH2 6251   1.177   5.421   4.491
 2096TIP3    H1 6252   1.269   5.443   4.478
 2096TIP3    H2 6253   1.166   5.419   4.586
 2097TIP3   OH2 6254   1.306   3.443   5.129
 2097TIP3    H1 6255   1.263   3.509   5.074
 2097TIP3    H2 6256   1.275   3.461   5.217
 2098TIP3   OH2 6257   4.497   2.510   2.387
 2098TIP3    H1 6258   4.495   2.421   2.424
 2098TIP3    H2 6259   4.540   2.562   2.454
 2099TIP3   OH2 6260   7.136   1.699   0.274
 2099TIP3    H1 6261   7.125   1.787   0.311
 2099TIP3    H2 6262   7.124   1.711   0.180
 2100TIP3   OH2 6263   6.169   1.293   2.259
 2100TIP3    H1 6264   6.209   1.216   2.300
 2100TIP3    H2 6265   6.242   1.338   2.217
 2101TIP3   OH2 6266   0.074   5.986   5.753
 2101TIP3    H1 6267   0.047   6.042   5.826
 2101TIP3    H2 6268   0.155   5.945   5.782
 2102TIP3   OH2 6269   5.552   5.992   5.392
 2102TIP3    H1 6270   5.510   5.945   5.464
 2102TIP3    H2 6271   5.484   6.049   5.357
 2103TIP3   OH2 6272   1.792   2.181   3.905
 2103TIP3    H1 6273   1.752   2.100   3.875
 2103TIP3    H2 6274   1.802   2.170   3.999
 2104TIP3   OH2 6275   3.308   0.349   5.512
 2104TIP3    H1 6276   3.239   0.314   5.456
 2104TIP3    H2 6277   3.349   0.272   5.551
 2105TIP3   OH2 6278   0.875   0.753   4.461
 2105TIP3    H1 6279   0.949   0.692   4.461
 2105TIP3    H2 6280   0.806   0.707   4.508
 2106TIP3   OH2 6281   5.963   0.997   3.291
 2106TIP3    H1 6282   5.964   1.086   3.326
 2106TIP3    H2 6283   5.966   1.009   3.196
 2107TIP3   OH2 6284   3.982   5.128   1.238
 2107TIP3    H1 6285   3.983   5.134   1.333
 2107TIP3    H2 6286   3.913   5.065   1.218
 2108TIP3   OH2 6287   6.146   3.238   2.589
 2108TIP3    H1 6288   6.163   3.246   2.495
 2108TIP3    H2 6289   6.054   3.264   2.599
 2109TIP3   OH2 6290   6.555   4.311   3.264
 2109TIP3    H1 6291   6.646   4.284   3.251
 2109TIP3    H2 6292   6.562   4.393   3.313
 2110TIP3   OH2 6293   5.904   0.354   1.746
 2110TIP3    H1 6294   5.946   0.431   1.783
 2110TIP3    H2 6295   5.840   0.327   1.811
 2111TIP3   OH2 6296   0.777   1.657   2.798
 2111TIP3    H1 6297   0.757   1.563   2.804
 2111TIP3    H2 6298   0.691   1.699   2.800
 2112TIP3   OH2 6299   5.364   5.382   0.928
 2112TIP3    H1 6300   5.399   5.458   0.974
 2112TIP3    H2 6301   5.441   5.329   0.908
 2113TIP3   OH2 6302   3.182   5.253   1.747
 2113TIP3    H1 6303   3.200   5.181   1.687
 2113TIP3    H2 6304   3.133   5.316   1.694
 2114TIP3   OH2 6305   0.569   1.197   5.664
 2114TIP3    H1 6306   0.517   1.117   5.650
 2114TIP3    H2 6307   0.622   1.178   5.741
 2115TIP3   OH2 6308   0.711   5.751   4.215
 2115TIP3    H1 6309   0.753   5.802   4.284
 2115TIP3    H2 6310   0.667   5.679   4.262
 2116TIP3   OH2 6311   4.519   5.323   0.481
 2116TIP3    H1 6312   4.542   5.412   0.457
 2116TIP3    H2 6313   4.602   5.279   0.498
 2117TIP3   OH2 6314   3.716   1.098   0.958
 2117TIP3    H1 6315   3.746   1.127   0.872
 2117TIP3    H2 6316   3.626   1.067   0.943
 2118TIP3   OH2 6317   3.995   1.841   3.866
 2118TIP3    H1 6318   3.956   1.922   3.900
 2118TIP3    H2 6319   3.941   1.771   3.902
 2119TIP3   OH2 6320   6.531   3.322   0.991
 2119TIP3    H1 6321   6.542   3.343   1.084
 2119TIP3    H2 6322   6.507   3.406   0.951
 2120TIP3   OH2 6323   0.362   5.317   5.608
 2120TIP3    H1 6324   0.385   5.389   5.667
 2120TIP3    H2 6325   0.400   5.343   5.524
 2121TIP3   OH2 6326   5.525   0.183   3.109
 2121TIP3    H1 6327   5.600   0.137   3.147
 2121TIP3    H2 6328   5.503   0.251   3.173
 2122TIP3   OH2 6329   5.142   2.363   5.128
 2122TIP3    H1 6330   5.060   2.402   5.160
 2122TIP3    H2 6331   5.180   2.430   5.071
 2123TIP3   OH2 6332   0.619   4.544   2.823
 2123TIP3    H1 6333   0.642   4.566   2.733
 2123TIP3    H2 6334   0.689   4.485   2.852
 2124TIP3   OH2 6335   1.638   6.706   3.599
 2124TIP3    H1 6336   1.600   6.793   3.616
 2124TIP3    H2 6337   1.724   6.710   3.641
 2125TIP3   OH2 6338   1.957   6.639   5.234
 2125TIP3    H1 6339   1.865   6.629   5.210
 2125TIP3    H2 6340   1.998   6.558   5.203
 2126TIP3   OH2 6341   4.385   1.099   0.177
 2126TIP3    H1 6342   4.302   1.080   0.222
 2126TIP3    H2 6343   4.437   1.147   0.241
 2127TIP3   OH2 6344   1.639   4.960   0.404
 2127TIP3    H1 6345   1.610   4.897   0.471
 2127TIP3    H2 6346   1.693   5.022   0.452
 2128TIP3   OH2 6347   1.191   5.648   4.320
 2128TIP3    H1 6348   1.265   5.598   4.352
 2128TIP3    H2 6349   1.183   5.624   4.228
 2129TIP3   OH2 6350   5.228   2.540   4.944
 2129TIP3    H1 6351   5.266   2.609   4.889
 2129TIP3    H2 6352   5.151   2.511   4.895
 2130TIP3   OH2 6353   5.159   0.177   2.274
 2130TIP3    H1 6354   5.163   0.229   2.355
 2130TIP3    H2 6355   5.067   0.151   2.268
 2131TIP3   OH2 6356   0.952   5.306   2.300
 2131TIP3    H1 6357   0.876   5.332   2.247
 2131TIP3    H2 6358   1.005   5.253   2.242
 2132TIP3   OH2 6359   2.331   1.438   3.276
 2132TIP3    H1 6360   2.384   1.367   3.241
 2132TIP3    H2 6361   2.266   1.395   3.332
 2133TIP3   OH2 6362   1.297   4.818   5.456
 2133TIP3    H1 6363   1.292   4.816   5.361
 2133TIP3    H2 6364   1.307   4.911   5.477
 2134TIP3   OH2 6365   4.107   1.517   0.433
 2134TIP3    H1 6366   4.048   1.564   0.373
 2134TIP3    H2 6367   4.119   1.431   0.392
 2135TIP3   OH2 6368   4.927   3.870   1.351
 2135TIP3    H1 6369   4.967   3.786   1.373
 2135TIP3    H2 6370   4.898   3.860   1.261
 2136TIP3   OH2 6371   7.014   3.809   4.101
 2136TIP3    H1 6372   6.991   3.796   4.192
 2136TIP3    H2 6373   7.105   3.838   4.103
 2137TIP3   OH2 6374   1.553   3.640   4.309
 2137TIP3    H1 6375   1.621   3.672   4.369
 2137TIP3    H2 6376   1.600   3.581   4.250
 2138TIP3   OH2 6377   3.137   5.740   4.718
 2138TIP3    H1 6378   3.129   5.736   4.623
 2138TIP3    H2 6379   3.208   5.679   4.738
 2139TIP3   OH2 6380   5.842   5.861   4.673
 2139TIP3    H1 6381   5.792   5.801   4.728
 2139TIP3    H2 6382   5.933   5.833   4.682
 2140TIP3   OH2 6383   2.202   3.567   0.648
 2140TIP3    H1 6384   2.134   3.563   0.582
 2140TIP3    H2 6385   2.250   3.485   0.637
 2141TIP3   OH2 6386   1.905   0.682   1.614
 2141TIP3    H1 6387   1.870   0.716   1.532
 2141TIP3    H2 6388   1.890   0.752   1.677
 2142TIP3   OH2 6389   6.862   1.130   2.104
 2142TIP3    H1 6390   6.812   1.125   2.023
 2142TIP3    H2 6391   6.912   1.049   2.108
 2143TIP3   OH2 6392   5.242   5.389   4.033
 2143TIP3    H1 6393   5.337   5.394   4.036
 2143TIP3    H2 6394   5.213   5.450   4.100
 2144TIP3   OH2 6395   6.721   3.616   1.460
 2144TIP3    H1 6396   6.637   3.659   1.446
 2144TIP3    H2 6397   6.748   3.588   1.373
 2145TIP3   OH2 6398   3.202   0.098   0.674
 2145TIP3    H1 6399   3.189   0.027   0.737
 2145TIP3    H2 6400   3.291   0.084   0.639
 2146TIP3   OH2 6401   3.825   2.033   3.996
 2146TIP3    H1 6402   3.870   2.115   4.018
 2146TIP3    H2 6403   3.801   2.043   3.904
 2147TIP3   OH2 6404   7.083   1.083   5.257
 2147TIP3    H1 6405   7.128   0.999   5.268
 2147TIP3    H2 6406   7.047   1.080   5.168
 2148TIP3   OH2 6407   0.616   0.038   1.708
 2148TIP3    H1 6408   0.638   0.011   1.798
 2148TIP3    H2 6409   0.680  -0.006   1.653
 2149TIP3   OH2 6410   1.216   5.727   5.657
 2149TIP3    H1 6411   1.175   5.642   5.672
 2149TIP3    H2 6412   1.161   5.789   5.704
 2150TIP3   OH2 6413   1.494   0.078   1.066
 2150TIP3    H1 6414   1.553   0.048   0.997
 2150TIP3    H2 6415   1.507   0.173   1.069
 2151TIP3   OH2 6416   6.734   0.721   3.217
 2151TIP3    H1 6417   6.687   0.679   3.144
 2151TIP3    H2 6418   6.672   0.717   3.290
 2152TIP3   OH2 6419   5.543   0.613   3.064
 2152TIP3    H1 6420   5.457   0.642   3.034
 2152TIP3    H2 6421   5.599   0.690   3.055
 2153TIP3   OH2 6422   5.941   6.794   2.365
 2153TIP3    H1 6423   5.991   6.718   2.394
 2153TIP3    H2 6424   5.849   6.767   2.375
 2154TIP3   OH2 6425   5.679   4.118   2.845
 2154TIP3    H1 6426   5.630   4.141   2.767
 2154TIP3    H2 6427   5.723   4.199   2.871
 2155TIP3   OH2 6428   0.346   6.738   4.941
 2155TIP3    H1 6429   0.262   6.752   4.898
 2155TIP3    H2 6430   0.406   6.715   4.869
 2156TIP3   OH2 6431   6.088   5.940   5.180
 2156TIP3    H1 6432   6.019   5.955   5.245
 2156TIP3    H2 6433   6.168   5.972   5.222
 2157TIP3   OH2 6434   6.490   5.943   5.487
 2157TIP3    H1 6435   6.426   5.973   5.422
 2157TIP3    H2 6436   6.537   5.872   5.443
 2158TIP3   OH2 6437   1.753   5.445   3.335
 2158TIP3    H1 6438   1.705   5.515   3.380
 2158TIP3    H2 6439   1.828   5.428   3.392
 2159TIP3   OH2 6440   2.945   0.565   2.854
 2159TIP3    H1 6441   3.027   0.614   2.851
 2159TIP3    H2 6442   2.884   0.623   2.899
 2160TIP3   OH2 6443   2.613   2.556   2.465
 2160TIP3    H1 6444   2.605   2.513   2.550
 2160TIP3    H2 6445   2.562   2.501   2.405
 2161TIP3   OH2 6446   4.103   4.131   3.632
 2161TIP3    H1 6447   4.055   4.061   3.587
 2161TIP3    H2 6448   4.194   4.118   3.607
 2162TIP3   OH2 6449   5.050   1.877   0.960
 2162TIP3    H1 6450   5.014   1.835   0.882
 2162TIP3    H2 6451   5.031   1.815   1.030
 2163TIP3   OH2 6452   1.410   2.734   3.007
 2163TIP3    H1 6453   1.400   2.768   2.918
 2163TIP3    H2 6454   1.504   2.718   3.016
 2164TIP3   OH2 6455   0.106   1.590   1.700
 2164TIP3    H1 6456   0.186   1.539   1.685
 2164TIP3    H2 6457   0.115   1.666   1.643
 2165TIP3   OH2 6458   6.774   1.453   4.892
 2165TIP3    H1 6459   6.819   1.467   4.809
 2165TIP3    H2 6460   6.790   1.360   4.912
 2166TIP3   OH2 6461   3.968   1.470   5.661
 2166TIP3    H1 6462   3.945   1.535   5.594
 2166TIP3    H2 6463   4.056   1.442   5.637
 2167TIP3   OH2 6464   1.168   4.803   1.563
 2167TIP3    H1 6465   1.196   4.745   1.633
 2167TIP3    H2 6466   1.181   4.891   1.598
 2168TIP3   OH2 6467   2.670   2.111   0.615
 2168TIP3    H1 6468   2.663   2.031   0.668
 2168TIP3    H2 6469   2.758   2.108   0.578
 2169TIP3   OH2 6470   6.530   0.216   4.223
 2169TIP3    H1 6471   6.561   0.291   4.274
 2169TIP3    H2 6472   6.441   0.238   4.198
 2170TIP3   OH2 6473   3.324   4.744   1.418
 2170TIP3    H1 6474   3.386   4.698   1.475
 2170TIP3    H2 6475   3.238   4.716   1.450
 2171TIP3   OH2 6476   0.608   2.174   0.006
 2171TIP3    H1 6477   0.526   2.126   0.003
 2171TIP3    H2 6478   0.612   2.210   0.095
 2172TIP3   OH2 6479   6.639   1.879   4.271
 2172TIP3    H1 6480   6.556   1.836   4.292
 2172TIP3    H2 6481   6.621   1.928   4.191
 2173TIP3   OH2 6482   1.937   5.785   0.680
 2173TIP3    H1 6483   1.864   5.740   0.638
 2173TIP3    H2 6484   2.008   5.781   0.615
 2174TIP3   OH2 6485   5.484   2.949   3.076
 2174TIP3    H1 6486   5.539   2.929   3.152
 2174TIP3    H2 6487   5.445   3.034   3.097
 2175TIP3   OH2 6488   5.534   3.338   5.250
 2175TIP3    H1 6489   5.494   3.413   5.294
 2175TIP3    H2 6490   5.573   3.374   5.171
 2176TIP3   OH2 6491   4.854   6.675   1.207
 2176TIP3    H1 6492   4.918   6.664   1.137
 2176TIP3    H2 6493   4.896   6.637   1.284
 2177TIP3   OH2 6494   2.497   5.136   3.706
 2177TIP3    H1 6495   2.555   5.212   3.711
 2177TIP3    H2 6496   2.415   5.166   3.745
 2178TIP3   OH2 6497   2.179   0.052   1.007
 2178TIP3    H1 6498   2.230   0.088   0.934
 2178TIP3    H2 6499   2.132  -0.022   0.970
 2179TIP3   OH2 6500   3.918   1.424   0.617
 2179TIP3    H1 6501   3.915   1.338   0.575
 2179TIP3    H2 6502   3.960   1.481   0.552
 2180TIP3   OH2 6503   5.777   5.005   0.404
 2180TIP3    H1 6504   5.704   5.020   0.343
 2180TIP3    H2 6505   5.735   5.006   0.490
 2181TIP3   OH2 6506   0.191   4.417   1.954
 2181TIP3    H1 6507   0.274   4.462   1.936
 2181TIP3    H2 6508   0.159   4.456   2.035
 2182TIP3   OH2 6509   6.812   5.982   4.477
 2182TIP3    H1 6510   6.785   5.906   4.529
 2182TIP3    H2 6511   6.907   5.984   4.483
 2183TIP3   OH2 6512   4.307   2.000   5.757
 2183TIP3    H1 6513   4.271   1.914   5.736
 2183TIP3    H2 6514   4.399   1.983   5.778
 2184TIP3   OH2 6515   5.682   2.607   1.590
 2184TIP3    H1 6516   5.714   2.683   1.639
 2184TIP3    H2 6517   5.593   2.593   1.624
 2185TIP3   OH2 6518   6.579   4.053   0.931
 2185TIP3    H1 6519   6.531   4.068   1.013
 2185TIP3    H2 6520   6.584   3.958   0.923
 2186TIP3   OH2 6521   0.052   0.446   4.684
 2186TIP3    H1 6522   0.067   0.537   4.708
 2186TIP3    H2 6523   0.137   0.415   4.651
 2187TIP3   OH2 6524   5.255   6.310   4.919
 2187TIP3    H1 6525   5.219   6.375   4.979
 2187TIP3    H2 6526   5.348   6.331   4.914
 2188TIP3   OH2 6527   4.870   1.460   3.242
 2188TIP3    H1 6528   4.912   1.404   3.177
 2188TIP3    H2 6529   4.790   1.414   3.266
 2189TIP3   OH2 6530   2.296   3.166   1.421
 2189TIP3    H1 6531   2.227   3.120   1.374
 2189TIP3    H2 6532   2.278   3.151   1.513
 2190TIP3   OH2 6533   0.122   5.315   0.631
 2190TIP3    H1 6534   0.136   5.221   0.635
 2190TIP3    H2 6535   0.180   5.351   0.697
 2191TIP3   OH2 6536   0.343   1.454   4.263
 2191TIP3    H1 6537   0.328   1.425   4.354
 2191TIP3    H2 6538   0.337   1.549   4.267
 2192TIP3   OH2 6539   6.624   4.116   2.964
 2192TIP3    H1 6540   6.644   4.116   3.057
 2192TIP3    H2 6541   6.547   4.061   2.955
 2193TIP3   OH2 6542   2.839   1.781   4.685
 2193TIP3    H1 6543   2.866   1.695   4.716
 2193TIP3    H2 6544   2.817   1.829   4.765
 2194TIP3   OH2 6545   1.886   0.344   2.436
 2194TIP3    H1 6546   1.915   0.253   2.441
 2194TIP3    H2 6547   1.964   0.395   2.461
 2195TIP3   OH2 6548   6.102   6.315   1.988
 2195TIP3    H1 6549   6.050   6.302   2.067
 2195TIP3    H2 6550   6.059   6.387   1.942
 2196TIP3   OH2 6551   5.621   5.856   0.346
 2196TIP3    H1 6552   5.614   5.882   0.254
 2196TIP3    H2 6553   5.695   5.906   0.380
 2197TIP3   OH2 6554   0.657   2.482   1.594
 2197TIP3    H1 6555   0.732   2.441   1.637
 2197TIP3    H2 6556   0.694   2.526   1.518
 2198TIP3   OH2 6557   3.452   6.576   0.757
 2198TIP3    H1 6558   3.533   6.620   0.730
 2198TIP3    H2 6559   3.438   6.509   0.691
 2199TIP3   OH2 6560   6.859   6.617   2.758
 2199TIP3    H1 6561   6.830   6.587   2.672
 2199TIP3    H2 6562   6.865   6.712   2.750
 2200TIP3   OH2 6563   1.196   5.129   2.874
 2200TIP3    H1 6564   1.260   5.200   2.871
 2200TIP3    H2 6565   1.249   5.050   2.885
 2201TIP3   OH2 6566   1.768   2.574   2.031
 2201TIP3    H1 6567   1.841   2.602   2.086
 2201TIP3    H2 6568   1.735   2.495   2.074
 2202TIP3   OH2 6569   5.940   5.369   1.895
 2202TIP3    H1 6570   5.955   5.275   1.903
 2202TIP3    H2 6571   5.958   5.389   1.804
 2203TIP3   OH2 6572   3.165   4.896   4.957
 2203TIP3    H1 6573   3.207   4.948   4.889
 2203TIP3    H2 6574   3.221   4.819   4.967
 2204TIP3   OH2 6575   1.689   0.539   2.699
 2204TIP3    H1 6576   1.675   0.553   2.793
 2204TIP3    H2 6577   1.781   0.560   2.685
 2205TIP3   OH2 6578   1.531   6.234   5.374
 2205TIP3    H1 6579   1.485   6.227   5.291
 2205TIP3    H2 6580   1.521   6.326   5.399
 2206TIP3   OH2 6581   3.634   5.206   1.261
 2206TIP3    H1 6582   3.682   5.126   1.284
 2206TIP3    H2 6583   3.646   5.216   1.167
 2207TIP3   OH2 6584   2.263   5.437   2.839
 2207TIP3    H1 6585   2.223   5.517   2.872
 2207TIP3    H2 6586   2.195   5.396   2.787
 2208TIP3   OH2 6587   2.693   4.848   3.692
 2208TIP3    H1 6588   2.716   4.859   3.599
 2208TIP3    H2 6589   2.713   4.933   3.732
 2209TIP3   OH2 6590   0.361   4.541   4.856
 2209TIP3    H1 6591   0.307   4.462   4.848
 2209TIP3    H2 6592   0.330   4.599   4.787
 2210TIP3   OH2 6593   3.433   2.699   0.548
 2210TIP3    H1 6594   3.475   2.631   0.600
 2210TIP3    H2 6595   3.505   2.739   0.499
 2211TIP3   OH2 6596   6.938   0.118   0.411
 2211TIP3    H1 6597   6.921   0.086   0.499
 2211TIP3    H2 6598   6.851   0.133   0.374
 2212TIP3   OH2 6599   0.782   2.537   1.034
 2212TIP3    H1 6600   0.794   2.630   1.053
 2212TIP3    H2 6601   0.725   2.505   1.104
 2213TIP3   OH2 6602   6.770   2.207   0.140
 2213TIP3    H1 6603   6.819   2.163   0.210
 2213TIP3    H2 6604   6.837   2.230   0.075
 2214TIP3   OH2 6605   6.188   0.385   5.292
 2214TIP3    H1 6606   6.281   0.385   5.317
 2214TIP3    H2 6607   6.158   0.473   5.311
 2215TIP3   OH2 6608   0.318   1.328   2.533
 2215TIP3    H1 6609   0.236   1.343   2.484
 2215TIP3    H2 6610   0.326   1.233   2.538
 2216TIP3   OH2 6611   0.620   0.117   0.258
 2216TIP3    H1 6612   0.589   0.191   0.310
 2216TIP3    H2 6613   0.698   0.086   0.305
 2217TIP3   OH2 6614   3.944   6.657   5.349
 2217TIP3    H1 6615   3.973   6.692   5.265
 2217TIP3    H2 6616   3.856   6.693   5.361
 2218TIP3   OH2 6617   5.322   3.302   2.297
 2218TIP3    H1 6618   5.293   3.279   2.209
 2218TIP3    H2 6619   5.344   3.218   2.338
 2219TIP3   OH2 6620   6.565   6.069   4.481
 2219TIP3    H1 6621   6.652   6.031   4.476
 2219TIP3    H2 6622   6.570   6.132   4.553
 2220TIP3   OH2 6623   1.928   1.868   2.112
 2220TIP3    H1 6624   1.909   1.853   2.204
 2220TIP3    H2 6625   1.988   1.942   2.111
 2221TIP3   OH2 6626   1.237   6.550   5.868
 2221TIP3    H1 6627   1.278   6.613   5.810
 2221TIP3    H2 6628   1.284   6.468   5.851
 2222TIP3   OH2 6629   4.399   2.392   1.454
 2222TIP3    H1 6630   4.310   2.409   1.484
 2222TIP3    H2 6631   4.402   2.428   1.365
 2223TIP3   OH2 6632   4.852   5.677   1.309
 2223TIP3    H1 6633   4.898   5.726   1.241
 2223TIP3    H2 6634   4.767   5.721   1.315
 2224TIP3   OH2 6635   4.481   1.482   5.475
 2224TIP3    H1 6636   4.504   1.441   5.392
 2224TIP3    H2 6637   4.394   1.520   5.460
 2225TIP3   OH2 6638   0.550   1.453   5.133
 2225TIP3    H1 6639   0.495   1.525   5.164
 2225TIP3    H2 6640   0.513   1.375   5.173
 2226TIP3   OH2 6641   1.159   5.771   0.674
 2226TIP3    H1 6642   1.214   5.816   0.610
 2226TIP3    H2 6643   1.182   5.679   0.666
 2227TIP3   OH2 6644   3.676   2.735   0.927
 2227TIP3    H1 6645   3.594   2.784   0.930
 2227TIP3    H2 6646   3.712   2.744   1.016
 2228TIP3   OH2 6647   1.257   0.865   2.982
 2228TIP3    H1 6648   1.278   0.907   2.898
 2228TIP3    H2 6649   1.306   0.915   3.047
 2229TIP3   OH2 6650   5.552   6.474   5.245
 2229TIP3    H1 6651   5.487   6.491   5.313
 2229TIP3    H2 6652   5.625   6.531   5.267
 2230TIP3   OH2 6653   5.203   6.626   5.641
 2230TIP3    H1 6654   5.231   6.636   5.732
 2230TIP3    H2 6655   5.168   6.711   5.616
 2231TIP3   OH2 6656   2.012   4.622   4.137
 2231TIP3    H1 6657   2.086   4.631   4.196
 2231TIP3    H2 6658   1.990   4.529   4.140
 2232TIP3   OH2 6659   0.795   2.502   3.652
 2232TIP3    H1 6660   0.844   2.447   3.713
 2232TIP3    H2 6661   0.784   2.449   3.574
 2233TIP3   OH2 6662   4.855   2.524   5.698
 2233TIP3    H1 6663   4.821   2.612   5.680
 2233TIP3    H2 6664   4.790   2.465   5.660
 2234TIP3   OH2 6665   0.699   3.112   1.303
 2234TIP3    H1 6666   0.636   3.123   1.231
 2234TIP3    H2 6667   0.648   3.069   1.372
 2235TIP3   OH2 6668   1.855   5.316   5.209
 2235TIP3    H1 6669   1.822   5.260   5.279
 2235TIP3    H2 6670   1.783   5.321   5.146
 2236TIP3   OH2 6671   4.936   6.597   5.590
 2236TIP3    H1 6672   4.898   6.574   5.675
 2236TIP3    H2 6673   5.030   6.588   5.602
 2237TIP3   OH2 6674   6.521   0.351   5.044
 2237TIP3    H1 6675   6.601   0.331   5.094
 2237TIP3    H2 6676   6.518   0.283   4.977
 2238TIP3   OH2 6677   1.988   3.756   2.597
 2238TIP3    H1 6678   2.031   3.710   2.525
 2238TIP3    H2 6679   1.944   3.688   2.648
 2239TIP3   OH2 6680   0.108   2.383   0.047
 2239TIP3    H1 6681   0.054   2.453   0.011
 2239TIP3    H2 6682   0.144   2.419   0.128
 2240TIP3   OH2 6683   5.403   4.220   1.143
 2240TIP3    H1 6684   5.311   4.248   1.137
 2240TIP3    H2 6685   5.400   4.126   1.124
 2241TIP3   OH2 6686   2.522   1.948   0.272
 2241TIP3    H1 6687   2.429   1.938   0.291
 2241TIP3    H2 6688   2.566   1.892   0.336
 2242TIP3   OH2 6689   4.843   2.441   3.131
 2242TIP3    H1 6690   4.887   2.385   3.195
 2242TIP3    H2 6691   4.800   2.380   3.072
 2243TIP3   OH2 6692   2.655   5.770   2.411
 2243TIP3    H1 6693   2.743   5.773   2.449
 2243TIP3    H2 6694   2.669   5.739   2.321
 2244TIP3   OH2 6695   0.720   4.978   5.787
 2244TIP3    H1 6696   0.640   4.981   5.840
 2244TIP3    H2 6697   0.688   4.988   5.697
 2245TIP3   OH2 6698   6.193   5.894   2.980
 2245TIP3    H1 6699   6.130   5.913   2.910
 2245TIP3    H2 6700   6.139   5.883   3.058
 2246TIP3   OH2 6701   4.065   5.803   4.873
 2246TIP3    H1 6702   4.106   5.772   4.954
 2246TIP3    H2 6703   4.108   5.886   4.854
 2247TIP3   OH2 6704   0.214   1.746   3.616
 2247TIP3    H1 6705   0.183   1.834   3.595
 2247TIP3    H2 6706   0.196   1.736   3.709
 2248TIP3   OH2 6707   6.988   3.436   0.371
 2248TIP3    H1 6708   7.002   3.496   0.445
 2248TIP3    H2 6709   7.068   3.442   0.320
 2249TIP3   OH2 6710   7.108   5.137   4.228
 2249TIP3    H1 6711   7.102   5.051   4.270
 2249TIP3    H2 6712   7.017   5.166   4.221
 2250TIP3   OH2 6713   1.742   3.892   2.467
 2250TIP3    H1 6714   1.748   3.847   2.552
 2250TIP3    H2 6715   1.763   3.824   2.403
 2251TIP3   OH2 6716   2.742   3.355   4.397
 2251TIP3    H1 6717   2.684   3.405   4.454
 2251TIP3    H2 6718   2.829   3.394   4.410
 2252TIP3   OH2 6719   4.528   0.119   4.641
 2252TIP3    H1 6720   4.545   0.209   4.669
 2252TIP3    H2 6721   4.500   0.127   4.550
 2253TIP3   OH2 6722   6.365   1.298   4.437
 2253TIP3    H1 6723   6.437   1.294   4.374
 2253TIP3    H2 6724   6.320   1.381   4.417
 2254TIP3   OH2 6725   5.332   6.393   1.124
 2254TIP3    H1 6726   5.352   6.389   1.030
 2254TIP3    H2 6727   5.346   6.485   1.147
 2255TIP3   OH2 6728   1.196   2.396   4.961
 2255TIP3    H1 6729   1.224   2.351   5.041
 2255TIP3    H2 6730   1.277   2.409   4.911
 2256TIP3   OH2 6731   2.680   1.652   2.857
 2256TIP3    H1 6732   2.755   1.669   2.800
 2256TIP3    H2 6733   2.614   1.716   2.830
 2257TIP3   OH2 6734   1.954   0.384   3.226
 2257TIP3    H1 6735   1.992   0.467   3.256
 2257TIP3    H2 6736   2.030   0.330   3.203
 2258TIP3   OH2 6737   3.100   1.169   0.179
 2258TIP3    H1 6738   3.013   1.156   0.219
 2258TIP3    H2 6739   3.161   1.147   0.249
 2259TIP3   OH2 6740   6.695   3.762   4.280
 2259TIP3    H1 6741   6.773   3.710   4.258
 2259TIP3    H2 6742   6.682   3.748   4.374
 2260TIP3   OH2 6743   4.641   0.233   2.414
 2260TIP3    H1 6744   4.644   0.214   2.320
 2260TIP3    H2 6745   4.580   0.306   2.422
 2261TIP3   OH2 6746   3.305   1.925   2.551
 2261TIP3    H1 6747   3.366   1.852   2.540
 2261TIP3    H2 6748   3.362   2.002   2.561
 2262TIP3   OH2 6749   0.333   6.043   3.902
 2262TIP3    H1 6750   0.383   6.072   3.979
 2262TIP3    H2 6751   0.304   6.124   3.861
 2263TIP3   OH2 6752   0.654   2.040   3.445
 2263TIP3    H1 6753   0.743   2.063   3.417
 2263TIP3    H2 6754   0.642   1.950   3.412
 2264TIP3   OH2 6755   6.150   6.074   4.737
 2264TIP3    H1 6756   6.150   5.979   4.729
 2264TIP3    H2 6757   6.144   6.106   4.647
 2265TIP3   OH2 6758   3.660   3.029   1.741
 2265TIP3    H1 6759   3.582   3.052   1.690
 2265TIP3    H2 6760   3.731   3.078   1.698
 2266TIP3   OH2 6761   3.245   3.175   4.120
 2266TIP3    H1 6762   3.261   3.148   4.211
 2266TIP3    H2 6763   3.323   3.145   4.073
 2267TIP3   OH2 6764   6.895   5.307   2.763
 2267TIP3    H1 6765   6.893   5.372   2.692
 2267TIP3    H2 6766   6.803   5.285   2.777
 2268TIP3   OH2 6767   2.609   5.469   3.273
 2268TIP3    H1 6768   2.544   5.458   3.343
 2268TIP3    H2 6769   2.689   5.495   3.320
 2269TIP3   OH2 6770   0.122   3.648   1.607
 2269TIP3    H1 6771   0.084   3.563   1.583
 2269TIP3    H2 6772   0.129   3.695   1.524
 2270TIP3   OH2 6773   3.765   5.287   4.897
 2270TIP3    H1 6774   3.794   5.354   4.958
 2270TIP3    H2 6775   3.673   5.272   4.919
 2271TIP3   OH2 6776   7.233   6.500   0.488
 2271TIP3    H1 6777   7.143   6.493   0.520
 2271TIP3    H2 6778   7.246   6.594   0.474
 2272TIP3   OH2 6779   6.299   3.540   2.273
 2272TIP3    H1 6780   6.282   3.632   2.251
 2272TIP3    H2 6781   6.361   3.544   2.346
 2273TIP3   OH2 6782   2.321   3.875   2.342
 2273TIP3    H1 6783   2.246   3.815   2.341
 2273TIP3    H2 6784   2.322   3.914   2.255
 2274TIP3   OH2 6785   5.412   3.212   3.077
 2274TIP3    H1 6786   5.323   3.225   3.044
 2274TIP3    H2 6787   5.469   3.248   3.010
 2275TIP3   OH2 6788   2.118   5.894   5.293
 2275TIP3    H1 6789   2.035   5.856   5.322
 2275TIP3    H2 6790   2.143   5.842   5.217
 2276TIP3   OH2 6791   0.326   0.179   0.555
 2276TIP3    H1 6792   0.389   0.220   0.614
 2276TIP3    H2 6793   0.339   0.085   0.568
 2277TIP3   OH2 6794   0.212   4.250   3.312
 2277TIP3    H1 6795   0.161   4.313   3.363
 2277TIP3    H2 6796   0.173   4.253   3.225
 2278TIP3   OH2 6797   3.983   1.505   4.182
 2278TIP3    H1 6798   3.909   1.453   4.214
 2278TIP3    H2 6799   3.997   1.570   4.251
 2279TIP3   OH2 6800   4.579   0.573   3.123
 2279TIP3    H1 6801   4.548   0.660   3.099
 2279TIP3    H2 6802   4.581   0.524   3.041
 2280TIP3   OH2 6803   2.486   6.237   4.386
 2280TIP3    H1 6804   2.454   6.178   4.453
 2280TIP3    H2 6805   2.540   6.183   4.329
 2281TIP3   OH2 6806   1.348   4.434   1.454
 2281TIP3    H1 6807   1.256   4.411   1.465
 2281TIP3    H2 6808   1.389   4.411   1.538
 2282TIP3   OH2 6809   0.526   0.519   2.006
 2282TIP3    H1 6810   0.519   0.543   2.099
 2282TIP3    H2 6811   0.471   0.441   1.998
 2283TIP3   OH2 6812   2.188   6.345   3.496
 2283TIP3    H1 6813   2.128   6.283   3.537
 2283TIP3    H2 6814   2.217   6.301   3.416
 2284TIP3   OH2 6815   3.395   2.275   2.868
 2284TIP3    H1 6816   3.489   2.255   2.866
 2284TIP3    H2 6817   3.354   2.194   2.898
 2285TIP3   OH2 6818   1.058   2.228   4.776
 2285TIP3    H1 6819   1.134   2.266   4.821
 2285TIP3    H2 6820   1.038   2.149   4.827
 2286TIP3   OH2 6821   1.360   1.962   4.463
 2286TIP3    H1 6822   1.361   1.932   4.553
 2286TIP3    H2 6823   1.303   2.039   4.463
 2287TIP3   OH2 6824   5.445   2.512   4.571
 2287TIP3    H1 6825   5.532   2.543   4.596
 2287TIP3    H2 6826   5.415   2.577   4.507
 2288TIP3   OH2 6827   7.143   2.123   0.803
 2288TIP3    H1 6828   7.197   2.050   0.831
 2288TIP3    H2 6829   7.119   2.168   0.884
 2289TIP3   OH2 6830   0.272   3.675   4.053
 2289TIP3    H1 6831   0.304   3.588   4.076
 2289TIP3    H2 6832   0.237   3.665   3.964
 2290TIP3   OH2 6833   5.246   0.334   1.220
 2290TIP3    H1 6834   5.234   0.396   1.292
 2290TIP3    H2 6835   5.332   0.355   1.184
 2291TIP3   OH2 6836   3.320   6.279   4.194
 2291TIP3    H1 6837   3.259   6.211   4.168
 2291TIP3    H2 6838   3.328   6.336   4.117
 2292TIP3   OH2 6839   6.672   4.452   2.496
 2292TIP3    H1 6840   6.581   4.434   2.474
 2292TIP3    H2 6841   6.677   4.438   2.591
 2293TIP3   OH2 6842   1.263   3.624   1.300
 2293TIP3    H1 6843   1.351   3.659   1.317
 2293TIP3    H2 6844   1.276   3.563   1.227
 2294TIP3   OH2 6845   4.307   3.373   0.291
 2294TIP3    H1 6846   4.354   3.314   0.349
 2294TIP3    H2 6847   4.358   3.454   0.291
 2295TIP3   OH2 6848   1.143   2.206   4.517
 2295TIP3    H1 6849   1.089   2.243   4.587
 2295TIP3    H2 6850   1.084   2.145   4.472
 2296TIP3   OH2 6851   5.369   3.230   0.249
 2296TIP3    H1 6852   5.363   3.191   0.161
 2296TIP3    H2 6853   5.324   3.167   0.305
 2297TIP3   OH2 6854   5.387   5.552   3.592
 2297TIP3    H1 6855   5.369   5.488   3.524
 2297TIP3    H2 6856   5.479   5.537   3.616
 2298TIP3   OH2 6857   6.528   1.234   3.263
 2298TIP3    H1 6858   6.523   1.329   3.247
 2298TIP3    H2 6859   6.621   1.213   3.248
 2299TIP3   OH2 6860   2.945   1.962   1.582
 2299TIP3    H1 6861   2.884   1.904   1.537
 2299TIP3    H2 6862   2.917   2.050   1.557
 2300TIP3   OH2 6863   1.945   0.900   2.755
 2300TIP3    H1 6864   2.004   0.909   2.830
 2300TIP3    H2 6865   1.982   0.958   2.688
 2301TIP3   OH2 6866   6.716   4.274   4.855
 2301TIP3    H1 6867   6.639   4.257   4.802
 2301TIP3    H2 6868   6.739   4.365   4.837
 2302TIP3   OH2 6869   6.106   2.429   3.856
 2302TIP3    H1 6870   6.051   2.478   3.918
 2302TIP3    H2 6871   6.170   2.384   3.911
 2303TIP3   OH2 6872   3.202   4.667   2.306
 2303TIP3    H1 6873   3.208   4.752   2.263
 2303TIP3    H2 6874   3.272   4.669   2.372
 2304TIP3   OH2 6875   1.310   5.816   4.789
 2304TIP3    H1 6876   1.347   5.782   4.871
 2304TIP3    H2 6877   1.385   5.826   4.731
 2305TIP3   OH2 6878   4.126   2.410   3.707
 2305TIP3    H1 6879   4.157   2.484   3.759
 2305TIP3    H2 6880   4.190   2.401   3.637
 2306TIP3   OH2 6881   3.694   6.305   2.833
 2306TIP3    H1 6882   3.627   6.240   2.813
 2306TIP3    H2 6883   3.699   6.306   2.929
 2307TIP3   OH2 6884   1.361   0.772   5.754
 2307TIP3    H1 6885   1.419   0.730   5.691
 2307TIP3    H2 6886   1.381   0.866   5.746
 2308TIP3   OH2 6887   3.988   4.804   5.017
 2308TIP3    H1 6888   3.943   4.860   4.953
 2308TIP3    H2 6889   4.079   4.831   5.012
 2309TIP3   OH2 6890   3.191   0.608   0.223
 2309TIP3    H1 6891   3.176   0.681   0.282
 2309TIP3    H2 6892   3.188   0.646   0.135
 2310TIP3   OH2 6893   2.144   3.459   2.772
 2310TIP3    H1 6894   2.179   3.494   2.690
 2310TIP3    H2 6895   2.079   3.523   2.800
 2311TIP3   OH2 6896   6.916   5.552   2.940
 2311TIP3    H1 6897   6.959   5.624   2.894
 2311TIP3    H2 6898   6.825   5.580   2.949
 2312TIP3   OH2 6899   1.691   6.294   0.868
 2312TIP3    H1 6900   1.715   6.213   0.823
 2312TIP3    H2 6901   1.763   6.354   0.849
 2313TIP3   OH2 6902   0.555   6.281   5.285
 2313TIP3    H1 6903   0.506   6.202   5.263
 2313TIP3    H2 6904   0.491   6.338   5.326
 2314TIP3   OH2 6905   3.943   1.121   3.213
 2314TIP3    H1 6906   3.915   1.114   3.121
 2314TIP3    H2 6907   3.873   1.078   3.262
 2315TIP3   OH2 6908   5.995   6.737   1.126
 2315TIP3    H1 6909   6.073   6.706   1.171
 2315TIP3    H2 6910   6.000   6.832   1.131
 2316TIP3   OH2 6911   5.766   4.664   1.259
 2316TIP3    H1 6912   5.789   4.756   1.255
 2316TIP3    H2 6913   5.833   4.624   1.315
 2317TIP3   OH2 6914   3.228   3.327   1.987
 2317TIP3    H1 6915   3.138   3.352   1.968
 2317TIP3    H2 6916   3.262   3.291   1.905
 2318TIP3   OH2 6917   6.423   4.705   5.657
 2318TIP3    H1 6918   6.346   4.665   5.697
 2318TIP3    H2 6919   6.457   4.764   5.725
 2319TIP3   OH2 6920   4.542   1.242   0.385
 2319TIP3    H1 6921   4.587   1.326   0.382
 2319TIP3    H2 6922   4.612   1.177   0.378
 2320TIP3   OH2 6923   3.295   0.363   0.313
 2320TIP3    H1 6924   3.328   0.389   0.399
 2320TIP3    H2 6925   3.262   0.444   0.274
 2321TIP3   OH2 6926   4.211   2.023   3.323
 2321TIP3    H1 6927   4.151   1.966   3.275
 2321TIP3    H2 6928   4.269   1.963   3.368
 2322TIP3   OH2 6929   0.916   3.391   2.518
 2322TIP3    H1 6930   0.835   3.390   2.570
 2322TIP3    H2 6931   0.986   3.388   2.583
 2323TIP3   OH2 6932   4.230   1.306   4.328
 2323TIP3    H1 6933   4.237   1.304   4.233
 2323TIP3    H2 6934   4.261   1.220   4.357
 2324TIP3   OH2 6935   6.025   0.500   0.484
 2324TIP3    H1 6936   6.057   0.420   0.525
 2324TIP3    H2 6937   5.989   0.551   0.557
 2325TIP3   OH2 6938   5.085   3.031   0.926
 2325TIP3    H1 6939   5.083   3.004   1.018
 2325TIP3    H2 6940   4.996   3.058   0.906
 2326TIP3   OH2 6941   5.822   6.460   1.107
 2326TIP3    H1 6942   5.878   6.413   1.045
 2326TIP3    H2 6943   5.798   6.541   1.062
 2327TIP3   OH2 6944   0.069   3.296   3.519
 2327TIP3    H1 6945   0.061   3.324   3.610
 2327TIP3    H2 6946  -0.002   3.340   3.473
 2328TIP3   OH2 6947   1.094   2.235   5.567
 2328TIP3    H1 6948   1.145   2.280   5.635
 2328TIP3    H2 6949   1.032   2.301   5.536
 2329TIP3   OH2 6950   3.784   1.260   0.159
 2329TIP3    H1 6951   3.759   1.238   0.070
 2329TIP3    H2 6952   3.800   1.176   0.201
 2330TIP3   OH2 6953   1.755   0.068   2.346
 2330TIP3    H1 6954   1.809   0.127   2.294
 2330TIP3    H2 6955   1.817   0.007   2.386
 2331TIP3   OH2 6956   2.741   6.293   5.602
 2331TIP3    H1 6957   2.726   6.387   5.601
 2331TIP3    H2 6958   2.731   6.267   5.510
 2332TIP3   OH2 6959   6.670   5.724   1.584
 2332TIP3    H1 6960   6.724   5.711   1.662
 2332TIP3    H2 6961   6.729   5.767   1.522
 2333TIP3   OH2 6962   0.608   4.861   3.802
 2333TIP3    H1 6963   0.524   4.836   3.840
 2333TIP3    H2 6964   0.652   4.777   3.786
 2334TIP3   OH2 6965   2.020   6.777   0.821
 2334TIP3    H1 6966   2.083   6.821   0.878
 2334TIP3    H2 6967   2.072   6.710   0.775
 2335TIP3   OH2 6968   6.279   3.421   0.932
 2335TIP3    H1 6969   6.360   3.465   0.959
 2335TIP3    H2 6970   6.283   3.421   0.836
 2336TIP3   OH2 6971   5.767   5.649   4.171
 2336TIP3    H1 6972   5.740   5.728   4.124
 2336TIP3    H2 6973   5.703   5.641   4.242
 2337TIP3   OH2 6974   3.341   2.977   2.088
 2337TIP3    H1 6975   3.369   2.885   2.090
 2337TIP3    H2 6976   3.309   2.990   1.998
 2338TIP3   OH2 6977   3.002   1.560   0.713
 2338TIP3    H1 6978   3.056   1.635   0.738
 2338TIP3    H2 6979   2.940   1.595   0.649
 2339TIP3   OH2 6980   1.532   1.675   0.444
 2339TIP3    H1 6981   1.474   1.678   0.520
 2339TIP3    H2 6982   1.538   1.766   0.416
 2340TIP3   OH2 6983   2.540   3.508   4.521
 2340TIP3    H1 6984   2.521   3.585   4.468
 2340TIP3    H2 6985   2.468   3.448   4.502
 2341TIP3   OH2 6986   6.433   2.653   3.636
 2341TIP3    H1 6987   6.371   2.710   3.682
 2341TIP3    H2 6988   6.469   2.597   3.705
 2342TIP3   OH2 6989   2.983   4.271   2.207
 2342TIP3    H1 6990   3.021   4.210   2.270
 2342TIP3    H2 6991   2.924   4.217   2.154
 2343TIP3   OH2 6992   2.725   4.314   4.020
 2343TIP3    H1 6993   2.736   4.230   4.065
 2343TIP3    H2 6994   2.730   4.293   3.927
 2344TIP3   OH2 6995   3.502   1.555   0.635
 2344TIP3    H1 6996   3.489   1.631   0.577
 2344TIP3    H2 6997   3.582   1.576   0.684
 2345TIP3   OH2 6998   1.397   3.872   5.821
 2345TIP3    H1 6999   1.479   3.853   5.867
 2345TIP3    H2 7000   1.393   3.967   5.818
 2346TIP3   OH2 7001   3.566   1.837   4.848
 2346TIP3    H1 7002   3.497   1.771   4.848
 2346TIP3    H2 7003   3.559   1.880   4.763
 2347TIP3   OH2 7004   5.285   0.677   0.428
 2347TIP3    H1 7005   5.295   0.626   0.347
 2347TIP3    H2 7006   5.202   0.646   0.465
 2348TIP3   OH2 7007   6.535   6.310   5.501
 2348TIP3    H1 7008   6.582   6.374   5.449
 2348TIP3    H2 7009   6.590   6.231   5.497
 2349TIP3   OH2 7010   5.400   5.816   5.544
 2349TIP3    H1 7011   5.357   5.889   5.588
 2349TIP3    H2 7012   5.338   5.744   5.551
 2350TIP3   OH2 7013   2.375   0.480   5.716
 2350TIP3    H1 7014   2.399   0.568   5.685
 2350TIP3    H2 7015   2.280   0.485   5.729
 2351TIP3   OH2 7016   3.808   1.874   0.902
 2351TIP3    H1 7017   3.767   1.795   0.939
 2351TIP3    H2 7018   3.748   1.945   0.926
 2352TIP3   OH2 7019   2.151   4.242   5.786
 2352TIP3    H1 7020   2.219   4.180   5.814
 2352TIP3    H2 7021   2.109   4.199   5.712
 2353TIP3   OH2 7022   5.897   5.855   2.914
 2353TIP3    H1 7023   5.922   5.781   2.860
 2353TIP3    H2 7024   5.945   5.843   2.995
 2354TIP3   OH2 7025   2.131   1.586   1.536
 2354TIP3    H1 7026   2.045   1.628   1.536
 2354TIP3    H2 7027   2.189   1.649   1.492
 2355TIP3   OH2 7028   0.370   3.715   2.310
 2355TIP3    H1 7029   0.341   3.796   2.268
 2355TIP3    H2 7030   0.463   3.710   2.290
 2356TIP3   OH2 7031   5.829   0.629   0.013
 2356TIP3    H1 7032   5.887   0.677   0.072
 2356TIP3    H2 7033   5.805   0.692  -0.054
 2357TIP3   OH2 7034   0.897   2.429   1.716
 2357TIP3    H1 7035   0.938   2.354   1.759
 2357TIP3    H2 7036   0.970   2.482   1.684
 2358TIP3   OH2 7037   1.226   2.185   1.227
 2358TIP3    H1 7038   1.296   2.242   1.258
 2358TIP3    H2 7039   1.148   2.241   1.229
 2359TIP3   OH2 7040   2.929   5.653   0.759
 2359TIP3    H1 7041   2.884   5.617   0.683
 2359TIP3    H2 7042   3.021   5.656   0.733
 2360TIP3   OH2 7043   6.304   6.433   0.055
 2360TIP3    H1 7044   6.216   6.451   0.023
 2360TIP3    H2 7045   6.310   6.337   0.057
 2361TIP3   OH2 7046   0.873   5.931   3.847
 2361TIP3    H1 7047   0.877   6.010   3.793
 2361TIP3    H2 7048   0.814   5.954   3.918
 2362TIP3   OH2 7049   7.138   5.537   2.555
 2362TIP3    H1 7050   7.184   5.482   2.492
 2362TIP3    H2 7051   7.159   5.500   2.640
 2363TIP3   OH2 7052   2.407   5.439   5.070
 2363TIP3    H1 7053   2.404   5.517   5.125
 2363TIP3    H2 7054   2.328   5.391   5.092
 2364TIP3   OH2 7055   2.572   0.767   2.190
 2364TIP3    H1 7056   2.625   0.845   2.203
 2364TIP3    H2 7057   2.624   0.696   2.228
 2365TIP3   OH2 7058   4.324   5.217   3.705
 2365TIP3    H1 7059   4.326   5.159   3.781
 2365TIP3    H2 7060   4.248   5.189   3.655
 2366TIP3   OH2 7061   1.135   0.194   2.565
 2366TIP3    H1 7062   1.222   0.169   2.597
 2366TIP3    H2 7063   1.120   0.137   2.490
 2367TIP3   OH2 7064   0.853   5.032   2.104
 2367TIP3    H1 7065   0.948   5.021   2.107
 2367TIP3    H2 7066   0.832   5.077   2.186
 2368TIP3   OH2 7067   5.154   4.068   0.820
 2368TIP3    H1 7068   5.194   4.058   0.734
 2368TIP3    H2 7069   5.096   4.144   0.810
 2369TIP3   OH2 7070   6.901   0.467   3.209
 2369TIP3    H1 7071   6.858   0.548   3.237
 2369TIP3    H2 7072   6.937   0.429   3.289
 2370TIP3   OH2 7073   0.425   6.365   3.387
 2370TIP3    H1 7074   0.352   6.410   3.429
 2370TIP3    H2 7075   0.401   6.273   3.387
 2371TIP3   OH2 7076   1.002   5.183   2.561
 2371TIP3    H1 7077   1.021   5.225   2.477
 2371TIP3    H2 7078   0.982   5.255   2.621
 2372TIP3   OH2 7079   1.615   4.264   2.014
 2372TIP3    H1 7080   1.695   4.212   2.022
 2372TIP3    H2 7081   1.569   4.225   1.940
 2373TIP3   OH2 7082   3.390   1.726   0.895
 2373TIP3    H1 7083   3.346   1.809   0.914
 2373TIP3    H2 7084   3.383   1.716   0.800
 2374TIP3   OH2 7085   6.307   1.272   4.724
 2374TIP3    H1 7086   6.243   1.231   4.666
 2374TIP3    H2 7087   6.340   1.199   4.777
 2375TIP3   OH2 7088   4.492   5.536   4.009
 2375TIP3    H1 7089   4.526   5.501   3.927
 2375TIP3    H2 7090   4.528   5.479   4.077
 2376TIP3   OH2 7091   5.140   1.963   5.523
 2376TIP3    H1 7092   5.171   2.047   5.488
 2376TIP3    H2 7093   5.119   1.982   5.615
 2377TIP3   OH2 7094   3.521   4.053   4.419
 2377TIP3    H1 7095   3.427   4.055   4.437
 2377TIP3    H2 7096   3.527   4.047   4.324
 2378TIP3   OH2 7097   3.780   5.145   2.371
 2378TIP3    H1 7098   3.713   5.099   2.320
 2378TIP3    H2 7099   3.730   5.202   2.429
 2379TIP3   OH2 7100   4.083   4.569   3.929
 2379TIP3    H1 7101   4.104   4.486   3.886
 2379TIP3    H2 7102   4.001   4.597   3.889
 2380TIP3   OH2 7103   1.886   1.872   2.394
 2380TIP3    H1 7104   1.890   1.845   2.485
 2380TIP3    H2 7105   1.883   1.968   2.397
 2381TIP3   OH2 7106   6.045   1.096   3.723
 2381TIP3    H1 7107   6.039   1.001   3.725
 2381TIP3    H2 7108   6.009   1.120   3.637
 2382TIP3   OH2 7109   4.926   4.379   3.261
 2382TIP3    H1 7110   4.835   4.406   3.252
 2382TIP3    H2 7111   4.951   4.411   3.348
 2383TIP3   OH2 7112   6.410   1.865   5.203
 2383TIP3    H1 7113   6.385   1.911   5.123
 2383TIP3    H2 7114   6.504   1.881   5.212
 2384TIP3   OH2 7115   1.461   4.674   2.067
 2384TIP3    H1 7116   1.433   4.593   2.111
 2384TIP3    H2 7117   1.555   4.662   2.053
 2385TIP3   OH2 7118   7.091   3.916   4.761
 2385TIP3    H1 7119   7.154   3.947   4.697
 2385TIP3    H2 7120   7.049   3.995   4.794
 2386TIP3   OH2 7121   6.319   2.315   3.033
 2386TIP3    H1 7122   6.359   2.379   2.975
 2386TIP3    H2 7123   6.234   2.352   3.055
 2387TIP3   OH2 7124   2.011   0.249   0.157
 2387TIP3    H1 7125   2.062   0.314   0.108
 2387TIP3    H2 7126   1.967   0.198   0.090
 2388TIP3   OH2 7127   5.299   4.086   0.592
 2388TIP3    H1 7128   5.293   4.094   0.497
 2388TIP3    H2 7129   5.330   4.172   0.622
 2389TIP3   OH2 7130   3.042   0.477   5.182
 2389TIP3    H1 7131   3.073   0.402   5.233
 2389TIP3    H2 7132   3.046   0.551   5.243
 2390TIP3   OH2 7133   5.268   2.256   0.549
 2390TIP3    H1 7134   5.354   2.224   0.521
 2390TIP3    H2 7135   5.226   2.286   0.469
 2391TIP3   OH2 7136   2.653   6.376   1.666
 2391TIP3    H1 7137   2.648   6.470   1.650
 2391TIP3    H2 7138   2.746   6.355   1.658
 2392TIP3   OH2 7139   3.879   5.064   0.221
 2392TIP3    H1 7140   3.947   5.116   0.179
 2392TIP3    H2 7141   3.883   5.090   0.313
 2393TIP3   OH2 7142   6.749   0.969   0.693
 2393TIP3    H1 7143   6.656   0.951   0.708
 2393TIP3    H2 7144   6.788   0.964   0.780
 2394TIP3   OH2 7145   4.264   1.082   5.338
 2394TIP3    H1 7146   4.238   1.098   5.429
 2394TIP3    H2 7147   4.229   0.996   5.317
 2395TIP3   OH2 7148   4.628   4.439   5.219
 2395TIP3    H1 7149   4.683   4.510   5.253
 2395TIP3    H2 7150   4.544   4.481   5.199
 2396TIP3   OH2 7151   3.380   1.773   4.456
 2396TIP3    H1 7152   3.305   1.727   4.419
 2396TIP3    H2 7153   3.353   1.796   4.545
 2397TIP3   OH2 7154   1.722   4.436   3.276
 2397TIP3    H1 7155   1.768   4.406   3.354
 2397TIP3    H2 7156   1.712   4.358   3.222
 2398TIP3   OH2 7157   4.311   4.191   4.602
 2398TIP3    H1 7158   4.254   4.192   4.679
 2398TIP3    H2 7159   4.393   4.153   4.634
 2399TIP3   OH2 7160   6.020   6.031   1.245
 2399TIP3    H1 7161   6.049   6.109   1.199
 2399TIP3    H2 7162   6.097   6.003   1.295
 2400TIP3   OH2 7163   2.092   2.785   1.268
 2400TIP3    H1 7164   2.034   2.772   1.194
 2400TIP3    H2 7165   2.106   2.697   1.303
 2401TIP3   OH2 7166   3.046   1.738   0.322
 2401TIP3    H1 7167   3.109   1.666   0.329
 2401TIP3    H2 7168   2.987   1.725   0.396
 2402TIP3   OH2 7169   1.848   5.866   0.160
 2402TIP3    H1 7170   1.810   5.953   0.154
 2402TIP3    H2 7171   1.801   5.815   0.093
 2403TIP3   OH2 7172   0.119   6.682   2.331
 2403TIP3    H1 7173   0.131   6.613   2.397
 2403TIP3    H2 7174   0.057   6.742   2.370
 2404TIP3   OH2 7175   4.795   1.081   1.597
 2404TIP3    H1 7176   4.745   1.157   1.628
 2404TIP3    H2 7177   4.882   1.115   1.578
 2405TIP3   OH2 7178   4.659   2.223   3.334
 2405TIP3    H1 7179   4.736   2.176   3.301
 2405TIP3    H2 7180   4.652   2.193   3.425
 2406TIP3   OH2 7181   0.981   0.183   1.840
 2406TIP3    H1 7182   1.044   0.241   1.797
 2406TIP3    H2 7183   0.988   0.100   1.792
 2407TIP3   OH2 7184   1.346   3.701   4.891
 2407TIP3    H1 7185   1.272   3.647   4.865
 2407TIP3    H2 7186   1.342   3.777   4.833
 2408TIP3   OH2 7187   2.261   1.276   4.982
 2408TIP3    H1 7188   2.207   1.355   4.977
 2408TIP3    H2 7189   2.343   1.306   5.021
 2409TIP3   OH2 7190   4.509   3.741   4.718
 2409TIP3    H1 7191   4.586   3.746   4.774
 2409TIP3    H2 7192   4.435   3.732   4.778
 2410TIP3   OH2 7193   4.519   1.298   4.707
 2410TIP3    H1 7194   4.589   1.288   4.642
 2410TIP3    H2 7195   4.547   1.244   4.781
 2411TIP3   OH2 7196   5.277   4.819   4.803
 2411TIP3    H1 7197   5.212   4.800   4.736
 2411TIP3    H2 7198   5.284   4.914   4.805
 2412TIP3   OH2 7199   5.383   3.565   3.301
 2412TIP3    H1 7200   5.384   3.600   3.211
 2412TIP3    H2 7201   5.291   3.548   3.319
 2413TIP3   OH2 7202   5.745   2.904   5.864
 2413TIP3    H1 7203   5.698   2.927   5.944
 2413TIP3    H2 7204   5.780   2.987   5.832
 2414TIP3   OH2 7205   1.171   1.181   0.490
 2414TIP3    H1 7206   1.208   1.259   0.532
 2414TIP3    H2 7207   1.167   1.116   0.560
 2415TIP3   OH2 7208   4.073   3.464   4.556
 2415TIP3    H1 7209   4.166   3.444   4.569
 2415TIP3    H2 7210   4.072   3.530   4.487
 2416TIP3   OH2 7211   3.509   4.993   1.594
 2416TIP3    H1 7212   3.415   4.977   1.609
 2416TIP3    H2 7213   3.544   4.906   1.572
 2417TIP3   OH2 7214   7.027   4.725   5.312
 2417TIP3    H1 7215   6.945   4.754   5.271
 2417TIP3    H2 7216   7.071   4.807   5.336
 2418TIP3   OH2 7217   1.242   4.458   5.535
 2418TIP3    H1 7218   1.195   4.392   5.485
 2418TIP3    H2 7219   1.255   4.419   5.622
 2419TIP3   OH2 7220   0.774   5.059   0.848
 2419TIP3    H1 7221   0.683   5.059   0.878
 2419TIP3    H2 7222   0.811   4.979   0.885
 2420TIP3   OH2 7223   3.659   5.481   2.945
 2420TIP3    H1 7224   3.597   5.429   2.893
 2420TIP3    H2 7225   3.621   5.569   2.946
 2421TIP3   OH2 7226   6.785   4.209   5.415
 2421TIP3    H1 7227   6.851   4.179   5.477
 2421TIP3    H2 7228   6.788   4.305   5.421
 2422TIP3   OH2 7229   1.944   3.508   4.116
 2422TIP3    H1 7230   1.860   3.511   4.071
 2422TIP3    H2 7231   1.924   3.470   4.202
 2423TIP3   OH2 7232   7.139   0.660   4.996
 2423TIP3    H1 7233   7.058   0.629   4.956
 2423TIP3    H2 7234   7.201   0.665   4.923
 2424TIP3   OH2 7235   5.426   6.222   3.067
 2424TIP3    H1 7236   5.396   6.215   3.158
 2424TIP3    H2 7237   5.513   6.184   3.067
 2425TIP3   OH2 7238   5.065   1.809   2.195
 2425TIP3    H1 7239   5.099   1.720   2.194
 2425TIP3    H2 7240   5.114   1.853   2.125
 2426TIP3   OH2 7241   2.271   2.181   4.069
 2426TIP3    H1 7242   2.340   2.246   4.054
 2426TIP3    H2 7243   2.220   2.182   3.987
 2427TIP3   OH2 7244   1.999   5.232   2.964
 2427TIP3    H1 7245   1.929   5.194   2.910
 2427TIP3    H2 7246   2.046   5.291   2.905
 2428TIP3   OH2 7247   0.985   4.762   2.356
 2428TIP3    H1 7248   1.012   4.851   2.330
 2428TIP3    H2 7249   0.978   4.766   2.451
 2429TIP3   OH2 7250   3.554   5.046   5.551
 2429TIP3    H1 7251   3.638   4.998   5.554
 2429TIP3    H2 7252   3.496   4.990   5.500
 2430TIP3   OH2 7253   3.922   2.524   2.749
 2430TIP3    H1 7254   3.958   2.557   2.667
 2430TIP3    H2 7255   3.871   2.447   2.723
 2431TIP3   OH2 7256   6.539   3.937   1.572
 2431TIP3    H1 7257   6.474   4.003   1.597
 2431TIP3    H2 7258   6.540   3.875   1.645
 2432TIP3   OH2 7259   0.319   0.160   3.327
 2432TIP3    H1 7260   0.295   0.243   3.286
 2432TIP3    H2 7261   0.395   0.181   3.381
 2433TIP3   OH2 7262   4.909   0.829   2.687
 2433TIP3    H1 7263   4.952   0.879   2.619
 2433TIP3    H2 7264   4.839   0.782   2.642
 2434TIP3   OH2 7265   4.369   4.689   2.910
 2434TIP3    H1 7266   4.396   4.714   2.998
 2434TIP3    H2 7267   4.275   4.707   2.907
 2435TIP3   OH2 7268   1.707   2.713   2.461
 2435TIP3    H1 7269   1.722   2.760   2.543
 2435TIP3    H2 7270   1.632   2.657   2.480
 2436TIP3   OH2 7271   0.235   1.662   5.617
 2436TIP3    H1 7272   0.145   1.627   5.616
 2436TIP3    H2 7273   0.235   1.725   5.689
 2437TIP3   OH2 7274   1.552   5.809   2.805
 2437TIP3    H1 7275   1.639   5.835   2.775
 2437TIP3    H2 7276   1.494   5.829   2.731
 2438TIP3   OH2 7277   4.237   6.138   4.520
 2438TIP3    H1 7278   4.183   6.168   4.447
 2438TIP3    H2 7279   4.303   6.207   4.531
 2439TIP3   OH2 7280   1.755   4.769   4.273
 2439TIP3    H1 7281   1.850   4.777   4.277
 2439TIP3    H2 7282   1.740   4.692   4.217
 2440TIP3   OH2 7283   4.835   1.968   4.745
 2440TIP3    H1 7284   4.855   1.878   4.771
 2440TIP3    H2 7285   4.756   1.991   4.793
 2441TIP3   OH2 7286   2.898   5.010   4.306
 2441TIP3    H1 7287   2.889   4.964   4.222
 2441TIP3    H2 7288   2.876   4.945   4.372
 2442TIP3   OH2 7289   1.535   5.404   0.619
 2442TIP3    H1 7290   1.629   5.392   0.634
 2442TIP3    H2 7291   1.493   5.370   0.698
 2443TIP3   OH2 7292   0.051   4.330   4.215
 2443TIP3    H1 7293   0.034   4.291   4.129
 2443TIP3    H2 7294   0.141   4.304   4.235
 2444TIP3   OH2 7295   6.970   0.936   4.441
 2444TIP3    H1 7296   6.895   0.976   4.397
 2444TIP3    H2 7297   6.994   0.999   4.509
 2445TIP3   OH2 7298   3.574   0.479   0.163
 2445TIP3    H1 7299   3.568   0.541   0.236
 2445TIP3    H2 7300   3.646   0.512   0.110
 2446TIP3   OH2 7301   5.758   0.817   4.383
 2446TIP3    H1 7302   5.793   0.902   4.411
 2446TIP3    H2 7303   5.691   0.796   4.449
 2447TIP3   OH2 7304   2.330   4.770   5.570
 2447TIP3    H1 7305   2.283   4.853   5.563
 2447TIP3    H2 7306   2.319   4.729   5.485
 2448TIP3   OH2 7307   5.913   4.166   3.318
 2448TIP3    H1 7308   5.820   4.185   3.309
 2448TIP3    H2 7309   5.940   4.213   3.397
 2449TIP3   OH2 7310   0.766   5.847   1.864
 2449TIP3    H1 7311   0.785   5.844   1.958
 2449TIP3    H2 7312   0.849   5.875   1.824
 2450TIP3   OH2 7313   2.600   4.243   2.538
 2450TIP3    H1 7314   2.683   4.290   2.529
 2450TIP3    H2 7315   2.595   4.220   2.631
 2451TIP3   OH2 7316   7.028   5.509   3.863
 2451TIP3    H1 7317   7.123   5.510   3.850
 2451TIP3    H2 7318   7.009   5.424   3.903
 2452TIP3   OH2 7319   5.358   3.218   1.161
 2452TIP3    H1 7320   5.450   3.217   1.187
 2452TIP3    H2 7321   5.360   3.225   1.065
 2453TIP3   OH2 7322   0.265   2.474   3.128
 2453TIP3    H1 7323   0.207   2.417   3.177
 2453TIP3    H2 7324   0.292   2.541   3.190
 2454TIP3   OH2 7325   5.365   1.354   5.141
 2454TIP3    H1 7326   5.299   1.321   5.202
 2454TIP3    H2 7327   5.318   1.366   5.059
 2455TIP3   OH2 7328   3.450   1.399   0.409
 2455TIP3    H1 7329   3.452   1.306   0.431
 2455TIP3    H2 7330   3.456   1.443   0.494
 2456TIP3   OH2 7331   0.682   0.075   3.841
 2456TIP3    H1 7332   0.594   0.113   3.846
 2456TIP3    H2 7333   0.682   0.028   3.758
 2457TIP3   OH2 7334   0.996   6.480   3.436
 2457TIP3    H1 7335   1.041   6.457   3.518
 2457TIP3    H2 7336   0.949   6.561   3.456
 2458TIP3   OH2 7337   3.888   0.713   5.608
 2458TIP3    H1 7338   3.936   0.773   5.664
 2458TIP3    H2 7339   3.871   0.637   5.662
 2459TIP3   OH2 7340   5.608   0.993   3.903
 2459TIP3    H1 7341   5.564   0.917   3.863
 2459TIP3    H2 7342   5.647   0.958   3.983
 2460TIP3   OH2 7343   6.821   2.715   3.675
 2460TIP3    H1 7344   6.824   2.803   3.712
 2460TIP3    H2 7345   6.777   2.662   3.742
 2461TIP3   OH2 7346   3.358   0.119   1.638
 2461TIP3    H1 7347   3.291   0.186   1.646
 2461TIP3    H2 7348   3.432   0.164   1.598
 2462TIP3   OH2 7349   1.651   3.380   4.679
 2462TIP3    H1 7350   1.708   3.319   4.726
 2462TIP3    H2 7351   1.599   3.324   4.621
 2463TIP3   OH2 7352   4.180   4.515   5.734
 2463TIP3    H1 7353   4.136   4.553   5.659
 2463TIP3    H2 7354   4.126   4.540   5.809
 2464TIP3   OH2 7355   2.115   5.443   3.257
 2464TIP3    H1 7356   2.035   5.456   3.206
 2464TIP3    H2 7357   2.087   5.450   3.348
 2465TIP3   OH2 7358   0.077   5.251   3.058
 2465TIP3    H1 7359   0.085   5.184   3.125
 2465TIP3    H2 7360   0.158   5.303   3.065
 2466TIP3   OH2 7361   6.657   3.013   3.470
 2466TIP3    H1 7362   6.728   2.955   3.499
 2466TIP3    H2 7363   6.579   2.981   3.517
 2467TIP3   OH2 7364   1.769   4.102   1.797
 2467TIP3    H1 7365   1.775   4.192   1.764
 2467TIP3    H2 7366   1.810   4.049   1.729
 2468TIP3   OH2 7367   4.136   4.255   2.015
 2468TIP3    H1 7368   4.114   4.348   2.022
 2468TIP3    H2 7369   4.190   4.238   2.092
 2469TIP3   OH2 7370   2.888   3.537   4.025
 2469TIP3    H1 7371   2.976   3.499   4.032
 2469TIP3    H2 7372   2.830   3.462   4.017
 2470TIP3   OH2 7373   0.390   6.456   5.427
 2470TIP3    H1 7374   0.343   6.492   5.502
 2470TIP3    H2 7375   0.347   6.494   5.350
 2471TIP3   OH2 7376   6.552   2.249   2.555
 2471TIP3    H1 7377   6.561   2.182   2.623
 2471TIP3    H2 7378   6.622   2.312   2.573
 2472TIP3   OH2 7379   5.043   4.101   1.790
 2472TIP3    H1 7380   5.083   4.084   1.705
 2472TIP3    H2 7381   5.032   4.014   1.829
 2473TIP3   OH2 7382   5.669   2.960   3.342
 2473TIP3    H1 7383   5.753   3.004   3.327
 2473TIP3    H2 7384   5.689   2.890   3.404
 2474TIP3   OH2 7385   5.395   0.083   0.695
 2474TIP3    H1 7386   5.463   0.016   0.686
 2474TIP3    H2 7387   5.353   0.086   0.609
 2475TIP3   OH2 7388   6.760   3.552   2.746
 2475TIP3    H1 7389   6.800   3.527   2.662
 2475TIP3    H2 7390   6.773   3.647   2.751
 2476TIP3   OH2 7391   2.917   3.812   5.717
 2476TIP3    H1 7392   2.944   3.725   5.747
 2476TIP3    H2 7393   2.855   3.795   5.646
 2477TIP3   OH2 7394   1.931   3.886   0.059
 2477TIP3    H1 7395   1.878   3.931   0.125
 2477TIP3    H2 7396   1.870   3.872  -0.014
 2478TIP3   OH2 7397   3.128   1.354   0.881
 2478TIP3    H1 7398   3.099   1.437   0.843
 2478TIP3    H2 7399   3.106   1.288   0.815
 2479TIP3   OH2 7400   7.177   3.952   1.049
 2479TIP3    H1 7401   7.199   4.038   1.083
 2479TIP3    H2 7402   7.113   3.917   1.110
 2480TIP3   OH2 7403   1.723   1.471   0.171
 2480TIP3    H1 7404   1.677   1.550   0.143
 2480TIP3    H2 7405   1.816   1.496   0.168
 2481TIP3   OH2 7406   2.930   5.581   3.574
 2481TIP3    H1 7407   2.957   5.626   3.494
 2481TIP3    H2 7408   2.836   5.595   3.579
 2482TIP3   OH2 7409   6.263   1.581   4.757
 2482TIP3    H1 7410   6.176   1.618   4.741
 2482TIP3    H2 7411   6.312   1.651   4.799
 2483TIP3   OH2 7412   0.907   6.007   5.076
 2483TIP3    H1 7413   0.961   5.934   5.046
 2483TIP3    H2 7414   0.887   5.985   5.167
 2484TIP3   OH2 7415   1.695   3.138   4.219
 2484TIP3    H1 7416   1.684   3.043   4.229
 2484TIP3    H2 7417   1.661   3.156   4.132
 2485TIP3   OH2 7418   6.947   2.111   0.598
 2485TIP3    H1 7419   6.902   2.184   0.639
 2485TIP3    H2 7420   7.003   2.076   0.667
 2486TIP3   OH2 7421   2.114   5.626   2.026
 2486TIP3    H1 7422   2.130   5.720   2.030
 2486TIP3    H2 7423   2.126   5.596   2.116
 2487TIP3   OH2 7424   6.516   3.471   2.882
 2487TIP3    H1 7425   6.596   3.512   2.851
 2487TIP3    H2 7426   6.465   3.454   2.802
 2488TIP3   OH2 7427   5.585   2.817   5.625
 2488TIP3    H1 7428   5.636   2.826   5.706
 2488TIP3    H2 7429   5.505   2.867   5.640
 2489TIP3   OH2 7430   6.137   5.133   2.654
 2489TIP3    H1 7431   6.198   5.091   2.714
 2489TIP3    H2 7432   6.169   5.223   2.647
 2490TIP3   OH2 7433   5.545   5.179   3.727
 2490TIP3    H1 7434   5.612   5.226   3.776
 2490TIP3    H2 7435   5.555   5.088   3.753
 2491TIP3   OH2 7436   5.898   6.063   0.309
 2491TIP3    H1 7437   5.947   6.132   0.265
 2491TIP3    H2 7438   5.844   6.109   0.373
 2492TIP3   OH2 7439   6.977   6.008   0.257
 2492TIP3    H1 7440   6.893   5.962   0.257
 2492TIP3    H2 7441   7.001   6.013   0.349
 2493TIP3   OH2 7442   1.039   3.913   5.391
 2493TIP3    H1 7443   1.076   3.839   5.343
 2493TIP3    H2 7444   1.103   3.983   5.381
 2494TIP3   OH2 7445   3.972   0.821   3.146
 2494TIP3    H1 7446   4.034   0.778   3.205
 2494TIP3    H2 7447   4.022   0.837   3.066
 2495TIP3   OH2 7448   0.932   4.177   0.299
 2495TIP3    H1 7449   0.960   4.249   0.355
 2495TIP3    H2 7450   1.013   4.132   0.275
 2496TIP3   OH2 7451   5.141   3.901   0.347
 2496TIP3    H1 7452   5.169   3.846   0.420
 2496TIP3    H2 7453   5.047   3.884   0.339
 2497TIP3   OH2 7454   0.716   6.353   0.206
 2497TIP3    H1 7455   0.742   6.269   0.170
 2497TIP3    H2 7456   0.625   6.341   0.232
 2498TIP3   OH2 7457   6.274   3.938   4.545
 2498TIP3    H1 7458   6.328   3.901   4.614
 2498TIP3    H2 7459   6.308   3.901   4.464
 2499TIP3   OH2 7460   0.357   0.369   2.911
 2499TIP3    H1 7461   0.422   0.338   2.974
 2499TIP3    H2 7462   0.385   0.457   2.887
 2500TIP3   OH2 7463   2.490   6.087   3.276
 2500TIP3    H1 7464   2.394   6.094   3.280
 2500TIP3    H2 7465   2.516   6.152   3.211
 2501TIP3   OH2 7466   7.125   5.007   4.732
 2501TIP3    H1 7467   7.075   4.978   4.656
 2501TIP3    H2 7468   7.211   5.030   4.696
 2502TIP3   OH2 7469   7.080   6.114   1.123
 2502TIP3    H1 7470   7.027   6.179   1.169
 2502TIP3    H2 7471   7.079   6.037   1.180
 2503TIP3   OH2 7472   1.827   1.142   5.668
 2503TIP3    H1 7473   1.847   1.223   5.715
 2503TIP3    H2 7474   1.910   1.116   5.629
 2504TIP3   OH2 7475   4.828   5.436   5.100
 2504TIP3    H1 7476   4.910   5.444   5.052
 2504TIP3    H2 7477   4.854   5.407   5.188
 2505TIP3   OH2 7478   7.064   4.866   3.991
 2505TIP3    H1 7479   7.005   4.821   4.051
 2505TIP3    H2 7480   7.148   4.868   4.037
 2506TIP3   OH2 7481   5.274   0.726   3.091
 2506TIP3    H1 7482   5.304   0.816   3.110
 2506TIP3    H2 7483   5.258   0.726   2.997
 2507TIP3   OH2 7484   6.225   2.781   2.184
 2507TIP3    H1 7485   6.144   2.829   2.170
 2507TIP3    H2 7486   6.279   2.840   2.236
 2508TIP3   OH2 7487   0.178   3.126   0.957
 2508TIP3    H1 7488   0.227   3.092   0.882
 2508TIP3    H2 7489   0.146   3.047   1.002
 2509TIP3   OH2 7490   4.273   4.617   5.028
 2509TIP3    H1 7491   4.288   4.585   5.117
 2509TIP3    H2 7492   4.355   4.599   4.982
 2510TIP3   OH2 7493   0.746   0.026   5.337
 2510TIP3    H1 7494   0.783   0.114   5.331
 2510TIP3    H2 7495   0.820  -0.032   5.320
 2511TIP3   OH2 7496   2.710   5.360   2.789
 2511TIP3    H1 7497   2.648   5.287   2.791
 2511TIP3    H2 7498   2.676   5.417   2.720
 2512TIP3   OH2 7499   6.074   0.945   1.727
 2512TIP3    H1 7500   6.037   0.889   1.658
 2512TIP3    H2 7501   6.086   0.886   1.802
 2513TIP3   OH2 7502   0.579   1.315   4.265
 2513TIP3    H1 7503   0.506   1.376   4.251
 2513TIP3    H2 7504   0.639   1.363   4.323
 2514TIP3   OH2 7505   4.678   1.374   1.006
 2514TIP3    H1 7506   4.663   1.469   1.009
 2514TIP3    H2 7507   4.772   1.365   1.019
 2515TIP3   OH2 7508   6.928   0.540   2.601
 2515TIP3    H1 7509   6.889   0.612   2.552
 2515TIP3    H2 7510   6.928   0.466   2.540
 2516TIP3   OH2 7511   4.440   4.581   5.712
 2516TIP3    H1 7512   4.461   4.658   5.765
 2516TIP3    H2 7513   4.356   4.550   5.745
 2517TIP3   OH2 7514   4.018   0.171   4.042
 2517TIP3    H1 7515   3.987   0.098   4.096
 2517TIP3    H2 7516   3.973   0.248   4.079
 2518TIP3   OH2 7517   0.108   1.564   5.285
 2518TIP3    H1 7518   0.028   1.617   5.287
 2518TIP3    H2 7519   0.081   1.481   5.247
 2519TIP3   OH2 7520   4.323   2.206   1.756
 2519TIP3    H1 7521   4.365   2.291   1.769
 2519TIP3    H2 7522   4.260   2.199   1.828
 2520TIP3   OH2 7523   6.783   0.888   2.266
 2520TIP3    H1 7524   6.736   0.966   2.295
 2520TIP3    H2 7525   6.743   0.867   2.181
 2521TIP3   OH2 7526   3.383   4.116   2.194
 2521TIP3    H1 7527   3.376   4.036   2.247
 2521TIP3    H2 7528   3.357   4.186   2.253
 2522TIP3   OH2 7529   2.177   2.040   0.026
 2522TIP3    H1 7530   2.177   1.952   0.064
 2522TIP3    H2 7531   2.170   2.098   0.102
 2523TIP3   OH2 7532   2.992   1.889   0.700
 2523TIP3    H1 7533   2.965   1.947   0.629
 2523TIP3    H2 7534   2.915   1.881   0.755
 2524TIP3   OH2 7535   6.420   4.671   1.542
 2524TIP3    H1 7536   6.423   4.579   1.568
 2524TIP3    H2 7537   6.435   4.670   1.447
 2525TIP3   OH2 7538   1.664   5.440   4.798
 2525TIP3    H1 7539   1.706   5.523   4.776
 2525TIP3    H2 7540   1.726   5.373   4.770
 2526TIP3   OH2 7541   0.790   3.200   3.945
 2526TIP3    H1 7542   0.739   3.280   3.936
 2526TIP3    H2 7543   0.881   3.229   3.937
 2527TIP3   OH2 7544   5.120   1.490   0.261
 2527TIP3    H1 7545   5.154   1.524   0.344
 2527TIP3    H2 7546   5.043   1.438   0.286
 2528TIP3   OH2 7547   7.200   6.266   3.189
 2528TIP3    H1 7548   7.282   6.286   3.144
 2528TIP3    H2 7549   7.152   6.349   3.190
 2529TIP3   OH2 7550   3.044   5.855   2.923
 2529TIP3    H1 7551   3.111   5.791   2.948
 2529TIP3    H2 7552   3.092   5.924   2.878
 2530TIP3   OH2 7553   0.073   3.856   4.117
 2530TIP3    H1 7554   0.140   3.793   4.088
 2530TIP3    H2 7555   0.054   3.831   4.207
 2531TIP3   OH2 7556   4.752   0.678   0.732
 2531TIP3    H1 7557   4.727   0.770   0.733
 2531TIP3    H2 7558   4.835   0.676   0.686
 2532TIP3   OH2 7559   6.888   3.514   3.528
 2532TIP3    H1 7560   6.821   3.462   3.573
 2532TIP3    H2 7561   6.936   3.449   3.476
 2533TIP3   OH2 7562   1.477   0.940   5.467
 2533TIP3    H1 7563   1.536   0.924   5.541
 2533TIP3    H2 7564   1.521   1.007   5.415
 2534TIP3   OH2 7565   5.366   4.364   3.918
 2534TIP3    H1 7566   5.332   4.328   4.000
 2534TIP3    H2 7567   5.315   4.444   3.905
 2535TIP3   OH2 7568   6.461   5.610   2.554
 2535TIP3    H1 7569   6.509   5.533   2.524
 2535TIP3    H2 7570   6.530   5.672   2.581
 2536TIP3   OH2 7571   1.107   6.033   5.359
 2536TIP3    H1 7572   1.189   6.058   5.402
 2536TIP3    H2 7573   1.135   5.991   5.278
 2537TIP3   OH2 7574   3.895   3.428   3.266
 2537TIP3    H1 7575   3.855   3.369   3.202
 2537TIP3    H2 7576   3.830   3.438   3.335
 2538TIP3   OH2 7577   3.123   6.621   4.829
 2538TIP3    H1 7578   3.100   6.550   4.768
 2538TIP3    H2 7579   3.145   6.695   4.772
 2539TIP3   OH2 7580   0.037   4.049   5.490
 2539TIP3    H1 7581   0.057   3.955   5.488
 2539TIP3    H2 7582   0.067   4.078   5.576
 2540TIP3   OH2 7583   2.277   2.280   4.727
 2540TIP3    H1 7584   2.362   2.306   4.691
 2540TIP3    H2 7585   2.288   2.188   4.751
 2541TIP3   OH2 7586   2.961   2.352   3.336
 2541TIP3    H1 7587   2.916   2.376   3.254
 2541TIP3    H2 7588   2.918   2.405   3.403
 2542TIP3   OH2 7589   2.774   2.176   0.281
 2542TIP3    H1 7590   2.698   2.216   0.239
 2542TIP3    H2 7591   2.848   2.231   0.255
 2543TIP3   OH2 7592   2.514   4.082   1.489
 2543TIP3    H1 7593   2.467   4.046   1.414
 2543TIP3    H2 7594   2.517   4.176   1.473
 2544TIP3   OH2 7595   7.222   6.758   0.732
 2544TIP3    H1 7596   7.195   6.691   0.794
 2544TIP3    H2 7597   7.145   6.814   0.720
 2545TIP3   OH2 7598   1.116   4.652   2.011
 2545TIP3    H1 7599   1.164   4.580   1.970
 2545TIP3    H2 7600   1.149   4.730   1.967
 2546TIP3   OH2 7601   6.221   6.756   1.306
 2546TIP3    H1 7602   6.295   6.777   1.362
 2546TIP3    H2 7603   6.242   6.797   1.222
 2547TIP3   OH2 7604   4.436   4.736   2.063
 2547TIP3    H1 7605   4.346   4.769   2.072
 2547TIP3    H2 7606   4.439   4.659   2.119
 2548TIP3   OH2 7607   6.601   2.777   1.059
 2548TIP3    H1 7608   6.581   2.868   1.037
 2548TIP3    H2 7609   6.645   2.742   0.981
 2549TIP3   OH2 7610   5.101   2.520   5.814
 2549TIP3    H1 7611   5.018   2.532   5.768
 2549TIP3    H2 7612   5.166   2.512   5.745
 2550TIP3   OH2 7613   6.575   2.778   4.616
 2550TIP3    H1 7614   6.621   2.694   4.619
 2550TIP3    H2 7615   6.528   2.783   4.699
 2551TIP3   OH2 7616   4.074   2.751   5.715
 2551TIP3    H1 7617   4.043   2.661   5.714
 2551TIP3    H2 7618   4.109   2.764   5.803
 2552TIP3   OH2 7619   2.928   0.531   3.643
 2552TIP3    H1 7620   2.874   0.571   3.574
 2552TIP3    H2 7621   3.016   0.529   3.606
 2553TIP3   OH2 7622   2.969   3.281   0.958
 2553TIP3    H1 7623   3.032   3.338   1.002
 2553TIP3    H2 7624   3.017   3.246   0.883
 2554TIP3   OH2 7625   5.247   4.799   0.752
 2554TIP3    H1 7626   5.279   4.712   0.727
 2554TIP3    H2 7627   5.197   4.829   0.676
 2555TIP3   OH2 7628   4.777   0.881   4.053
 2555TIP3    H1 7629   4.872   0.872   4.058
 2555TIP3    H2 7630   4.760   0.909   3.963
 2556TIP3   OH2 7631   1.366   3.927   0.953
 2556TIP3    H1 7632   1.433   3.860   0.966
 2556TIP3    H2 7633   1.402   4.005   0.994
 2557TIP3   OH2 7634   4.120   5.347   4.959
 2557TIP3    H1 7635   4.025   5.332   4.960
 2557TIP3    H2 7636   4.152   5.296   4.884
 2558TIP3   OH2 7637   4.222   4.940   1.585
 2558TIP3    H1 7638   4.266   4.887   1.519
 2558TIP3    H2 7639   4.289   4.956   1.652
 2559TIP3   OH2 7640   0.060   6.021   3.536
 2559TIP3    H1 7641  -0.010   6.014   3.600
 2559TIP3    H2 7642   0.037   5.958   3.468
 2560TIP3   OH2 7643   4.284   0.818   5.197
 2560TIP3    H1 7644   4.360   0.850   5.246
 2560TIP3    H2 7645   4.321   0.769   5.124
 2561TIP3   OH2 7646   1.902   4.824   5.481
 2561TIP3    H1 7647   1.820   4.865   5.456
 2561TIP3    H2 7648   1.956   4.827   5.402
 2562TIP3   OH2 7649   1.230   2.758   4.884
 2562TIP3    H1 7650   1.179   2.838   4.893
 2562TIP3    H2 7651   1.278   2.751   4.967
 2563TIP3   OH2 7652   0.956   3.809   0.886
 2563TIP3    H1 7653   1.029   3.870   0.877
 2563TIP3    H2 7654   0.917   3.804   0.798
 2564TIP3   OH2 7655   4.551   0.421   0.082
 2564TIP3    H1 7656   4.614   0.452   0.017
 2564TIP3    H2 7657   4.498   0.357   0.034
 2565TIP3   OH2 7658   2.512   4.533   2.112
 2565TIP3    H1 7659   2.515   4.613   2.060
 2565TIP3    H2 7660   2.602   4.499   2.108
 2566TIP3   OH2 7661   6.881   3.258   2.351
 2566TIP3    H1 7662   6.967   3.284   2.384
 2566TIP3    H2 7663   6.823   3.331   2.375
 2567TIP3   OH2 7664   3.283   6.708   1.186
 2567TIP3    H1 7665   3.371   6.672   1.200
 2567TIP3    H2 7666   3.254   6.736   1.272
 2568TIP3   OH2 7667   4.320   5.152   0.331
 2568TIP3    H1 7668   4.407   5.173   0.296
 2568TIP3    H2 7669   4.297   5.228   0.385
 2569TIP3   OH2 7670   0.352   4.042   2.293
 2569TIP3    H1 7671   0.277   4.075   2.244
 2569TIP3    H2 7672   0.427   4.058   2.237
 2570TIP3   OH2 7673   5.731   4.076   0.838
 2570TIP3    H1 7674   5.742   4.169   0.821
 2570TIP3    H2 7675   5.657   4.050   0.783
 2571TIP3   OH2 7676   1.490   0.657   4.682
 2571TIP3    H1 7677   1.553   0.623   4.618
 2571TIP3    H2 7678   1.523   0.744   4.704
 2572TIP3   OH2 7679   5.823   4.250   3.619
 2572TIP3    H1 7680   5.729   4.257   3.601
 2572TIP3    H2 7681   5.829   4.193   3.696
 2573TIP3   OH2 7682   2.433   1.955   4.052
 2573TIP3    H1 7683   2.477   1.986   3.972
 2573TIP3    H2 7684   2.385   2.031   4.084
 2574TIP3   OH2 7685   4.446   6.039   0.413
 2574TIP3    H1 7686   4.377   5.983   0.446
 2574TIP3    H2 7687   4.428   6.046   0.319
 2575TIP3   OH2 7688   6.140   4.167   1.879
 2575TIP3    H1 7689   6.056   4.134   1.846
 2575TIP3    H2 7690   6.141   4.141   1.972
 2576TIP3   OH2 7691   2.077   3.085   0.572
 2576TIP3    H1 7692   1.987   3.116   0.579
 2576TIP3    H2 7693   2.090   3.070   0.478
 2577TIP3   OH2 7694   1.705   4.481   3.776
 2577TIP3    H1 7695   1.611   4.490   3.758
 2577TIP3    H2 7696   1.726   4.391   3.753
 2578TIP3   OH2 7697   1.522   5.937   4.604
 2578TIP3    H1 7698   1.459   6.008   4.614
 2578TIP3    H2 7699   1.586   5.971   4.541
 2579TIP3   OH2 7700   3.548   3.537   2.617
 2579TIP3    H1 7701   3.553   3.448   2.651
 2579TIP3    H2 7702   3.470   3.537   2.560
 2580TIP3   OH2 7703   0.181   3.922   0.861
 2580TIP3    H1 7704   0.097   3.927   0.906
 2580TIP3    H2 7705   0.215   3.835   0.880
 2581TIP3   OH2 7706   2.655   1.465   4.042
 2581TIP3    H1 7707   2.566   1.449   4.074
 2581TIP3    H2 7708   2.710   1.412   4.100
 2582TIP3   OH2 7709   3.902   3.404   5.147
 2582TIP3    H1 7710   3.844   3.363   5.212
 2582TIP3    H2 7711   3.845   3.421   5.072
 2583TIP3   OH2 7712   0.606   6.431   0.601
 2583TIP3    H1 7713   0.601   6.523   0.573
 2583TIP3    H2 7714   0.667   6.432   0.674
 2584TIP3   OH2 7715   2.726   6.670   2.380
 2584TIP3    H1 7716   2.709   6.737   2.447
 2584TIP3    H2 7717   2.757   6.718   2.304
 2585TIP3   OH2 7718   2.588   6.266   1.921
 2585TIP3    H1 7719   2.500   6.303   1.918
 2585TIP3    H2 7720   2.626   6.286   1.835
 2586TIP3   OH2 7721   3.212   1.914   5.438
 2586TIP3    H1 7722   3.245   1.970   5.509
 2586TIP3    H2 7723   3.128   1.954   5.414
 2587TIP3   OH2 7724   3.934   2.062   2.817
 2587TIP3    H1 7725   3.966   2.101   2.736
 2587TIP3    H2 7726   3.947   1.968   2.805
 2588TIP3   OH2 7727   0.810   1.889   4.541
 2588TIP3    H1 7728   0.890   1.837   4.534
 2588TIP3    H2 7729   0.794   1.897   4.635
 2589TIP3   OH2 7730   0.370   6.476   0.742
 2589TIP3    H1 7731   0.382   6.562   0.704
 2589TIP3    H2 7732   0.435   6.421   0.697
 2590TIP3   OH2 7733   4.406   5.418   5.324
 2590TIP3    H1 7734   4.353   5.442   5.248
 2590TIP3    H2 7735   4.430   5.502   5.364
 2591TIP3   OH2 7736   6.706   2.247   2.820
 2591TIP3    H1 7737   6.702   2.158   2.785
 2591TIP3    H2 7738   6.717   2.234   2.915
 2592TIP3   OH2 7739   6.498   4.341   4.667
 2592TIP3    H1 7740   6.468   4.290   4.592
 2592TIP3    H2 7741   6.572   4.392   4.634
 2593TIP3   OH2 7742   7.142   3.596   0.603
 2593TIP3    H1 7743   7.192   3.672   0.572
 2593TIP3    H2 7744   7.207   3.527   0.615
 2594TIP3   OH2 7745   1.989   4.305   0.122
 2594TIP3    H1 7746   2.011   4.367   0.053
 2594TIP3    H2 7747   1.903   4.272   0.097
 2595TIP3   OH2 7748   6.764   3.420   0.634
 2595TIP3    H1 7749   6.706   3.470   0.577
 2595TIP3    H2 7750   6.777   3.337   0.589
 2596TIP3   OH2 7751   3.759   1.485   3.571
 2596TIP3    H1 7752   3.806   1.475   3.655
 2596TIP3    H2 7753   3.824   1.463   3.505
 2597TIP3   OH2 7754   2.979   2.526   4.454
 2597TIP3    H1 7755   3.044   2.563   4.394
 2597TIP3    H2 7756   2.899   2.576   4.436
 2598TIP3   OH2 7757   5.501   5.529   1.578
 2598TIP3    H1 7758   5.409   5.522   1.602
 2598TIP3    H2 7759   5.548   5.494   1.654
 2599TIP3   OH2 7760   4.785   4.337   1.131
 2599TIP3    H1 7761   4.756   4.428   1.135
 2599TIP3    H2 7762   4.789   4.308   1.223
 2600TIP3   OH2 7763   3.783   3.389   2.749
 2600TIP3    H1 7764   3.736   3.306   2.736
 2600TIP3    H2 7765   3.837   3.399   2.671
 2601TIP3   OH2 7766   2.844   6.045   1.969
 2601TIP3    H1 7767   2.766   6.046   2.025
 2601TIP3    H2 7768   2.908   5.993   2.018
 2602TIP3   OH2 7769   2.609   0.691   3.202
 2602TIP3    H1 7770   2.606   0.735   3.287
 2602TIP3    H2 7771   2.517   0.683   3.175
 2603TIP3   OH2 7772   6.723   0.207   5.171
 2603TIP3    H1 7773   6.766   0.201   5.086
 2603TIP3    H2 7774   6.698   0.117   5.192
 2604TIP3   OH2 7775   0.789   1.094   2.935
 2604TIP3    H1 7776   0.791   1.184   2.902
 2604TIP3    H2 7777   0.858   1.091   3.001
 2605TIP3   OH2 7778   7.055   6.414   3.450
 2605TIP3    H1 7779   6.979   6.364   3.480
 2605TIP3    H2 7780   7.039   6.428   3.357
 2606TIP3   OH2 7781   5.935   5.443   1.627
 2606TIP3    H1 7782   6.027   5.438   1.602
 2606TIP3    H2 7783   5.927   5.528   1.671
 2607TIP3   OH2 7784   6.392   3.440   0.294
 2607TIP3    H1 7785   6.396   3.385   0.372
 2607TIP3    H2 7786   6.367   3.379   0.224
 2608TIP3   OH2 7787   6.859   4.483   2.203
 2608TIP3    H1 7788   6.856   4.555   2.266
 2608TIP3    H2 7789   6.873   4.526   2.118
 2609TIP3   OH2 7790   1.200   4.452   2.770
 2609TIP3    H1 7791   1.240   4.485   2.690
 2609TIP3    H2 7792   1.228   4.360   2.774
 2610TIP3   OH2 7793   4.445   1.059   4.089
 2610TIP3    H1 7794   4.353   1.073   4.065
 2610TIP3    H2 7795   4.494   1.111   4.026
 2611TIP3   OH2 7796   3.450   1.853   0.362
 2611TIP3    H1 7797   3.431   1.798   0.286
 2611TIP3    H2 7798   3.511   1.801   0.414
 2612TIP3   OH2 7799   7.032   2.536   2.392
 2612TIP3    H1 7800   6.996   2.584   2.467
 2612TIP3    H2 7801   7.120   2.509   2.420
 2613TIP3   OH2 7802   5.190   4.603   3.907
 2613TIP3    H1 7803   5.100   4.585   3.936
 2613TIP3    H2 7804   5.222   4.671   3.966
 2614TIP3   OH2 7805   2.252   0.116   5.186
 2614TIP3    H1 7806   2.297   0.133   5.269
 2614TIP3    H2 7807   2.321   0.112   5.121
 2615TIP3   OH2 7808   5.846   1.544   1.597
 2615TIP3    H1 7809   5.759   1.512   1.623
 2615TIP3    H2 7810   5.900   1.530   1.675
 2616TIP3   OH2 7811   4.391   4.456   0.527
 2616TIP3    H1 7812   4.468   4.510   0.510
 2616TIP3    H2 7813   4.405   4.422   0.616
 2617TIP3   OH2 7814   7.013   0.280   3.714
 2617TIP3    H1 7815   7.061   0.228   3.779
 2617TIP3    H2 7816   7.033   0.371   3.738
 2618TIP3   OH2 7817   3.574   2.150   0.058
 2618TIP3    H1 7818   3.503   2.213   0.069
 2618TIP3    H2 7819   3.603   2.131   0.147
 2619TIP3   OH2 7820   2.988   0.438   4.927
 2619TIP3    H1 7821   2.929   0.364   4.913
 2619TIP3    H2 7822   2.989   0.450   5.022
 2620TIP3   OH2 7823   6.185   1.691   1.329
 2620TIP3    H1 7824   6.215   1.693   1.238
 2620TIP3    H2 7825   6.102   1.644   1.325
 2621TIP3   OH2 7826   4.177   1.008   0.318
 2621TIP3    H1 7827   4.124   0.934   0.349
 2621TIP3    H2 7828   4.217   1.043   0.397
 2622TIP3   OH2 7829   0.272   3.362   2.882
 2622TIP3    H1 7830   0.258   3.455   2.865
 2622TIP3    H2 7831   0.210   3.341   2.952
 2623TIP3   OH2 7832   2.160   4.187   0.357
 2623TIP3    H1 7833   2.189   4.249   0.424
 2623TIP3    H2 7834   2.065   4.197   0.354
 2624TIP3   OH2 7835   4.356   5.866   2.268
 2624TIP3    H1 7836   4.347   5.789   2.323
 2624TIP3    H2 7837   4.384   5.833   2.183
 2625TIP3   OH2 7838   6.813   2.388   2.311
 2625TIP3    H1 7839   6.890   2.442   2.328
 2625TIP3    H2 7840   6.816   2.321   2.380
 2626TIP3   OH2 7841   1.200   2.494   2.569
 2626TIP3    H1 7842   1.177   2.402   2.581
 2626TIP3    H2 7843   1.151   2.540   2.637
 2627TIP3   OH2 7844   1.844   3.485   4.374
 2627TIP3    H1 7845   1.894   3.403   4.382
 2627TIP3    H2 7846   1.821   3.507   4.464
 2628TIP3   OH2 7847   0.878   6.433   0.392
 2628TIP3    H1 7848   0.946   6.414   0.328
 2628TIP3    H2 7849   0.798   6.440   0.340
 2629TIP3   OH2 7850   0.534   3.024   1.057
 2629TIP3    H1 7851   0.525   3.096   0.995
 2629TIP3    H2 7852   0.468   2.960   1.029
 2630TIP3   OH2 7853   5.395   2.896   5.320
 2630TIP3    H1 7854   5.423   2.954   5.390
 2630TIP3    H2 7855   5.393   2.951   5.242
 2631TIP3   OH2 7856   3.017   0.932   5.608
 2631TIP3    H1 7857   3.090   0.943   5.548
 2631TIP3    H2 7858   3.046   0.974   5.689
 2632TIP3   OH2 7859   4.863   1.137   3.310
 2632TIP3    H1 7860   4.796   1.191   3.268
 2632TIP3    H2 7861   4.827   1.114   3.395
 2633TIP3   OH2 7862   6.299   0.894   2.601
 2633TIP3    H1 7863   6.228   0.950   2.633
 2633TIP3    H2 7864   6.305   0.913   2.508
 2634TIP3   OH2 7865   3.236   3.315   5.537
 2634TIP3    H1 7866   3.241   3.347   5.447
 2634TIP3    H2 7867   3.146   3.332   5.564
 2635TIP3   OH2 7868   3.288   5.754   0.494
 2635TIP3    H1 7869   3.226   5.703   0.442
 2635TIP3    H2 7870   3.374   5.719   0.469
 2636TIP3   OH2 7871   0.380   2.872   3.001
 2636TIP3    H1 7872   0.377   2.832   2.914
 2636TIP3    H2 7873   0.305   2.931   3.003
 2637TIP3   OH2 7874   0.421   5.981   4.914
 2637TIP3    H1 7875   0.437   5.976   4.820
 2637TIP3    H2 7876   0.379   6.066   4.926
 2638TIP3   OH2 7877   5.017   4.465   0.889
 2638TIP3    H1 7878   4.954   4.408   0.846
 2638TIP3    H2 7879   4.967   4.509   0.958
 2639TIP3   OH2 7880   6.409   0.115   0.778
 2639TIP3    H1 7881   6.448   0.058   0.712
 2639TIP3    H2 7882   6.321   0.079   0.791
 2640TIP3   OH2 7883   6.067   1.720   5.341
 2640TIP3    H1 7884   6.001   1.752   5.403
 2640TIP3    H2 7885   6.042   1.759   5.257
 2641TIP3   OH2 7886   2.741   0.943   5.461
 2641TIP3    H1 7887   2.791   1.012   5.418
 2641TIP3    H2 7888   2.789   0.926   5.543
 2642TIP3   OH2 7889   2.880   5.672   4.805
 2642TIP3    H1 7890   2.836   5.749   4.768
 2642TIP3    H2 7891   2.953   5.656   4.746
 2643TIP3   OH2 7892   4.133   3.475   2.065
 2643TIP3    H1 7893   4.097   3.564   2.064
 2643TIP3    H2 7894   4.057   3.419   2.050
 2644TIP3   OH2 7895   5.965   1.321   5.508
 2644TIP3    H1 7896   5.946   1.286   5.595
 2644TIP3    H2 7897   6.046   1.277   5.481
 2645TIP3   OH2 7898   4.564   5.055   1.252
 2645TIP3    H1 7899   4.609   5.139   1.245
 2645TIP3    H2 7900   4.635   4.990   1.254
 2646TIP3   OH2 7901   4.533   1.450   3.018
 2646TIP3    H1 7902   4.440   1.473   3.020
 2646TIP3    H2 7903   4.575   1.525   2.976
 2647TIP3   OH2 7904   2.200   5.890   2.025
 2647TIP3    H1 7905   2.123   5.920   2.074
 2647TIP3    H2 7906   2.274   5.936   2.065
 2648TIP3   OH2 7907   2.611   1.792   5.300
 2648TIP3    H1 7908   2.645   1.714   5.343
 2648TIP3    H2 7909   2.569   1.759   5.221
 2649TIP3   OH2 7910   4.609   5.883   2.764
 2649TIP3    H1 7911   4.517   5.895   2.739
 2649TIP3    H2 7912   4.655   5.874   2.681
 2650TIP3   OH2 7913   1.147   2.524   5.571
 2650TIP3    H1 7914   1.163   2.540   5.665
 2650TIP3    H2 7915   1.217   2.573   5.527
 2651TIP3   OH2 7916   5.884   1.229   2.250
 2651TIP3    H1 7917   5.970   1.268   2.243
 2651TIP3    H2 7918   5.885   1.180   2.333
 2652TIP3   OH2 7919   5.973   4.449   0.572
 2652TIP3    H1 7920   6.032   4.503   0.625
 2652TIP3    H2 7921   6.009   4.453   0.484
 2653TIP3   OH2 7922   3.599   2.518   1.781
 2653TIP3    H1 7923   3.608   2.608   1.813
 2653TIP3    H2 7924   3.540   2.476   1.843
 2654TIP3   OH2 7925   4.079   2.342   4.912
 2654TIP3    H1 7926   4.001   2.354   4.966
 2654TIP3    H2 7927   4.050   2.290   4.837
 2655TIP3   OH2 7928   4.922   0.777   0.212
 2655TIP3    H1 7929   4.930   0.698   0.264
 2655TIP3    H2 7930   4.838   0.767   0.167
 2656TIP3   OH2 7931   0.446   1.780   2.104
 2656TIP3    H1 7932   0.402   1.829   2.173
 2656TIP3    H2 7933   0.378   1.728   2.063
 2657TIP3   OH2 7934   2.515   6.475   4.275
 2657TIP3    H1 7935   2.490   6.464   4.183
 2657TIP3    H2 7936   2.502   6.388   4.314
 2658TIP3   OH2 7937   5.936   6.321   3.467
 2658TIP3    H1 7938   5.992   6.346   3.540
 2658TIP3    H2 7939   5.918   6.403   3.421
 2659TIP3   OH2 7940   6.404   3.501   1.327
 2659TIP3    H1 7941   6.432   3.440   1.395
 2659TIP3    H2 7942   6.320   3.466   1.296
 2660TIP3   OH2 7943   4.474   2.217   2.501
 2660TIP3    H1 7944   4.413   2.158   2.457
 2660TIP3    H2 7945   4.540   2.159   2.540
 2661TIP3   OH2 7946   0.577   5.540   5.566
 2661TIP3    H1 7947   0.668   5.540   5.536
 2661TIP3    H2 7948   0.576   5.599   5.641
 2662TIP3   OH2 7949   5.799   1.917   1.985
 2662TIP3    H1 7950   5.867   1.983   1.990
 2662TIP3    H2 7951   5.845   1.837   1.956
 2663TIP3   OH2 7952   3.286   6.426   3.570
 2663TIP3    H1 7953   3.268   6.501   3.625
 2663TIP3    H2 7954   3.374   6.441   3.534
 2664TIP3   OH2 7955   4.670   2.548   0.116
 2664TIP3    H1 7956   4.649   2.613   0.049
 2664TIP3    H2 7957   4.699   2.600   0.191
 2665TIP3   OH2 7958   0.971   6.038   4.219
 2665TIP3    H1 7959   1.058   6.016   4.186
 2665TIP3    H2 7960   0.915   6.038   4.141
 2666TIP3   OH2 7961   6.277   0.878   4.591
 2666TIP3    H1 7962   6.244   0.864   4.680
 2666TIP3    H2 7963   6.210   0.841   4.534
 2667TIP3   OH2 7964   5.333   0.581   4.627
 2667TIP3    H1 7965   5.287   0.628   4.697
 2667TIP3    H2 7966   5.330   0.489   4.655
 2668TIP3   OH2 7967   5.162   2.993   4.494
 2668TIP3    H1 7968   5.202   2.908   4.476
 2668TIP3    H2 7969   5.160   3.038   4.410
 2669TIP3   OH2 7970   1.856   0.964   0.537
 2669TIP3    H1 7971   1.780   1.007   0.576
 2669TIP3    H2 7972   1.931   1.017   0.565
 2670TIP3   OH2 7973   1.316   6.497   1.102
 2670TIP3    H1 7974   1.318   6.405   1.129
 2670TIP3    H2 7975   1.401   6.532   1.130
 2671TIP3   OH2 7976   2.488   4.360   1.530
 2671TIP3    H1 7977   2.519   4.407   1.607
 2671TIP3    H2 7978   2.393   4.369   1.533
 2672TIP3   OH2 7979   3.414   0.370   4.892
 2672TIP3    H1 7980   3.375   0.405   4.811
 2672TIP3    H2 7981   3.399   0.438   4.957
 2673TIP3   OH2 7982   4.989   3.473   2.627
 2673TIP3    H1 7983   4.910   3.420   2.617
 2673TIP3    H2 7984   5.043   3.424   2.689
 2674TIP3   OH2 7985   5.363   1.131   4.477
 2674TIP3    H1 7986   5.272   1.125   4.506
 2674TIP3    H2 7987   5.359   1.124   4.381
 2675TIP3   OH2 7988   4.913   1.127   5.683
 2675TIP3    H1 7989   4.899   1.221   5.691
 2675TIP3    H2 7990   4.829   1.093   5.652
 2676TIP3   OH2 7991   2.810   0.866   5.831
 2676TIP3    H1 7992   2.806   0.937   5.895
 2676TIP3    H2 7993   2.892   0.881   5.784
 2677TIP3   OH2 7994   1.591   2.524   4.390
 2677TIP3    H1 7995   1.593   2.575   4.472
 2677TIP3    H2 7996   1.504   2.485   4.389
 2678TIP3   OH2 7997   6.086   2.468   1.328
 2678TIP3    H1 7998   6.065   2.470   1.234
 2678TIP3    H2 7999   6.032   2.537   1.366
 2679TIP3   OH2 8000   2.287   3.179   0.991
 2679TIP3    H1 8001   2.377   3.206   1.013
 2679TIP3    H2 8002   2.293   3.084   0.985
 2680TIP3   OH2 8003   5.812   5.286   1.435
 2680TIP3    H1 8004   5.824   5.201   1.477
 2680TIP3    H2 8005   5.845   5.349   1.499
 2681TIP3   OH2 8006   6.027   1.120   0.549
 2681TIP3    H1 8007   5.941   1.146   0.515
 2681TIP3    H2 8008   6.019   1.025   0.563
 2682TIP3   OH2 8009   0.475   4.484   1.688
 2682TIP3    H1 8010   0.566   4.455   1.681
 2682TIP3    H2 8011   0.424   4.403   1.695
 2683TIP3   OH2 8012   1.512   0.362   4.553
 2683TIP3    H1 8013   1.572   0.435   4.540
 2683TIP3    H2 8014   1.563   0.285   4.530
 2684TIP3   OH2 8015   0.712   1.449   4.487
 2684TIP3    H1 8016   0.755   1.449   4.572
 2684TIP3    H2 8017   0.778   1.415   4.427
 2685TIP3   OH2 8018   6.355   1.086   1.767
 2685TIP3    H1 8019   6.385   1.018   1.706
 2685TIP3    H2 8020   6.387   1.058   1.853
 2686TIP3   OH2 8021   4.450   0.575   4.520
 2686TIP3    H1 8022   4.358   0.593   4.499
 2686TIP3    H2 8023   4.478   0.651   4.570
 2687TIP3   OH2 8024   3.387   0.292   2.835
 2687TIP3    H1 8025   3.410   0.321   2.923
 2687TIP3    H2 8026   3.380   0.197   2.842
 2688TIP3   OH2 8027   6.106   0.582   2.362
 2688TIP3    H1 8028   6.195   0.556   2.341
 2688TIP3    H2 8029   6.105   0.591   2.457
 2689TIP3   OH2 8030   4.710   0.021   1.657
 2689TIP3    H1 8031   4.626   0.063   1.674
 2689TIP3    H2 8032   4.742   0.063   1.577
 2690TIP3   OH2 8033   4.107   4.476   5.307
 2690TIP3    H1 8034   4.026   4.525   5.319
 2690TIP3    H2 8035   4.093   4.394   5.354
 2691TIP3   OH2 8036   0.268   1.135   4.954
 2691TIP3    H1 8037   0.187   1.106   4.996
 2691TIP3    H2 8038   0.322   1.056   4.948
 2692TIP3   OH2 8039   5.371   1.546   1.435
 2692TIP3    H1 8040   5.301   1.593   1.482
 2692TIP3    H2 8041   5.328   1.467   1.402
 2693TIP3   OH2 8042   2.951   0.384   1.801
 2693TIP3    H1 8043   3.003   0.307   1.779
 2693TIP3    H2 8044   2.861   0.358   1.785
 2694TIP3   OH2 8045   4.213   5.750   5.095
 2694TIP3    H1 8046   4.302   5.782   5.082
 2694TIP3    H2 8047   4.223   5.656   5.107
 2695TIP3   OH2 8048   1.975   1.204   4.543
 2695TIP3    H1 8049   1.949   1.254   4.621
 2695TIP3    H2 8050   2.055   1.247   4.513
 2696TIP3   OH2 8051   4.900   5.732   4.501
 2696TIP3    H1 8052   4.809   5.754   4.481
 2696TIP3    H2 8053   4.894   5.646   4.543
 2697TIP3   OH2 8054   4.260   5.321   2.018
 2697TIP3    H1 8055   4.319   5.379   1.970
 2697TIP3    H2 8056   4.303   5.308   2.103
 2698TIP3   OH2 8057   2.302   0.996   2.432
 2698TIP3    H1 8058   2.294   0.912   2.387
 2698TIP3    H2 8059   2.216   1.037   2.421
 2699TIP3   OH2 8060   3.713   6.339   1.731
 2699TIP3    H1 8061   3.696   6.256   1.774
 2699TIP3    H2 8062   3.689   6.405   1.795
 2700TIP3   OH2 8063   2.133   4.632   1.064
 2700TIP3    H1 8064   2.116   4.723   1.089
 2700TIP3    H2 8065   2.163   4.590   1.145
 2701TIP3   OH2 8066   0.704   4.232   3.587
 2701TIP3    H1 8067   0.636   4.295   3.565
 2701TIP3    H2 8068   0.683   4.154   3.535
 2702TIP3   OH2 8069   3.719   0.766   0.365
 2702TIP3    H1 8070   3.750   0.816   0.440
 2702TIP3    H2 8071   3.626   0.751   0.383
 2703TIP3   OH2 8072   3.207   1.083   1.405
 2703TIP3    H1 8073   3.248   1.123   1.482
 2703TIP3    H2 8074   3.274   1.087   1.337
 2704TIP3   OH2 8075   4.823   4.611   5.358
 2704TIP3    H1 8076   4.897   4.631   5.301
 2704TIP3    H2 8077   4.857   4.548   5.420
 2705TIP3   OH2 8078   6.172   2.653   4.747
 2705TIP3    H1 8079   6.092   2.662   4.798
 2705TIP3    H2 8080   6.143   2.664   4.656
 2706TIP3   OH2 8081   1.684   0.925   5.694
 2706TIP3    H1 8082   1.664   0.896   5.783
 2706TIP3    H2 8083   1.748   0.995   5.705
 2707TIP3   OH2 8084   3.337   6.066   4.772
 2707TIP3    H1 8085   3.380   6.084   4.688
 2707TIP3    H2 8086   3.244   6.057   4.750
 2708TIP3   OH2 8087   4.488   0.407   1.462
 2708TIP3    H1 8088   4.520   0.437   1.376
 2708TIP3    H2 8089   4.397   0.437   1.465
 2709TIP3   OH2 8090   6.925   0.324   2.463
 2709TIP3    H1 8091   6.995   0.264   2.436
 2709TIP3    H2 8092   6.886   0.282   2.540
 2710TIP3   OH2 8093   5.090   0.187   5.144
 2710TIP3    H1 8094   5.046   0.193   5.229
 2710TIP3    H2 8095   5.085   0.094   5.121
 2711TIP3   OH2 8096   4.108   0.593   5.152
 2711TIP3    H1 8097   4.201   0.604   5.173
 2711TIP3    H2 8098   4.100   0.501   5.127
 2712TIP3   OH2 8099   4.101   1.983   3.657
 2712TIP3    H1 8100   4.058   1.934   3.728
 2712TIP3    H2 8101   4.058   1.952   3.578
 2713TIP3   OH2 8102   0.956   6.693   1.452
 2713TIP3    H1 8103   1.035   6.724   1.408
 2713TIP3    H2 8104   0.939   6.758   1.520
 2714TIP3   OH2 8105   6.165   0.249   1.889
 2714TIP3    H1 8106   6.240   0.308   1.894
 2714TIP3    H2 8107   6.100   0.296   1.838
 2715TIP3   OH2 8108   5.191   2.783   3.570
 2715TIP3    H1 8109   5.159   2.750   3.486
 2715TIP3    H2 8110   5.184   2.878   3.562
 2716TIP3   OH2 8111   6.959   1.482   5.239
 2716TIP3    H1 8112   6.878   1.465   5.286
 2716TIP3    H2 8113   6.939   1.555   5.181
 2717TIP3   OH2 8114   5.648   5.352   1.781
 2717TIP3    H1 8115   5.740   5.341   1.756
 2717TIP3    H2 8116   5.652   5.379   1.873
 2718TIP3   OH2 8117   2.429   5.811   3.087
 2718TIP3    H1 8118   2.377   5.877   3.041
 2718TIP3    H2 8119   2.519   5.833   3.066
 2719TIP3   OH2 8120   6.416   5.919   4.724
 2719TIP3    H1 8121   6.445   5.925   4.633
 2719TIP3    H2 8122   6.433   6.006   4.761
 2720TIP3   OH2 8123   0.246   2.755   5.451
 2720TIP3    H1 8124   0.270   2.695   5.381
 2720TIP3    H2 8125   0.176   2.710   5.499
 2721TIP3   OH2 8126   1.464   6.494   4.202
 2721TIP3    H1 8127   1.457   6.464   4.111
 2721TIP3    H2 8128   1.381   6.539   4.219
 2722TIP3   OH2 8129   1.887   3.064   3.012
 2722TIP3    H1 8130   1.963   3.106   2.972
 2722TIP3    H2 8131   1.812   3.106   2.971
 2723TIP3   OH2 8132   2.998   3.071   3.998
 2723TIP3    H1 8133   3.005   3.123   4.078
 2723TIP3    H2 8134   3.070   3.008   4.004
 2724TIP3   OH2 8135   0.639   1.065   4.356
 2724TIP3    H1 8136   0.624   1.153   4.320
 2724TIP3    H2 8137   0.726   1.041   4.324
 2725TIP3   OH2 8138   0.832   3.517   2.089
 2725TIP3    H1 8139   0.825   3.609   2.065
 2725TIP3    H2 8140   0.880   3.477   2.016
 2726TIP3   OH2 8141   4.197   2.980   3.980
 2726TIP3    H1 8142   4.212   2.890   4.007
 2726TIP3    H2 8143   4.116   2.977   3.929
 2727TIP3   OH2 8144   1.828   3.581   4.703
 2727TIP3    H1 8145   1.883   3.572   4.781
 2727TIP3    H2 8146   1.751   3.527   4.721
 2728TIP3   OH2 8147   6.103   2.462   4.345
 2728TIP3    H1 8148   6.085   2.369   4.362
 2728TIP3    H2 8149   6.186   2.462   4.299
 2729TIP3   OH2 8150   6.218   3.751   0.135
 2729TIP3    H1 8151   6.144   3.696   0.110
 2729TIP3    H2 8152   6.194   3.785   0.221
 2730TIP3   OH2 8153   5.843   4.758   2.181
 2730TIP3    H1 8154   5.859   4.773   2.088
 2730TIP3    H2 8155   5.925   4.781   2.224
 2731TIP3   OH2 8156   5.915   2.330   5.807
 2731TIP3    H1 8157   5.916   2.368   5.895
 2731TIP3    H2 8158   5.944   2.401   5.750
 2732TIP3   OH2 8159   7.176   1.938   2.484
 2732TIP3    H1 8160   7.092   1.900   2.511
 2732TIP3    H2 8161   7.157   1.979   2.400
 2733TIP3   OH2 8162   1.402   6.029   2.080
 2733TIP3    H1 8163   1.330   6.068   2.032
 2733TIP3    H2 8164   1.403   5.937   2.053
 2734TIP3   OH2 8165   0.980   5.352   5.321
 2734TIP3    H1 8166   0.904   5.380   5.372
 2734TIP3    H2 8167   0.945   5.332   5.234
 2735TIP3   OH2 8168   3.407   1.524   1.460
 2735TIP3    H1 8169   3.470   1.582   1.503
 2735TIP3    H2 8170   3.390   1.564   1.375
 2736TIP3   OH2 8171   3.446   4.082   3.119
 2736TIP3    H1 8172   3.504   4.007   3.129
 2736TIP3    H2 8173   3.362   4.043   3.092
 2737TIP3   OH2 8174   3.437   2.428   5.489
 2737TIP3    H1 8175   3.471   2.469   5.409
 2737TIP3    H2 8176   3.346   2.410   5.469
 2738TIP3   OH2 8177   3.703   6.774   2.749
 2738TIP3    H1 8178   3.667   6.693   2.783
 2738TIP3    H2 8179   3.781   6.791   2.802
 2739TIP3   OH2 8180   0.124   0.895   3.457
 2739TIP3    H1 8181   0.109   0.843   3.537
 2739TIP3    H2 8182   0.036   0.920   3.429
 2740TIP3   OH2 8183   1.509   4.055   2.839
 2740TIP3    H1 8184   1.584   4.001   2.863
 2740TIP3    H2 8185   1.542   4.145   2.841
 2741TIP3   OH2 8186   4.203   3.214   2.783
 2741TIP3    H1 8187   4.229   3.212   2.691
 2741TIP3    H2 8188   4.274   3.167   2.828
 2742TIP3   OH2 8189   1.224   5.833   1.477
 2742TIP3    H1 8190   1.270   5.783   1.409
 2742TIP3    H2 8191   1.147   5.780   1.497
 2743TIP3   OH2 8192   2.459   4.069   0.088
 2743TIP3    H1 8193   2.437   4.097  -0.001
 2743TIP3    H2 8194   2.555   4.070   0.090
 2744TIP3   OH2 8195   2.576   1.166   2.391
 2744TIP3    H1 8196   2.498   1.117   2.418
 2744TIP3    H2 8197   2.636   1.159   2.465
 2745TIP3   OH2 8198   0.566   4.577   4.092
 2745TIP3    H1 8199   0.615   4.569   4.174
 2745TIP3    H2 8200   0.631   4.606   4.028
 2746TIP3   OH2 8201   6.011   1.315   4.920
 2746TIP3    H1 8202   5.963   1.280   4.995
 2746TIP3    H2 8203   6.102   1.288   4.935
 2747TIP3   OH2 8204   3.773   0.325   4.439
 2747TIP3    H1 8205   3.739   0.413   4.456
 2747TIP3    H2 8206   3.696   0.276   4.409
 2748TIP3   OH2 8207   7.234   5.037   2.015
 2748TIP3    H1 8208   7.165   5.067   2.074
 2748TIP3    H2 8209   7.190   4.976   1.956
 2749TIP3   OH2 8210   7.108   0.630   0.002
 2749TIP3    H1 8211   7.123   0.608   0.094
 2749TIP3    H2 8212   7.165   0.571  -0.046
 2750TIP3   OH2 8213   4.403   0.997   1.046
 2750TIP3    H1 8214   4.388   1.050   0.968
 2750TIP3    H2 8215   4.438   1.059   1.111
 2751TIP3   OH2 8216   0.299   0.505   3.414
 2751TIP3    H1 8217   0.288   0.451   3.336
 2751TIP3    H2 8218   0.222   0.562   3.414
 2752TIP3   OH2 8219   5.635   1.276   4.730
 2752TIP3    H1 8220   5.585   1.223   4.791
 2752TIP3    H2 8221   5.620   1.366   4.758
 2753TIP3   OH2 8222   1.344   0.949   1.849
 2753TIP3    H1 8223   1.270   0.979   1.795
 2753TIP3    H2 8224   1.410   1.017   1.839
 2754TIP3   OH2 8225   4.876   5.553   5.633
 2754TIP3    H1 8226   4.845   5.633   5.676
 2754TIP3    H2 8227   4.889   5.578   5.541
 2755TIP3   OH2 8228   5.550   4.861   2.424
 2755TIP3    H1 8229   5.541   4.816   2.340
 2755TIP3    H2 8230   5.481   4.927   2.424
 2756TIP3   OH2 8231   4.271   4.765   3.990
 2756TIP3    H1 8232   4.215   4.699   3.949
 2756TIP3    H2 8233   4.225   4.788   4.071
 2757TIP3   OH2 8234   2.899   4.072   3.927
 2757TIP3    H1 8235   2.874   4.138   3.863
 2757TIP3    H2 8236   2.828   4.008   3.925
 2758TIP3   OH2 8237   0.964   2.774   4.473
 2758TIP3    H1 8238   1.032   2.711   4.495
 2758TIP3    H2 8239   0.882   2.731   4.497
 2759TIP3   OH2 8240   1.952   6.736   2.438
 2759TIP3    H1 8241   1.932   6.727   2.532
 2759TIP3    H2 8242   1.897   6.670   2.396
 2760TIP3   OH2 8243   7.174   2.506   1.826
 2760TIP3    H1 8244   7.267   2.526   1.812
 2760TIP3    H2 8245   7.155   2.537   1.914
 2761TIP3   OH2 8246   0.711   2.472   2.339
 2761TIP3    H1 8247   0.732   2.442   2.251
 2761TIP3    H2 8248   0.620   2.500   2.334
 2762TIP3   OH2 8249   1.477   6.498   5.258
 2762TIP3    H1 8250   1.422   6.530   5.186
 2762TIP3    H2 8251   1.556   6.465   5.216
 2763TIP3   OH2 8252   2.034   3.769   0.778
 2763TIP3    H1 8253   2.105   3.708   0.758
 2763TIP3    H2 8254   2.077   3.846   0.813
 2764TIP3   OH2 8255   6.200   4.183   3.052
 2764TIP3    H1 8256   6.173   4.267   3.015
 2764TIP3    H2 8257   6.207   4.200   3.146
 2765TIP3   OH2 8258   3.204   1.987   2.309
 2765TIP3    H1 8259   3.241   1.950   2.389
 2765TIP3    H2 8260   3.174   2.074   2.334
 2766TIP3   OH2 8261   1.594   1.727   3.214
 2766TIP3    H1 8262   1.560   1.804   3.168
 2766TIP3    H2 8263   1.686   1.747   3.231
 2767TIP3   OH2 8264   1.630   5.264   2.744
 2767TIP3    H1 8265   1.710   5.211   2.747
 2767TIP3    H2 8266   1.644   5.333   2.809
 2768TIP3   OH2 8267   1.866   2.592   4.355
 2768TIP3    H1 8268   1.865   2.640   4.272
 2768TIP3    H2 8269   1.773   2.575   4.374
 2769TIP3   OH2 8270   2.812   3.614   4.713
 2769TIP3    H1 8271   2.838   3.522   4.721
 2769TIP3    H2 8272   2.787   3.623   4.620
 2770TIP3   OH2 8273   5.385   5.853   3.325
 2770TIP3    H1 8274   5.377   5.917   3.255
 2770TIP3    H2 8275   5.444   5.786   3.291
 2771TIP3   OH2 8276   0.118   5.437   1.915
 2771TIP3    H1 8277   0.180   5.483   1.859
 2771TIP3    H2 8278   0.040   5.493   1.916
 2772TIP3   OH2 8279   5.788   3.780   3.915
 2772TIP3    H1 8280   5.736   3.700   3.909
 2772TIP3    H2 8281   5.877   3.754   3.895
 2773TIP3   OH2 8282   6.291   4.633   1.288
 2773TIP3    H1 8283   6.360   4.591   1.238
 2773TIP3    H2 8284   6.289   4.723   1.255
 2774TIP3   OH2 8285   4.731   4.981   2.982
 2774TIP3    H1 8286   4.795   4.912   3.003
 2774TIP3    H2 8287   4.676   4.943   2.914
 2775TIP3   OH2 8288   6.424   5.087   0.399
 2775TIP3    H1 8289   6.398   5.144   0.327
 2775TIP3    H2 8290   6.497   5.132   0.440
 2776TIP3   OH2 8291   4.863   0.332   2.530
 2776TIP3    H1 8292   4.799   0.281   2.481
 2776TIP3    H2 8293   4.944   0.282   2.523
 2777TIP3   OH2 8294   5.971   3.051   2.718
 2777TIP3    H1 8295   6.053   3.083   2.757
 2777TIP3    H2 8296   5.988   2.958   2.701
 2778TIP3   OH2 8297   6.586   0.577   3.928
 2778TIP3    H1 8298   6.557   0.665   3.950
 2778TIP3    H2 8299   6.506   0.530   3.907
 2779TIP3   OH2 8300   4.604   5.828   3.470
 2779TIP3    H1 8301   4.622   5.762   3.537
 2779TIP3    H2 8302   4.669   5.811   3.401
 2780TIP3   OH2 8303   2.108   1.106   1.930
 2780TIP3    H1 8304   2.104   1.035   1.866
 2780TIP3    H2 8305   2.121   1.185   1.878
 2781TIP3   OH2 8306   6.725   5.818   4.687
 2781TIP3    H1 8307   6.735   5.755   4.617
 2781TIP3    H2 8308   6.723   5.765   4.767
 2782TIP3   OH2 8309   0.650   2.032   4.034
 2782TIP3    H1 8310   0.639   2.100   4.101
 2782TIP3    H2 8311   0.663   1.951   4.084
 2783TIP3   OH2 8312   5.446   6.621   2.968
 2783TIP3    H1 8313   5.454   6.560   3.041
 2783TIP3    H2 8314   5.390   6.691   3.002
 2784TIP3   OH2 8315   1.914   2.652   2.297
 2784TIP3    H1 8316   1.850   2.664   2.366
 2784TIP3    H2 8317   1.981   2.596   2.335
 2785TIP3   OH2 8318   1.691   2.906   1.436
 2785TIP3    H1 8319   1.706   2.987   1.386
 2785TIP3    H2 8320   1.689   2.934   1.527
 2786TIP3   OH2 8321   1.172   2.855   0.161
 2786TIP3    H1 8322   1.139   2.765   0.158
 2786TIP3    H2 8323   1.233   2.861   0.088
 2787TIP3   OH2 8324   6.499   3.806   1.803
 2787TIP3    H1 8325   6.463   3.862   1.871
 2787TIP3    H2 8326   6.559   3.747   1.849
 2788TIP3   OH2 8327   6.587   3.581   0.473
 2788TIP3    H1 8328   6.547   3.555   0.391
 2788TIP3    H2 8329   6.533   3.653   0.505
 2789TIP3   OH2 8330   0.640   4.999   4.375
 2789TIP3    H1 8331   0.550   5.026   4.360
 2789TIP3    H2 8332   0.647   4.912   4.335
 2790TIP3   OH2 8333   1.934   5.931   3.788
 2790TIP3    H1 8334   1.961   5.869   3.720
 2790TIP3    H2 8335   2.013   5.943   3.842
 2791TIP3   OH2 8336   0.773   3.551   3.134
 2791TIP3    H1 8337   0.813   3.554   3.221
 2791TIP3    H2 8338   0.705   3.619   3.136
 2792TIP3   OH2 8339   5.094   0.987   3.332
 2792TIP3    H1 8340   5.065   0.909   3.284
 2792TIP3    H2 8341   5.014   1.037   3.347
 2793TIP3   OH2 8342   5.958   2.597   4.006
 2793TIP3    H1 8343   6.005   2.664   4.057
 2793TIP3    H2 8344   5.953   2.522   4.065
 2794TIP3   OH2 8345  -0.016   5.846   3.822
 2794TIP3    H1 8346   0.043   5.792   3.768
 2794TIP3    H2 8347  -0.020   5.800   3.906
 2795TIP3   OH2 8348   6.243   4.315   5.904
 2795TIP3    H1 8349   6.185   4.311   5.828
 2795TIP3    H2 8350   6.301   4.240   5.893
 2796TIP3   OH2 8351   6.858   1.831   0.347
 2796TIP3    H1 8352   6.827   1.820   0.437
 2796TIP3    H2 8353   6.935   1.886   0.356
 2797TIP3   OH2 8354   2.217   6.473   3.914
 2797TIP3    H1 8355   2.207   6.500   3.823
 2797TIP3    H2 8356   2.134   6.430   3.936
 2798TIP3   OH2 8357   2.565   5.124   2.779
 2798TIP3    H1 8358   2.492   5.099   2.722
 2798TIP3    H2 8359   2.594   5.041   2.818
 2799TIP3   OH2 8360   5.759   3.460   0.431
 2799TIP3    H1 8361   5.774   3.515   0.508
 2799TIP3    H2 8362   5.676   3.415   0.449
 2800TIP3   OH2 8363   0.519   0.247   0.757
 2800TIP3    H1 8364   0.586   0.315   0.747
 2800TIP3    H2 8365   0.512   0.233   0.851
 2801TIP3   OH2 8366   0.472   2.898   4.786
 2801TIP3    H1 8367   0.473   2.805   4.809
 2801TIP3    H2 8368   0.379   2.921   4.782
 2802TIP3   OH2 8369   4.198   2.347   2.621
 2802TIP3    H1 8370   4.276   2.359   2.568
 2802TIP3    H2 8371   4.143   2.423   2.601
 2803TIP3   OH2 8372   5.564   4.308   3.513
 2803TIP3    H1 8373   5.582   4.261   3.431
 2803TIP3    H2 8374   5.472   4.290   3.532
 2804TIP3   OH2 8375   4.394   2.124   2.998
 2804TIP3    H1 8376   4.323   2.166   2.950
 2804TIP3    H2 8377   4.430   2.193   3.053
 2805TIP3   OH2 8378   6.827   5.134   2.487
 2805TIP3    H1 8379   6.746   5.169   2.525
 2805TIP3    H2 8380   6.897   5.176   2.537
 2806TIP3   OH2 8381   2.797   3.581   5.525
 2806TIP3    H1 8382   2.845   3.647   5.474
 2806TIP3    H2 8383   2.854   3.504   5.522
 2807TIP3   OH2 8384   4.438   4.950   1.750
 2807TIP3    H1 8385   4.507   5.007   1.715
 2807TIP3    H2 8386   4.485   4.877   1.791
 2808TIP3   OH2 8387   3.837   1.122   2.199
 2808TIP3    H1 8388   3.830   1.189   2.267
 2808TIP3    H2 8389   3.796   1.045   2.237
 2809TIP3   OH2 8390   1.695   1.961   4.565
 2809TIP3    H1 8391   1.789   1.957   4.544
 2809TIP3    H2 8392   1.673   1.871   4.588
 2810TIP3   OH2 8393   1.376   4.751   5.709
 2810TIP3    H1 8394   1.455   4.697   5.706
 2810TIP3    H2 8395   1.359   4.773   5.618
 2811TIP3   OH2 8396   1.084   3.757   2.474
 2811TIP3    H1 8397   1.039   3.841   2.471
 2811TIP3    H2 8398   1.076   3.729   2.566
 2812TIP3   OH2 8399   0.564   3.587   1.321
 2812TIP3    H1 8400   0.594   3.524   1.387
 2812TIP3    H2 8401   0.589   3.548   1.237
 2813TIP3   OH2 8402   2.995   4.294   5.479
 2813TIP3    H1 8403   2.919   4.315   5.426
 2813TIP3    H2 8404   3.055   4.368   5.466
 2814TIP3   OH2 8405   3.535   1.982   4.387
 2814TIP3    H1 8406   3.587   1.970   4.307
 2814TIP3    H2 8407   3.493   1.897   4.401
 2815TIP3   OH2 8408   3.164   1.542   4.539
 2815TIP3    H1 8409   3.076   1.533   4.503
 2815TIP3    H2 8410   3.162   1.490   4.620
 2816TIP3   OH2 8411   6.889   1.978   3.243
 2816TIP3    H1 8412   6.896   2.042   3.172
 2816TIP3    H2 8413   6.858   1.898   3.201
 2817TIP3   OH2 8414   0.183   1.530   1.360
 2817TIP3    H1 8415   0.254   1.488   1.409
 2817TIP3    H2 8416   0.113   1.464   1.358
 2818TIP3   OH2 8417   6.200   5.438   3.065
 2818TIP3    H1 8418   6.105   5.448   3.072
 2818TIP3    H2 8419   6.213   5.349   3.032
 2819TIP3   OH2 8420   4.419   4.242   2.467
 2819TIP3    H1 8421   4.413   4.317   2.527
 2819TIP3    H2 8422   4.466   4.176   2.518
 2820TIP3   OH2 8423   6.782   6.166   0.464
 2820TIP3    H1 8424   6.695   6.191   0.494
 2820TIP3    H2 8425   6.786   6.195   0.373
 2821TIP3   OH2 8426   4.292   2.357   5.299
 2821TIP3    H1 8427   4.268   2.292   5.365
 2821TIP3    H2 8428   4.371   2.322   5.258
 2822TIP3   OH2 8429   2.536   6.303   3.120
 2822TIP3    H1 8430   2.558   6.285   3.029
 2822TIP3    H2 8431   2.569   6.392   3.136
 2823TIP3   OH2 8432   3.091   5.419   0.469
 2823TIP3    H1 8433   3.044   5.500   0.486
 2823TIP3    H2 8434   3.027   5.350   0.485
 2824TIP3   OH2 8435   0.633   3.428   0.196
 2824TIP3    H1 8436   0.594   3.444   0.282
 2824TIP3    H2 8437   0.712   3.482   0.195
 2825TIP3   OH2 8438   6.257   4.678   0.539
 2825TIP3    H1 8439   6.195   4.704   0.607
 2825TIP3    H2 8440   6.320   4.750   0.535
 2826TIP3   OH2 8441   1.940   0.633   2.731
 2826TIP3    H1 8442   1.985   0.636   2.646
 2826TIP3    H2 8443   1.918   0.724   2.750
 2827TIP3   OH2 8444   3.867   3.197   1.423
 2827TIP3    H1 8445   3.836   3.248   1.498
 2827TIP3    H2 8446   3.883   3.110   1.458
 2828TIP3   OH2 8447   5.349   1.484   1.132
 2828TIP3    H1 8448   5.330   1.459   1.042
 2828TIP3    H2 8449   5.430   1.437   1.153
 2829TIP3   OH2 8450   1.174   4.821   0.194
 2829TIP3    H1 8451   1.180   4.860   0.107
 2829TIP3    H2 8452   1.189   4.894   0.254
 2830TIP3   OH2 8453   6.955   0.909   0.906
 2830TIP3    H1 8454   6.988   0.964   0.978
 2830TIP3    H2 8455   7.030   0.856   0.880
 2831TIP3   OH2 8456   3.964   1.047   5.493
 2831TIP3    H1 8457   3.970   0.957   5.462
 2831TIP3    H2 8458   3.870   1.062   5.506
 2832TIP3   OH2 8459   2.019   2.527   0.881
 2832TIP3    H1 8460   1.975   2.455   0.927
 2832TIP3    H2 8461   1.956   2.554   0.814
 2833TIP3   OH2 8462   4.832   0.020   3.532
 2833TIP3    H1 8463   4.859  -0.070   3.520
 2833TIP3    H2 8464   4.885   0.052   3.605
 2834TIP3   OH2 8465   4.056   2.117   2.556
 2834TIP3    H1 8466   4.115   2.056   2.512
 2834TIP3    H2 8467   4.112   2.190   2.582
 2835TIP3   OH2 8468   1.069   5.478   5.711
 2835TIP3    H1 8469   1.141   5.449   5.767
 2835TIP3    H2 8470   1.013   5.401   5.702
 2836TIP3   OH2 8471   3.035   6.636   2.803
 2836TIP3    H1 8472   3.021   6.602   2.892
 2836TIP3    H2 8473   3.127   6.663   2.803
 2837TIP3   OH2 8474   0.937   5.658   4.077
 2837TIP3    H1 8475   0.909   5.572   4.046
 2837TIP3    H2 8476   0.864   5.690   4.130
 2838TIP3   OH2 8477   4.458   6.338   1.146
 2838TIP3    H1 8478   4.461   6.280   1.070
 2838TIP3    H2 8479   4.516   6.410   1.122
 2839TIP3   OH2 8480   5.168   6.256   4.662
 2839TIP3    H1 8481   5.229   6.245   4.735
 2839TIP3    H2 8482   5.081   6.253   4.702
 2840TIP3   OH2 8483   4.037   0.332   1.177
 2840TIP3    H1 8484   4.118   0.334   1.125
 2840TIP3    H2 8485   3.975   0.384   1.127
 2841TIP3   OH2 8486   5.264   3.459   2.862
 2841TIP3    H1 8487   5.218   3.376   2.863
 2841TIP3    H2 8488   5.224   3.510   2.932
 2842TIP3   OH2 8489   2.711   2.285   4.823
 2842TIP3    H1 8490   2.630   2.307   4.776
 2842TIP3    H2 8491   2.781   2.323   4.769
 2843TIP3   OH2 8492   7.167   4.089   0.110
 2843TIP3    H1 8493   7.130   4.136   0.184
 2843TIP3    H2 8494   7.096   4.032   0.080
 2844TIP3   OH2 8495   3.247   3.125   0.993
 2844TIP3    H1 8496   3.177   3.105   0.931
 2844TIP3    H2 8497   3.211   3.099   1.078
 2845TIP3   OH2 8498   0.779   4.059   0.818
 2845TIP3    H1 8499   0.794   3.965   0.812
 2845TIP3    H2 8500   0.741   4.084   0.734
 2846TIP3   OH2 8501   6.263   3.461   5.304
 2846TIP3    H1 8502   6.197   3.427   5.365
 2846TIP3    H2 8503   6.301   3.536   5.349
 2847TIP3   OH2 8504   1.933   4.084   4.591
 2847TIP3    H1 8505   2.028   4.074   4.598
 2847TIP3    H2 8506   1.903   4.086   4.682
 2848TIP3   OH2 8507   6.620   6.465   1.984
 2848TIP3    H1 8508   6.537   6.502   1.954
 2848TIP3    H2 8509   6.656   6.532   2.042
 2849TIP3   OH2 8510   3.865   1.158   3.524
 2849TIP3    H1 8511   3.859   1.248   3.491
 2849TIP3    H2 8512   3.827   1.105   3.454
 2850TIP3   OH2 8513   3.322   2.555   2.888
 2850TIP3    H1 8514   3.232   2.539   2.917
 2850TIP3    H2 8515   3.360   2.468   2.877
 2851TIP3   OH2 8516   4.199   0.676   1.932
 2851TIP3    H1 8517   4.174   0.720   1.850
 2851TIP3    H2 8518   4.195   0.583   1.911
 2852TIP3   OH2 8519   0.638   5.011   0.365
 2852TIP3    H1 8520   0.633   5.011   0.269
 2852TIP3    H2 8521   0.628   5.103   0.389
 2853TIP3   OH2 8522   4.841   2.286   2.281
 2853TIP3    H1 8523   4.850   2.250   2.370
 2853TIP3    H2 8524   4.867   2.214   2.224
 2854TIP3   OH2 8525   0.116   4.866   4.130
 2854TIP3    H1 8526   0.165   4.792   4.168
 2854TIP3    H2 8527   0.139   4.941   4.186
 2855TIP3   OH2 8528   2.002   6.681   4.199
 2855TIP3    H1 8529   2.016   6.725   4.115
 2855TIP3    H2 8530   2.016   6.750   4.265
 2856TIP3   OH2 8531   5.651   2.066   5.259
 2856TIP3    H1 8532   5.570   2.110   5.234
 2856TIP3    H2 8533   5.624   2.007   5.330
 2857TIP3   OH2 8534   2.132   4.816   2.425
 2857TIP3    H1 8535   2.216   4.774   2.408
 2857TIP3    H2 8536   2.070   4.768   2.370
 2858TIP3   OH2 8537   1.510   0.147   3.441
 2858TIP3    H1 8538   1.567   0.155   3.365
 2858TIP3    H2 8539   1.513   0.233   3.483
 2859TIP3   OH2 8540   0.882   3.458   5.689
 2859TIP3    H1 8541   0.862   3.545   5.653
 2859TIP3    H2 8542   0.860   3.398   5.619
 2860TIP3   OH2 8543   2.794   6.567   2.691
 2860TIP3    H1 8544   2.864   6.592   2.753
 2860TIP3    H2 8545   2.834   6.577   2.605
 2861TIP3   OH2 8546   1.599   2.163   4.405
 2861TIP3    H1 8547   1.622   2.087   4.458
 2861TIP3    H2 8548   1.684   2.201   4.380
 2862TIP3   OH2 8549   0.237   2.619   5.225
 2862TIP3    H1 8550   0.188   2.674   5.165
 2862TIP3    H2 8551   0.323   2.609   5.184
 2863TIP3   OH2 8552   5.762   6.233   5.560
 2863TIP3    H1 8553   5.772   6.205   5.469
 2863TIP3    H2 8554   5.827   6.182   5.609
 2864TIP3   OH2 8555   3.221   5.119   0.112
 2864TIP3    H1 8556   3.227   5.164   0.196
 2864TIP3    H2 8557   3.134   5.141   0.079
 2865TIP3   OH2 8558   3.679   3.065   5.384
 2865TIP3    H1 8559   3.666   3.160   5.379
 2865TIP3    H2 8560   3.767   3.051   5.351
 2866TIP3   OH2 8561   0.035   2.465   5.458
 2866TIP3    H1 8562   0.068   2.378   5.479
 2866TIP3    H2 8563   0.108   2.508   5.413
 2867TIP3   OH2 8564   6.423   2.935   0.096
 2867TIP3    H1 8565   6.514   2.961   0.082
 2867TIP3    H2 8566   6.385   3.008   0.145
 2868TIP3   OH2 8567   1.327   5.140   4.616
 2868TIP3    H1 8568   1.350   5.148   4.524
 2868TIP3    H2 8569   1.340   5.228   4.652
 2869TIP3   OH2 8570   5.927   5.668   4.475
 2869TIP3    H1 8571   5.879   5.720   4.540
 2869TIP3    H2 8572   5.899   5.703   4.391
 2870TIP3   OH2 8573   3.214   6.159   0.109
 2870TIP3    H1 8574   3.180   6.075   0.079
 2870TIP3    H2 8575   3.161   6.180   0.186
 2871TIP3   OH2 8576   1.926   2.299   5.529
 2871TIP3    H1 8577   1.861   2.228   5.526
 2871TIP3    H2 8578   2.002   2.260   5.573
 2872TIP3   OH2 8579   5.930   3.769   3.251
 2872TIP3    H1 8580   5.944   3.844   3.193
 2872TIP3    H2 8581   6.008   3.766   3.306
 2873TIP3   OH2 8582   6.418   0.883   1.603
 2873TIP3    H1 8583   6.476   0.830   1.657
 2873TIP3    H2 8584   6.331   0.846   1.617
 2874TIP3   OH2 8585   6.575   6.747   1.198
 2874TIP3    H1 8586   6.509   6.814   1.179
 2874TIP3    H2 8587   6.654   6.797   1.218
 2875TIP3   OH2 8588   4.195   2.161   5.473
 2875TIP3    H1 8589   4.100   2.175   5.475
 2875TIP3    H2 8590   4.205   2.070   5.446
 2876TIP3   OH2 8591   0.992   3.145   1.182
 2876TIP3    H1 8592   1.002   3.196   1.262
 2876TIP3    H2 8593   0.898   3.136   1.170
 2877TIP3   OH2 8594   4.421   4.634   1.554
 2877TIP3    H1 8595   4.463   4.555   1.587
 2877TIP3    H2 8596   4.361   4.660   1.624
 2878TIP3   OH2 8597   6.370   5.187   5.218
 2878TIP3    H1 8598   6.413   5.171   5.302
 2878TIP3    H2 8599   6.349   5.280   5.219
 2879TIP3   OH2 8600   4.636   2.225   5.851
 2879TIP3    H1 8601   4.556   2.272   5.874
 2879TIP3    H2 8602   4.695   2.240   5.925
 2880TIP3   OH2 8603   2.365   1.250   4.432
 2880TIP3    H1 8604   2.352   1.248   4.527
 2880TIP3    H2 8605   2.281   1.282   4.398
 2881TIP3   OH2 8606   5.029   6.717   1.010
 2881TIP3    H1 8607   5.098   6.708   1.076
 2881TIP3    H2 8608   5.056   6.657   0.940
 2882TIP3   OH2 8609   5.874   0.576   4.293
 2882TIP3    H1 8610   5.800   0.561   4.234
 2882TIP3    H2 8611   5.844   0.643   4.354
 2883TIP3   OH2 8612   4.560   4.790   5.840
 2883TIP3    H1 8613   4.556   4.862   5.903
 2883TIP3    H2 8614   4.637   4.809   5.787
 2884TIP3   OH2 8615   6.901   4.825   3.322
 2884TIP3    H1 8616   6.986   4.791   3.295
 2884TIP3    H2 8617   6.907   4.834   3.417
 2885TIP3   OH2 8618   3.640   4.893   3.844
 2885TIP3    H1 8619   3.563   4.928   3.891
 2885TIP3    H2 8620   3.602   4.837   3.776
 2886TIP3   OH2 8621   3.937   4.060   2.581
 2886TIP3    H1 8622   3.909   4.041   2.492
 2886TIP3    H2 8623   3.893   4.141   2.604
 2887TIP3   OH2 8624   4.980   1.319   2.007
 2887TIP3    H1 8625   5.045   1.249   2.002
 2887TIP3    H2 8626   4.963   1.343   1.916
 2888TIP3   OH2 8627   5.639   3.662   1.003
 2888TIP3    H1 8628   5.718   3.682   1.052
 2888TIP3    H2 8629   5.601   3.586   1.049
 2889TIP3   OH2 8630   4.435   3.381   1.657
 2889TIP3    H1 8631   4.446   3.470   1.690
 2889TIP3    H2 8632   4.406   3.330   1.732
 2890TIP3   OH2 8633   0.137   2.000   5.638
 2890TIP3    H1 8634   0.151   2.048   5.720
 2890TIP3    H2 8635   0.044   2.015   5.618
 2891TIP3   OH2 8636   0.596   1.853   0.453
 2891TIP3    H1 8637   0.651   1.786   0.411
 2891TIP3    H2 8638   0.508   1.816   0.452
 2892TIP3   OH2 8639   0.681   0.570   0.250
 2892TIP3    H1 8640   0.690   0.598   0.158
 2892TIP3    H2 8641   0.678   0.651   0.299
 2893TIP3   OH2 8642   2.122   3.948   1.461
 2893TIP3    H1 8643   2.131   3.933   1.367
 2893TIP3    H2 8644   2.171   3.876   1.502
 2894TIP3   OH2 8645   5.393   5.827   3.583
 2894TIP3    H1 8646   5.374   5.733   3.589
 2894TIP3    H2 8647   5.401   5.844   3.490
 2895TIP3   OH2 8648   5.624   5.862   2.789
 2895TIP3    H1 8649   5.643   5.956   2.784
 2895TIP3    H2 8650   5.700   5.825   2.835
 2896TIP3   OH2 8651   5.714   2.211   2.998
 2896TIP3    H1 8652   5.633   2.169   2.972
 2896TIP3    H2 8653   5.687   2.278   3.061
 2897TIP3   OH2 8654   7.080   5.207   0.344
 2897TIP3    H1 8655   6.994   5.172   0.322
 2897TIP3    H2 8656   7.143   5.148   0.302
 2898TIP3   OH2 8657   2.684   5.717   3.609
 2898TIP3    H1 8658   2.687   5.768   3.527
 2898TIP3    H2 8659   2.671   5.782   3.677
 2899TIP3   OH2 8660   3.828   0.092   1.077
 2899TIP3    H1 8661   3.895   0.101   1.009
 2899TIP3    H2 8662   3.761   0.037   1.037
 2900TIP3   OH2 8663   1.298   0.286   3.843
 2900TIP3    H1 8664   1.253   0.261   3.924
 2900TIP3    H2 8665   1.227   0.303   3.781
 2901TIP3   OH2 8666   3.931   5.410   2.928
 2901TIP3    H1 8667   3.853   5.464   2.919
 2901TIP3    H2 8668   3.900   5.328   2.966
 2902TIP3   OH2 8669   6.151   4.494   2.355
 2902TIP3    H1 8670   6.166   4.436   2.430
 2902TIP3    H2 8671   6.176   4.441   2.279
 2903TIP3   OH2 8672   5.926   2.816   4.292
 2903TIP3    H1 8673   5.866   2.890   4.281
 2903TIP3    H2 8674   5.868   2.740   4.302
 2904TIP3   OH2 8675   3.804   0.541   5.827
 2904TIP3    H1 8676   3.837   0.469   5.881
 2904TIP3    H2 8677   3.783   0.611   5.890
 2905TIP3   OH2 8678   3.416   4.927   0.034
 2905TIP3    H1 8679   3.497   4.978   0.026
 2905TIP3    H2 8680   3.358   4.982   0.087
 2906TIP3   OH2 8681   3.273   4.396   0.820
 2906TIP3    H1 8682   3.246   4.324   0.763
 2906TIP3    H2 8683   3.232   4.473   0.782
 2907TIP3   OH2 8684   3.898   2.698   4.310
 2907TIP3    H1 8685   3.988   2.681   4.335
 2907TIP3    H2 8686   3.849   2.623   4.344
 2908TIP3   OH2 8687   2.339   2.309   1.733
 2908TIP3    H1 8688   2.308   2.302   1.642
 2908TIP3    H2 8689   2.291   2.242   1.780
 2909TIP3   OH2 8690   3.659   2.081   1.802
 2909TIP3    H1 8691   3.667   2.118   1.890
 2909TIP3    H2 8692   3.607   2.145   1.753
 2910TIP3   OH2 8693   6.429   6.623   2.899
 2910TIP3    H1 8694   6.487   6.688   2.859
 2910TIP3    H2 8695   6.484   6.579   2.964
 2911TIP3   OH2 8696   4.702   2.310   2.952
 2911TIP3    H1 8697   4.778   2.297   2.895
 2911TIP3    H2 8698   4.627   2.308   2.893
 2912TIP3   OH2 8699   1.835   1.114   1.424
 2912TIP3    H1 8700   1.797   1.134   1.339
 2912TIP3    H2 8701   1.834   1.018   1.429
 2913TIP3   OH2 8702   0.865   4.999   2.893
 2913TIP3    H1 8703   0.954   5.019   2.863
 2913TIP3    H2 8704   0.871   4.911   2.930
 2914TIP3   OH2 8705   2.274   5.196   1.143
 2914TIP3    H1 8706   2.356   5.171   1.102
 2914TIP3    H2 8707   2.240   5.268   1.088
 2915TIP3   OH2 8708   2.851   5.514   1.953
 2915TIP3    H1 8709   2.891   5.460   2.020
 2915TIP3    H2 8710   2.849   5.458   1.875
 2916TIP3   OH2 8711   4.282   4.995   0.693
 2916TIP3    H1 8712   4.279   4.899   0.696
 2916TIP3    H2 8713   4.359   5.015   0.640
 2917TIP3   OH2 8714   6.882   5.914   3.590
 2917TIP3    H1 8715   6.824   5.977   3.634
 2917TIP3    H2 8716   6.870   5.833   3.639
 2918TIP3   OH2 8717   4.591   5.274   2.672
 2918TIP3    H1 8718   4.584   5.343   2.738
 2918TIP3    H2 8719   4.515   5.286   2.616
 2919TIP3   OH2 8720   6.866   2.880   3.333
 2919TIP3    H1 8721   6.931   2.924   3.388
 2919TIP3    H2 8722   6.881   2.787   3.349
 2920TIP3   OH2 8723   3.686   2.392   2.548
 2920TIP3    H1 8724   3.769   2.347   2.533
 2920TIP3    H2 8725   3.696   2.476   2.503
 2921TIP3   OH2 8726   4.499   0.755   1.234
 2921TIP3    H1 8727   4.471   0.742   1.325
 2921TIP3    H2 8728   4.558   0.830   1.237
 2922TIP3   OH2 8729   3.786   3.723   4.608
 2922TIP3    H1 8730   3.784   3.632   4.580
 2922TIP3    H2 8731   3.722   3.767   4.551
 2923TIP3   OH2 8732   4.342   3.475   5.600
 2923TIP3    H1 8733   4.332   3.567   5.625
 2923TIP3    H2 8734   4.356   3.477   5.506
 2924TIP3   OH2 8735   7.058   4.886   4.332
 2924TIP3    H1 8736   7.098   4.819   4.387
 2924TIP3    H2 8737   7.002   4.837   4.272
 2925TIP3   OH2 8738   2.328   0.568   3.147
 2925TIP3    H1 8739   2.307   0.652   3.107
 2925TIP3    H2 8740   2.376   0.521   3.078
 2926TIP3   OH2 8741   3.858   4.202   5.114
 2926TIP3    H1 8742   3.816   4.118   5.091
 2926TIP3    H2 8743   3.835   4.260   5.041
 2927TIP3   OH2 8744   5.192   2.257   2.800
 2927TIP3    H1 8745   5.244   2.282   2.724
 2927TIP3    H2 8746   5.247   2.279   2.876
 2928TIP3   OH2 8747   0.768   0.226   4.570
 2928TIP3    H1 8748   0.815   0.228   4.653
 2928TIP3    H2 8749   0.786   0.311   4.529
 2929TIP3   OH2 8750   6.274   4.749   4.503
 2929TIP3    H1 8751   6.236   4.706   4.427
 2929TIP3    H2 8752   6.365   4.766   4.478
 2930TIP3   OH2 8753   1.996   1.046   4.334
 2930TIP3    H1 8754   1.992   1.094   4.417
 2930TIP3    H2 8755   1.954   0.962   4.353
 2931TIP3   OH2 8756   1.019   1.007   2.563
 2931TIP3    H1 8757   1.046   0.955   2.487
 2931TIP3    H2 8758   1.087   0.991   2.628
 2932TIP3   OH2 8759   1.761   5.259   0.601
 2932TIP3    H1 8760   1.793   5.203   0.673
 2932TIP3    H2 8761   1.828   5.252   0.534
 2933TIP3   OH2 8762   2.090   5.789   5.873
 2933TIP3    H1 8763   2.159   5.733   5.836
 2933TIP3    H2 8764   2.019   5.782   5.810
 2934TIP3   OH2 8765   0.885   5.382   4.462
 2934TIP3    H1 8766   0.978   5.392   4.482
 2934TIP3    H2 8767   0.861   5.464   4.420
 2935TIP3   OH2 8768   6.270   4.458   0.928
 2935TIP3    H1 8769   6.192   4.503   0.895
 2935TIP3    H2 8770   6.236   4.401   0.998
 2936TIP3   OH2 8771   2.705   6.776   0.588
 2936TIP3    H1 8772   2.786   6.764   0.539
 2936TIP3    H2 8773   2.655   6.839   0.536
 2937TIP3   OH2 8774   6.746   1.244   0.611
 2937TIP3    H1 8775   6.736   1.233   0.516
 2937TIP3    H2 8776   6.723   1.159   0.648
 2938TIP3   OH2 8777   2.529   6.127   0.048
 2938TIP3    H1 8778   2.480   6.059   0.003
 2938TIP3    H2 8779   2.481   6.141   0.130
 2939TIP3   OH2 8780   6.044   3.310   5.421
 2939TIP3    H1 8781   5.948   3.311   5.426
 2939TIP3    H2 8782   6.068   3.218   5.429
 2940TIP3   OH2 8783   3.648   3.066   5.850
 2940TIP3    H1 8784   3.654   3.009   5.774
 2940TIP3    H2 8785   3.570   3.119   5.835
 2941TIP3   OH2 8786   3.110   2.224   4.460
 2941TIP3    H1 8787   3.158   2.264   4.533
 2941TIP3    H2 8788   3.153   2.258   4.382
 2942TIP3   OH2 8789   2.673   1.877   1.485
 2942TIP3    H1 8790   2.690   1.934   1.411
 2942TIP3    H2 8791   2.652   1.792   1.446
 2943TIP3   OH2 8792   2.776   4.814   5.788
 2943TIP3    H1 8793   2.871   4.815   5.800
 2943TIP3    H2 8794   2.761   4.876   5.716
 2944TIP3   OH2 8795   0.975   5.756   0.413
 2944TIP3    H1 8796   0.928   5.839   0.409
 2944TIP3    H2 8797   0.981   5.736   0.506
 2945TIP3   OH2 8798   4.362   6.075   4.914
 2945TIP3    H1 8799   4.275   6.095   4.880
 2945TIP3    H2 8800   4.399   6.015   4.849
 2946TIP3   OH2 8801   2.742   5.187   1.582
 2946TIP3    H1 8802   2.689   5.149   1.513
 2946TIP3    H2 8803   2.831   5.189   1.547
 2947TIP3   OH2 8804   6.484   2.209   0.111
 2947TIP3    H1 8805   6.472   2.291   0.159
 2947TIP3    H2 8806   6.577   2.189   0.121
 2948TIP3   OH2 8807   2.903   4.286   2.953
 2948TIP3    H1 8808   2.829   4.309   3.009
 2948TIP3    H2 8809   2.973   4.263   3.013
 2949TIP3   OH2 8810   6.310   6.178   0.748
 2949TIP3    H1 8811   6.215   6.171   0.754
 2949TIP3    H2 8812   6.343   6.099   0.792
 2950TIP3   OH2 8813   4.832   6.018   2.965
 2950TIP3    H1 8814   4.913   6.016   3.016
 2950TIP3    H2 8815   4.766   5.979   3.022
 2951TIP3   OH2 8816   0.670   6.440   0.948
 2951TIP3    H1 8817   0.615   6.382   1.001
 2951TIP3    H2 8818   0.760   6.410   0.964
 2952TIP3   OH2 8819   4.994   1.090   0.979
 2952TIP3    H1 8820   5.084   1.097   1.010
 2952TIP3    H2 8821   4.942   1.133   1.046
 2953TIP3   OH2 8822   6.324   5.703   1.298
 2953TIP3    H1 8823   6.354   5.767   1.362
 2953TIP3    H2 8824   6.367   5.621   1.325
 2954TIP3   OH2 8825   3.638   5.089   4.397
 2954TIP3    H1 8826   3.683   5.121   4.319
 2954TIP3    H2 8827   3.618   5.168   4.447
 2955TIP3   OH2 8828   5.142   2.910   5.475
 2955TIP3    H1 8829   5.126   2.968   5.401
 2955TIP3    H2 8830   5.155   2.968   5.550
 2956TIP3   OH2 8831   3.662   4.546   2.201
 2956TIP3    H1 8832   3.694   4.634   2.218
 2956TIP3    H2 8833   3.613   4.554   2.119
 2957TIP3   OH2 8834   5.053   3.937   5.804
 2957TIP3    H1 8835   5.102   4.001   5.753
 2957TIP3    H2 8836   4.976   3.984   5.834
 2958TIP3   OH2 8837   2.853   1.295   4.210
 2958TIP3    H1 8838   2.910   1.224   4.240
 2958TIP3    H2 8839   2.913   1.360   4.173
 2959TIP3   OH2 8840   4.240   0.135   4.262
 2959TIP3    H1 8841   4.163   0.131   4.318
 2959TIP3    H2 8842   4.205   0.142   4.173
 2960TIP3   OH2 8843   2.571   6.660   1.734
 2960TIP3    H1 8844   2.529   6.743   1.757
 2960TIP3    H2 8845   2.499   6.597   1.731
 2961TIP3   OH2 8846   3.888   4.537   2.664
 2961TIP3    H1 8847   3.893   4.629   2.635
 2961TIP3    H2 8848   3.854   4.542   2.753
 2962TIP3   OH2 8849   0.153   6.239   2.333
 2962TIP3    H1 8850   0.073   6.212   2.288
 2962TIP3    H2 8851   0.206   6.159   2.336
 2963TIP3   OH2 8852   4.775   3.333   4.054
 2963TIP3    H1 8853   4.791   3.242   4.028
 2963TIP3    H2 8854   4.732   3.372   3.978
 2964TIP3   OH2 8855   2.587   4.916   4.268
 2964TIP3    H1 8856   2.666   4.943   4.221
 2964TIP3    H2 8857   2.560   4.835   4.225
 2965TIP3   OH2 8858   3.523   0.022   3.809
 2965TIP3    H1 8859   3.513   0.097   3.750
 2965TIP3    H2 8860   3.616   0.022   3.832
 2966TIP3   OH2 8861   1.760   2.069   1.434
 2966TIP3    H1 8862   1.797   2.157   1.447
 2966TIP3    H2 8863   1.816   2.030   1.366
 2967TIP3   OH2 8864   2.563   0.465   4.285
 2967TIP3    H1 8865   2.553   0.559   4.267
 2967TIP3    H2 8866   2.482   0.441   4.330
 2968TIP3   OH2 8867   4.372   4.349   5.536
 2968TIP3    H1 8868   4.308   4.384   5.598
 2968TIP3    H2 8869   4.320   4.320   5.462
 2969TIP3   OH2 8870   6.333   3.297   4.487
 2969TIP3    H1 8871   6.324   3.202   4.481
 2969TIP3    H2 8872   6.254   3.332   4.445
 2970TIP3   OH2 8873   0.211   0.156   3.744
 2970TIP3    H1 8874   0.222   0.094   3.671
 2970TIP3    H2 8875   0.264   0.231   3.719
 2971TIP3   OH2 8876   2.465   6.320   4.836
 2971TIP3    H1 8877   2.379   6.283   4.857
 2971TIP3    H2 8878   2.453   6.363   4.752
 2972TIP3   OH2 8879   6.580   5.572   3.381
 2972TIP3    H1 8880   6.652   5.628   3.350
 2972TIP3    H2 8881   6.534   5.547   3.301
 2973TIP3   OH2 8882   4.429   3.002   3.221
 2973TIP3    H1 8883   4.395   2.918   3.190
 2973TIP3    H2 8884   4.502   3.021   3.162
 2974TIP3   OH2 8885   4.645   3.397   2.099
 2974TIP3    H1 8886   4.668   3.322   2.043
 2974TIP3    H2 8887   4.555   3.419   2.072
 2975TIP3   OH2 8888   2.526   3.232   4.172
 2975TIP3    H1 8889   2.590   3.164   4.193
 2975TIP3    H2 8890   2.577   3.303   4.133
 2976TIP3   OH2 8891   2.770   5.461   1.378
 2976TIP3    H1 8892   2.860   5.434   1.396
 2976TIP3    H2 8893   2.747   5.518   1.451
 2977TIP3   OH2 8894   7.131   3.656   1.796
 2977TIP3    H1 8895   7.059   3.642   1.734
 2977TIP3    H2 8896   7.205   3.683   1.742
 2978TIP3   OH2 8897   5.051   2.722   4.174
 2978TIP3    H1 8898   5.109   2.728   4.250
 2978TIP3    H2 8899   5.107   2.691   4.103
 2979TIP3   OH2 8900   6.190   4.939   5.558
 2979TIP3    H1 8901   6.212   5.026   5.590
 2979TIP3    H2 8902   6.257   4.920   5.492
 2980TIP3   OH2 8903   0.971   4.442   5.074
 2980TIP3    H1 8904   1.026   4.485   5.139
 2980TIP3    H2 8905   0.883   4.476   5.091
 2981TIP3   OH2 8906   5.542   3.233   4.354
 2981TIP3    H1 8907   5.477   3.204   4.290
 2981TIP3    H2 8908   5.533   3.328   4.356
 2982TIP3   OH2 8909   1.894   6.203   5.617
 2982TIP3    H1 8910   1.882   6.155   5.535
 2982TIP3    H2 8911   1.805   6.227   5.644
 2983TIP3   OH2 8912   0.197   3.209   1.955
 2983TIP3    H1 8913   0.123   3.250   1.910
 2983TIP3    H2 8914   0.240   3.157   1.888
 2984TIP3   OH2 8915   0.753   0.121   1.383
 2984TIP3    H1 8916   0.669   0.165   1.399
 2984TIP3    H2 8917   0.741   0.077   1.299
 2985TIP3   OH2 8918   2.284   0.245   2.659
 2985TIP3    H1 8919   2.193   0.218   2.663
 2985TIP3    H2 8920   2.281   0.338   2.640
 2986TIP3   OH2 8921   1.374   0.429   1.079
 2986TIP3    H1 8922   1.383   0.464   1.167
 2986TIP3    H2 8923   1.316   0.491   1.034
 2987TIP3   OH2 8924   0.319   0.805   5.033
 2987TIP3    H1 8925   0.295   0.833   4.944
 2987TIP3    H2 8926   0.244   0.830   5.087
 2988TIP3   OH2 8927   6.111   6.599   3.527
 2988TIP3    H1 8928   6.199   6.632   3.506
 2988TIP3    H2 8929   6.057   6.623   3.452
 2989TIP3   OH2 8930   3.753   2.635   2.469
 2989TIP3    H1 8931   3.757   2.711   2.526
 2989TIP3    H2 8932   3.837   2.635   2.422
 2990TIP3   OH2 8933   4.492   4.635   3.264
 2990TIP3    H1 8934   4.517   4.626   3.355
 2990TIP3    H2 8935   4.431   4.709   3.262
 2991TIP3   OH2 8936   0.804   2.136   1.369
 2991TIP3    H1 8937   0.867   2.097   1.430
 2991TIP3    H2 8938   0.845   2.218   1.342
 2992TIP3   OH2 8939   6.882   2.358   3.737
 2992TIP3    H1 8940   6.974   2.385   3.725
 2992TIP3    H2 8941   6.845   2.425   3.795
 2993TIP3   OH2 8942   1.481   5.438   1.156
 2993TIP3    H1 8943   1.536   5.367   1.123
 2993TIP3    H2 8944   1.483   5.427   1.251
 2994TIP3   OH2 8945   0.516   1.607   4.844
 2994TIP3    H1 8946   0.465   1.526   4.843
 2994TIP3    H2 8947   0.605   1.579   4.822
 2995TIP3   OH2 8948   1.512   6.298   0.192
 2995TIP3    H1 8949   1.543   6.388   0.184
 2995TIP3    H2 8950   1.447   6.288   0.123
 2996TIP3   OH2 8951   6.126   1.447   3.171
 2996TIP3    H1 8952   6.180   1.371   3.190
 2996TIP3    H2 8953   6.104   1.438   3.078
 2997TIP3   OH2 8954   2.565   4.903   0.949
 2997TIP3    H1 8955   2.622   4.945   1.013
 2997TIP3    H2 8956   2.612   4.912   0.866
 2998TIP3   OH2 8957   0.397   2.537   4.493
 2998TIP3    H1 8958   0.417   2.562   4.402
 2998TIP3    H2 8959   0.365   2.447   4.486
 2999TIP3   OH2 8960   3.311   0.530   2.624
 2999TIP3    H1 8961   3.263   0.468   2.569
 2999TIP3    H2 8962   3.348   0.477   2.694
 3000TIP3   OH2 8963   2.915   0.416   3.904
 3000TIP3    H1 8964   2.924   0.461   3.820
 3000TIP3    H2 8965   2.895   0.485   3.967
 3001TIP3   OH2 8966   0.345   1.727   0.433
 3001TIP3    H1 8967   0.285   1.691   0.498
 3001TIP3    H2 8968   0.306   1.705   0.349
 3002TIP3   OH2 8969   6.127   5.925   1.734
 3002TIP3    H1 8970   6.175   5.856   1.688
 3002TIP3    H2 8971   6.194   5.987   1.762
 3003TIP3   OH2 8972   4.006   5.364   0.721
 3003TIP3    H1 8973   4.056   5.341   0.799
 3003TIP3    H2 8974   3.931   5.413   0.754
 3004TIP3   OH2 8975   1.521   3.719   1.331
 3004TIP3    H1 8976   1.553   3.805   1.304
 3004TIP3    H2 8977   1.599   3.674   1.366
 3005TIP3   OH2 8978   3.231   6.455   2.161
 3005TIP3    H1 8979   3.183   6.384   2.121
 3005TIP3    H2 8980   3.323   6.434   2.144
 3006TIP3   OH2 8981   1.127   4.762   3.787
 3006TIP3    H1 8982   1.083   4.735   3.706
 3006TIP3    H2 8983   1.160   4.850   3.768
 3007TIP3   OH2 8984   1.221   6.434   2.138
 3007TIP3    H1 8985   1.227   6.375   2.213
 3007TIP3    H2 8986   1.160   6.502   2.166
 3008TIP3   OH2 8987   6.276   1.618   2.358
 3008TIP3    H1 8988   6.324   1.561   2.298
 3008TIP3    H2 8989   6.202   1.650   2.307
 3009TIP3   OH2 8990   6.237   5.718   1.592
 3009TIP3    H1 8991   6.332   5.716   1.605
 3009TIP3    H2 8992   6.213   5.626   1.575
 3010TIP3   OH2 8993   1.417   0.873   4.338
 3010TIP3    H1 8994   1.482   0.819   4.383
 3010TIP3    H2 8995   1.377   0.926   4.408
 3011TIP3   OH2 8996   1.292   2.474   2.969
 3011TIP3    H1 8997   1.327   2.423   2.896
 3011TIP3    H2 8998   1.339   2.557   2.964
 3012TIP3   OH2 8999   2.185   3.208   3.541
 3012TIP3    H1 9000   2.253   3.176   3.600
 3012TIP3    H2 9001   2.231   3.267   3.481
 3013TIP3   OH2 9002   4.491   5.199   4.538
 3013TIP3    H1 9003   4.519   5.279   4.583
 3013TIP3    H2 9004   4.407   5.222   4.499
 3014TIP3   OH2 9005   1.420   3.449   3.846
 3014TIP3    H1 9006   1.487   3.516   3.836
 3014TIP3    H2 9007   1.337   3.495   3.830
 3015TIP3   OH2 9008   3.203   1.831   1.343
 3015TIP3    H1 9009   3.161   1.802   1.424
 3015TIP3    H2 9010   3.170   1.771   1.276
 3016TIP3   OH2 9011   4.797   1.365   5.793
 3016TIP3    H1 9012   4.870   1.410   5.835
 3016TIP3    H2 9013   4.763   1.427   5.729
 3017TIP3   OH2 9014   0.756   4.025   5.880
 3017TIP3    H1 9015   0.775   4.114   5.849
 3017TIP3    H2 9016   0.836   3.997   5.925
 3018TIP3   OH2 9017   2.942   1.037   5.286
 3018TIP3    H1 9018   2.902   1.054   5.200
 3018TIP3    H2 9019   3.023   0.990   5.265
 3019TIP3   OH2 9020   2.429   1.751   3.816
 3019TIP3    H1 9021   2.497   1.807   3.855
 3019TIP3    H2 9022   2.383   1.808   3.754
 3020TIP3   OH2 9023   6.790   1.565   0.259
 3020TIP3    H1 9024   6.834   1.650   0.271
 3020TIP3    H2 9025   6.776   1.558   0.165
 3021TIP3   OH2 9026   3.662   2.326   1.593
 3021TIP3    H1 9027   3.749   2.296   1.621
 3021TIP3    H2 9028   3.637   2.390   1.660
 3022TIP3   OH2 9029   3.556   3.918   3.386
 3022TIP3    H1 9030   3.605   3.947   3.309
 3022TIP3    H2 9031   3.481   3.978   3.390
 3023TIP3   OH2 9032   1.403   1.041   5.753
 3023TIP3    H1 9033   1.455   1.110   5.711
 3023TIP3    H2 9034   1.339   1.089   5.806
 3024TIP3   OH2 9035   6.128   4.007   3.496
 3024TIP3    H1 9036   6.143   3.937   3.433
 3024TIP3    H2 9037   6.033   4.021   3.494
 3025TIP3   OH2 9038   5.168   1.588   4.943
 3025TIP3    H1 9039   5.194   1.645   4.870
 3025TIP3    H2 9040   5.197   1.501   4.917
 3026TIP3   OH2 9041   1.662   6.069   0.181
 3026TIP3    H1 9042   1.610   6.148   0.201
 3026TIP3    H2 9043   1.655   6.059   0.087
 3027TIP3   OH2 9044   0.262   3.444   5.432
 3027TIP3    H1 9045   0.189   3.385   5.415
 3027TIP3    H2 9046   0.302   3.410   5.512
 3028TIP3   OH2 9047   5.796   1.508   5.383
 3028TIP3    H1 9048   5.853   1.435   5.407
 3028TIP3    H2 9049   5.711   1.468   5.365
 3029TIP3   OH2 9050   3.353   2.177   1.676
 3029TIP3    H1 9051   3.395   2.253   1.636
 3029TIP3    H2 9052   3.377   2.104   1.618
 3030TIP3   OH2 9053   4.987   2.626   4.513
 3030TIP3    H1 9054   5.061   2.671   4.472
 3030TIP3    H2 9055   5.019   2.538   4.531
 3031TIP3   OH2 9056   6.392   3.912   2.043
 3031TIP3    H1 9057   6.442   3.992   2.023
 3031TIP3    H2 9058   6.310   3.944   2.079
 3032TIP3   OH2 9059   1.797   2.937   4.762
 3032TIP3    H1 9060   1.819   2.943   4.669
 3032TIP3    H2 9061   1.878   2.960   4.807
 3033TIP3   OH2 9062   4.537   0.493   1.192
 3033TIP3    H1 9063   4.546   0.585   1.215
 3033TIP3    H2 9064   4.553   0.490   1.098
 3034TIP3   OH2 9065   0.079   0.376   5.353
 3034TIP3    H1 9066   0.090   0.370   5.258
 3034TIP3    H2 9067  -0.013   0.360   5.368
 3035TIP3   OH2 9068   0.917   5.212   5.076
 3035TIP3    H1 9069   0.922   5.162   4.995
 3035TIP3    H2 9070   0.838   5.266   5.067
 3036TIP3   OH2 9071   6.855   2.410   3.081
 3036TIP3    H1 9072   6.773   2.367   3.106
 3036TIP3    H2 9073   6.921   2.341   3.090
 3037TIP3   OH2 9074   7.027   0.895   0.614
 3037TIP3    H1 9075   7.073   0.911   0.697
 3037TIP3    H2 9076   6.948   0.949   0.620
 3038TIP3   OH2 9077   0.167   4.377   2.699
 3038TIP3    H1 9078   0.149   4.419   2.615
 3038TIP3    H2 9079   0.251   4.412   2.726
 3039TIP3   OH2 9080   0.177   1.059   3.749
 3039TIP3    H1 9081   0.271   1.071   3.763
 3039TIP3    H2 9082   0.151   1.134   3.697
 3040TIP3   OH2 9083   6.167   0.731   1.476
 3040TIP3    H1 9084   6.074   0.736   1.456
 3040TIP3    H2 9085   6.201   0.667   1.413
 3041TIP3   OH2 9086   0.710   5.106   3.866
 3041TIP3    H1 9087   0.740   5.150   3.787
 3041TIP3    H2 9088   0.676   5.022   3.836
 3042TIP3   OH2 9089   3.234   1.263   2.532
 3042TIP3    H1 9090   3.155   1.313   2.507
 3042TIP3    H2 9091   3.248   1.204   2.458
 3043TIP3   OH2 9092   1.750   1.310   2.843
 3043TIP3    H1 9093   1.725   1.237   2.786
 3043TIP3    H2 9094   1.673   1.367   2.843
 3044TIP3   OH2 9095   5.435   2.059   1.035
 3044TIP3    H1 9096   5.410   2.064   0.942
 3044TIP3    H2 9097   5.446   1.965   1.051
 3045TIP3   OH2 9098   1.814   5.873   4.997
 3045TIP3    H1 9099   1.821   5.778   4.997
 3045TIP3    H2 9100   1.899   5.904   4.966
 3046TIP3   OH2 9101   4.116   1.240   4.990
 3046TIP3    H1 9102   4.105   1.234   4.895
 3046TIP3    H2 9103   4.083   1.157   5.023
 3047TIP3   OH2 9104   2.882   5.918   3.247
 3047TIP3    H1 9105   2.860   5.942   3.337
 3047TIP3    H2 9106   2.939   5.988   3.216
 3048TIP3   OH2 9107   4.496   0.451   4.271
 3048TIP3    H1 9108   4.553   0.481   4.200
 3048TIP3    H2 9109   4.534   0.489   4.350
 3049TIP3   OH2 9110   4.532   0.372   4.950
 3049TIP3    H1 9111   4.605   0.371   4.889
 3049TIP3    H2 9112   4.565   0.326   5.027
 3050TIP3   OH2 9113   4.337   1.255   5.162
 3050TIP3    H1 9114   4.285   1.240   5.083
 3050TIP3    H2 9115   4.303   1.192   5.225
 3051TIP3   OH2 9116   5.086   1.997   5.776
 3051TIP3    H1 9117   5.085   1.915   5.826
 3051TIP3    H2 9118   5.135   2.058   5.831
 3052TIP3   OH2 9119   4.206   2.271   2.883
 3052TIP3    H1 9120   4.200   2.342   2.947
 3052TIP3    H2 9121   4.200   2.315   2.798
 3053TIP3   OH2 9122   2.701   6.206   5.296
 3053TIP3    H1 9123   2.760   6.131   5.305
 3053TIP3    H2 9124   2.625   6.171   5.250
 3054TIP3   OH2 9125   2.855   1.036   1.808
 3054TIP3    H1 9126   2.788   1.091   1.766
 3054TIP3    H2 9127   2.811   0.998   1.884
 3055TIP3   OH2 9128   4.913   2.792   5.597
 3055TIP3    H1 9129   4.903   2.810   5.691
 3055TIP3    H2 9130   4.992   2.840   5.572
 3056TIP3   OH2 9131   6.100   4.400   2.892
 3056TIP3    H1 9132   6.093   4.476   2.834
 3056TIP3    H2 9133   6.010   4.373   2.908
 3057TIP3   OH2 9134   2.369   3.998   3.731
 3057TIP3    H1 9135   2.314   4.071   3.762
 3057TIP3    H2 9136   2.345   3.925   3.787
 3058TIP3   OH2 9137   5.197   5.616   2.921
 3058TIP3    H1 9138   5.179   5.596   2.830
 3058TIP3    H2 9139   5.177   5.710   2.929
 3059TIP3   OH2 9140   0.110   5.948   1.383
 3059TIP3    H1 9141   0.185   5.988   1.428
 3059TIP3    H2 9142   0.134   5.951   1.290
 3060TIP3   OH2 9143   5.482   0.597   3.463
 3060TIP3    H1 9144   5.391   0.609   3.437
 3060TIP3    H2 9145   5.529   0.670   3.422
 3061TIP3   OH2 9146   3.963   0.058   5.800
 3061TIP3    H1 9147   4.017   0.003   5.857
 3061TIP3    H2 9148   4.027   0.115   5.756
 3062TIP3   OH2 9149   5.115   3.039   2.747
 3062TIP3    H1 9150   5.123   2.961   2.692
 3062TIP3    H2 9151   5.155   3.109   2.696
 3063TIP3   OH2 9152   4.426   0.446   2.155
 3063TIP3    H1 9153   4.366   0.411   2.089
 3063TIP3    H2 9154   4.507   0.397   2.140
 3064TIP3   OH2 9155   4.683   3.480   2.781
 3064TIP3    H1 9156   4.694   3.393   2.819
 3064TIP3    H2 9157   4.758   3.530   2.814
 3065TIP3   OH2 9158   0.351   4.514   2.828
 3065TIP3    H1 9159   0.444   4.523   2.809
 3065TIP3    H2 9160   0.315   4.602   2.812
 3066TIP3   OH2 9161   0.981   1.528   0.557
 3066TIP3    H1 9162   1.055   1.546   0.616
 3066TIP3    H2 9163   0.925   1.468   0.606
 3067TIP3   OH2 9164   6.451   0.854   2.352
 3067TIP3    H1 9165   6.480   0.821   2.437
 3067TIP3    H2 9166   6.504   0.807   2.288
 3068TIP3   OH2 9167   2.383   1.793   2.075
 3068TIP3    H1 9168   2.387   1.860   2.143
 3068TIP3    H2 9169   2.430   1.719   2.112
 3069TIP3   OH2 9170   5.066   3.237   4.600
 3069TIP3    H1 9171   5.059   3.186   4.519
 3069TIP3    H2 9172   5.160   3.246   4.615
 3070TIP3   OH2 9173   3.231   6.301   0.897
 3070TIP3    H1 9174   3.151   6.287   0.847
 3070TIP3    H2 9175   3.301   6.280   0.837
 3071TIP3   OH2 9176   6.339   4.931   1.473
 3071TIP3    H1 9177   6.397   4.856   1.482
 3071TIP3    H2 9178   6.279   4.906   1.403
 3072TIP3   OH2 9179   7.182   0.093   4.364
 3072TIP3    H1 9180   7.144   0.162   4.417
 3072TIP3    H2 9181   7.212   0.137   4.284
 3073TIP3   OH2 9182   6.041   3.851   4.665
 3073TIP3    H1 9183   6.096   3.920   4.627
 3073TIP3    H2 9184   6.067   3.847   4.757
 3074TIP3   OH2 9185   0.501   6.077   0.240
 3074TIP3    H1 9186   0.464   6.165   0.227
 3074TIP3    H2 9187   0.485   6.059   0.333
 3075TIP3   OH2 9188   7.146   2.444   3.718
 3075TIP3    H1 9189   7.145   2.539   3.731
 3075TIP3    H2 9190   7.238   2.420   3.724
 3076TIP3   OH2 9191   2.447   6.639   4.750
 3076TIP3    H1 9192   2.436   6.585   4.672
 3076TIP3    H2 9193   2.538   6.627   4.776
 3077TIP3   OH2 9194   6.121   3.641   1.364
 3077TIP3    H1 9195   6.155   3.568   1.312
 3077TIP3    H2 9196   6.029   3.647   1.338
 3078TIP3   OH2 9197   3.196   2.334   4.826
 3078TIP3    H1 9198   3.200   2.340   4.921
 3078TIP3    H2 9199   3.105   2.354   4.805
 3079TIP3   OH2 9200   1.851   1.337   5.423
 3079TIP3    H1 9201   1.946   1.334   5.438
 3079TIP3    H2 9202   1.832   1.255   5.377
 3080TIP3   OH2 9203   3.015   5.315   5.126
 3080TIP3    H1 9204   2.986   5.256   5.057
 3080TIP3    H2 9205   3.060   5.386   5.080
 3081TIP3   OH2 9206   6.183   0.942   3.977
 3081TIP3    H1 9207   6.249   1.007   3.953
 3081TIP3    H2 9208   6.108   0.994   4.006
 3082TIP3   OH2 9209   4.983   1.308   3.022
 3082TIP3    H1 9210   4.948   1.219   3.023
 3082TIP3    H2 9211   5.078   1.297   3.023
 3083TIP3   OH2 9212   4.685   3.845   2.037
 3083TIP3    H1 9213   4.616   3.809   1.982
 3083TIP3    H2 9214   4.710   3.927   1.994
 3084TIP3   OH2 9215   5.090   5.246   4.642
 3084TIP3    H1 9216   5.022   5.209   4.698
 3084TIP3    H2 9217   5.063   5.223   4.553
 3085TIP3   OH2 9218   4.851   1.618   1.858
 3085TIP3    H1 9219   4.867   1.542   1.802
 3085TIP3    H2 9220   4.760   1.607   1.887
 3086TIP3   OH2 9221   6.110   4.436   4.828
 3086TIP3    H1 9222   6.147   4.524   4.821
 3086TIP3    H2 9223   6.185   4.378   4.814
 3087TIP3   OH2 9224   4.992   5.599   5.357
 3087TIP3    H1 9225   5.058   5.617   5.291
 3087TIP3    H2 9226   4.949   5.684   5.372
 3088TIP3   OH2 9227   3.017   4.987   5.649
 3088TIP3    H1 9228   3.075   4.988   5.573
 3088TIP3    H2 9229   3.063   4.936   5.715
 3089TIP3   OH2 9230   4.936   3.762   2.631
 3089TIP3    H1 9231   4.974   3.676   2.613
 3089TIP3    H2 9232   4.885   3.750   2.710
 3090TIP3   OH2 9233   1.433   4.413   2.193
 3090TIP3    H1 9234   1.436   4.366   2.276
 3090TIP3    H2 9235   1.487   4.361   2.134
 3091TIP3   OH2 9236   4.344   3.230   1.868
 3091TIP3    H1 9237   4.314   3.157   1.922
 3091TIP3    H2 9238   4.436   3.241   1.892
 3092TIP3   OH2 9239   3.770   5.097   3.545
 3092TIP3    H1 9240   3.800   5.138   3.626
 3092TIP3    H2 9241   3.686   5.057   3.569
 3093TIP3   OH2 9242   0.747   1.310   0.400
 3093TIP3    H1 9243   0.668   1.321   0.453
 3093TIP3    H2 9244   0.737   1.372   0.328
 3094TIP3   OH2 9245   0.002   2.188   1.596
 3094TIP3    H1 9246   0.024   2.281   1.585
 3094TIP3    H2 9247   0.085   2.146   1.618
 3095TIP3   OH2 9248   6.053   5.906   0.906
 3095TIP3    H1 9249   6.119   5.863   0.961
 3095TIP3    H2 9250   6.089   5.902   0.818
 3096TIP3   OH2 9251   6.582   5.502   0.410
 3096TIP3    H1 9252   6.503   5.526   0.458
 3096TIP3    H2 9253   6.644   5.573   0.427
 3097TIP3   OH2 9254   0.178   0.425   3.149
 3097TIP3    H1 9255   0.216   0.393   3.067
 3097TIP3    H2 9256   0.093   0.461   3.124
 3098TIP3   OH2 9257   3.683   3.679   3.464
 3098TIP3    H1 9258   3.687   3.686   3.559
 3098TIP3    H2 9259   3.635   3.756   3.436
 3099TIP3   OH2 9260   3.544   6.759   4.923
 3099TIP3    H1 9261   3.559   6.664   4.917
 3099TIP3    H2 9262   3.548   6.778   5.017
 3100TIP3   OH2 9263   0.617   3.462   1.564
 3100TIP3    H1 9264   0.616   3.375   1.526
 3100TIP3    H2 9265   0.526   3.480   1.587
 3101TIP3   OH2 9266   3.897   2.304   3.425
 3101TIP3    H1 9267   3.872   2.230   3.370
 3101TIP3    H2 9268   3.891   2.271   3.515
 3102TIP3   OH2 9269   4.831   2.122   0.279
 3102TIP3    H1 9270   4.739   2.101   0.293
 3102TIP3    H2 9271   4.830   2.191   0.212
 3103TIP3   OH2 9272   2.750   2.693   4.732
 3103TIP3    H1 9273   2.781   2.745   4.806
 3103TIP3    H2 9274   2.707   2.618   4.772
 3104TIP3   OH2 9275   3.323   6.725   2.892
 3104TIP3    H1 9276   3.326   6.802   2.835
 3104TIP3    H2 9277   3.330   6.761   2.981
 3105TIP3   OH2 9278   1.143   6.214   4.391
 3105TIP3    H1 9279   1.232   6.219   4.355
 3105TIP3    H2 9280   1.142   6.278   4.462
 3106TIP3   OH2 9281   3.236   5.942   2.004
 3106TIP3    H1 9282   3.210   5.956   1.913
 3106TIP3    H2 9283   3.312   5.884   1.998
 3107TIP3   OH2 9284   2.582   1.379   1.006
 3107TIP3    H1 9285   2.539   1.418   1.082
 3107TIP3    H2 9286   2.621   1.453   0.960
 3108TIP3   OH2 9287   0.131   3.581   1.338
 3108TIP3    H1 9288   0.104   3.513   1.276
 3108TIP3    H2 9289   0.183   3.642   1.285
 3109TIP3   OH2 9290   1.848   1.726   0.777
 3109TIP3    H1 9291   1.882   1.810   0.747
 3109TIP3    H2 9292   1.803   1.689   0.701
 3110TIP3   OH2 9293   4.982   4.847   2.295
 3110TIP3    H1 9294   5.035   4.897   2.233
 3110TIP3    H2 9295   4.895   4.887   2.291
 3111TIP3   OH2 9296   3.146   2.932   3.167
 3111TIP3    H1 9297   3.241   2.922   3.176
 3111TIP3    H2 9298   3.116   2.954   3.255
 3112TIP3   OH2 9299   2.104   5.837   1.559
 3112TIP3    H1 9300   2.116   5.911   1.499
 3112TIP3    H2 9301   2.066   5.876   1.638
 3113TIP3   OH2 9302   5.682   5.224   4.902
 3113TIP3    H1 9303   5.670   5.148   4.845
 3113TIP3    H2 9304   5.763   5.206   4.950
 3114TIP3   OH2 9305   6.757   2.710   0.068
 3114TIP3    H1 9306   6.742   2.634   0.012
 3114TIP3    H2 9307   6.677   2.716   0.121
 3115TIP3   OH2 9308   6.851   5.205   0.734
 3115TIP3    H1 9309   6.906   5.180   0.808
 3115TIP3    H2 9310   6.908   5.257   0.678
 3116TIP3   OH2 9311   1.684   5.654   3.505
 3116TIP3    H1 9312   1.749   5.710   3.461
 3116TIP3    H2 9313   1.713   5.652   3.596
 3117TIP3   OH2 9314   5.987   3.047   5.470
 3117TIP3    H1 9315   5.896   3.017   5.469
 3117TIP3    H2 9316   6.027   3.004   5.395
 3118TIP3   OH2 9317   4.718   4.012   0.548
 3118TIP3    H1 9318   4.747   3.987   0.460
 3118TIP3    H2 9319   4.626   4.036   0.537
 3119TIP3   OH2 9320   2.122   1.052   1.416
 3119TIP3    H1 9321   2.132   1.131   1.468
 3119TIP3    H2 9322   2.028   1.035   1.416
 3120TIP3   OH2 9323   4.030   2.686   3.214
 3120TIP3    H1 9324   4.013   2.603   3.170
 3120TIP3    H2 9325   3.987   2.678   3.299
 3121TIP3   OH2 9326   3.428   1.291  -0.001
 3121TIP3    H1 9327   3.487   1.364   0.020
 3121TIP3    H2 9328   3.394   1.262   0.084
 3122TIP3   OH2 9329   0.968   5.691   2.513
 3122TIP3    H1 9330   0.952   5.663   2.603
 3122TIP3    H2 9331   0.893   5.746   2.490
 3123TIP3   OH2 9332   3.615   6.147   0.730
 3123TIP3    H1 9333   3.690   6.143   0.789
 3123TIP3    H2 9334   3.584   6.057   0.724
 3124TIP3   OH2 9335   5.552   3.569   3.908
 3124TIP3    H1 9336   5.501   3.633   3.859
 3124TIP3    H2 9337   5.594   3.515   3.840
 3125TIP3   OH2 9338   6.964   0.900   2.633
 3125TIP3    H1 9339   7.037   0.929   2.579
 3125TIP3    H2 9340   6.886   0.931   2.586
 3126TIP3   OH2 9341   1.591   6.299   3.632
 3126TIP3    H1 9342   1.592   6.217   3.682
 3126TIP3    H2 9343   1.641   6.360   3.687
 3127TIP3   OH2 9344   0.608   2.390   4.770
 3127TIP3    H1 9345   0.619   2.299   4.745
 3127TIP3    H2 9346   0.697   2.420   4.791
 3128TIP3   OH2 9347   1.106   6.178   5.056
 3128TIP3    H1 9348   1.136   6.139   4.974
 3128TIP3    H2 9349   1.012   6.159   5.058
 3129TIP3   OH2 9350   6.813   1.836   1.285
 3129TIP3    H1 9351   6.794   1.905   1.349
 3129TIP3    H2 9352   6.825   1.757   1.339
 3130TIP3   OH2 9353   5.233   0.836   5.603
 3130TIP3    H1 9354   5.254   0.759   5.656
 3130TIP3    H2 9355   5.205   0.800   5.519
 3131TIP3   OH2 9356   3.152   5.960   1.381
 3131TIP3    H1 9357   3.225   6.004   1.425
 3131TIP3    H2 9358   3.152   5.997   1.293
 3132TIP3   OH2 9359   6.997   1.426   1.004
 3132TIP3    H1 9360   6.910   1.422   1.044
 3132TIP3    H2 9361   7.056   1.393   1.072
 3133TIP3   OH2 9362   1.054   0.257   5.145
 3133TIP3    H1 9363   1.087   0.229   5.059
 3133TIP3    H2 9364   1.126   0.307   5.183
 3134TIP3   OH2 9365   1.793   2.035   0.132
 3134TIP3    H1 9366   1.708   2.043   0.090
 3134TIP3    H2 9367   1.823   2.125   0.143
 3135TIP3   OH2 9368   6.316   2.816   2.661
 3135TIP3    H1 9369   6.341   2.903   2.629
 3135TIP3    H2 9370   6.269   2.834   2.743
 3136TIP3   OH2 9371   0.754   4.654   3.024
 3136TIP3    H1 9372   0.759   4.565   3.059
 3136TIP3    H2 9373   0.701   4.646   2.945
 3137TIP3   OH2 9374   0.344   4.392   1.265
 3137TIP3    H1 9375   0.432   4.411   1.296
 3137TIP3    H2 9376   0.311   4.327   1.328
 3138TIP3   OH2 9377   6.600   1.214   2.935
 3138TIP3    H1 9378   6.631   1.297   2.971
 3138TIP3    H2 9379   6.589   1.157   3.011
 3139TIP3   OH2 9380   5.167   1.135   0.567
 3139TIP3    H1 9381   5.156   1.230   0.561
 3139TIP3    H2 9382   5.078   1.101   0.574
 3140TIP3   OH2 9383   4.879   5.730   3.001
 3140TIP3    H1 9384   4.845   5.808   2.958
 3140TIP3    H2 9385   4.953   5.702   2.947
 3141TIP3   OH2 9386   2.052   4.133   3.413
 3141TIP3    H1 9387   2.067   4.224   3.436
 3141TIP3    H2 9388   2.072   4.127   3.320
 3142TIP3   OH2 9389   0.618   6.738   1.416
 3142TIP3    H1 9390   0.583   6.807   1.360
 3142TIP3    H2 9391   0.677   6.689   1.359
 3143TIP3   OH2 9392   3.939   1.334   0.864
 3143TIP3    H1 9393   4.007   1.331   0.931
 3143TIP3    H2 9394   3.977   1.385   0.792
 3144TIP3   OH2 9395   5.834   1.617   1.942
 3144TIP3    H1 9396   5.876   1.549   1.890
 3144TIP3    H2 9397   5.744   1.587   1.954
 3145TIP3   OH2 9398   7.065   2.199   3.126
 3145TIP3    H1 9399   7.129   2.235   3.187
 3145TIP3    H2 9400   7.118   2.156   3.059
 3146TIP3   OH2 9401   0.930   3.529   1.206
 3146TIP3    H1 9402   1.020   3.510   1.177
 3146TIP3    H2 9403   0.907   3.454   1.261
 3147TIP3   OH2 9404   0.276   4.990   2.563
 3147TIP3    H1 9405   0.363   5.024   2.541
 3147TIP3    H2 9406   0.242   4.955   2.481
 3148TIP3   OH2 9407   3.024   5.145   4.088
 3148TIP3    H1 9408   3.058   5.107   4.007
 3148TIP3    H2 9409   3.036   5.077   4.154
 3149TIP3   OH2 9410   6.296   3.232   5.175
 3149TIP3    H1 9411   6.307   3.305   5.235
 3149TIP3    H2 9412   6.203   3.211   5.180
 3150TIP3   OH2 9413   1.749   0.147   4.266
 3150TIP3    H1 9414   1.818   0.213   4.260
 3150TIP3    H2 9415   1.759   0.095   4.186
 3151TIP3   OH2 9416   5.391   6.220   0.103
 3151TIP3    H1 9417   5.475   6.199   0.061
 3151TIP3    H2 9418   5.410   6.217   0.197
 3152TIP3   OH2 9419   0.988   5.080   1.090
 3152TIP3    H1 9420   1.027   4.995   1.109
 3152TIP3    H2 9421   0.929   5.096   1.163
 3153TIP3   OH2 9422   0.134   5.850   0.897
 3153TIP3    H1 9423   0.230   5.842   0.898
 3153TIP3    H2 9424   0.115   5.894   0.814
 3154TIP3   OH2 9425   1.471   1.640   0.704
 3154TIP3    H1 9426   1.480   1.693   0.784
 3154TIP3    H2 9427   1.560   1.610   0.685
 3155TIP3   OH2 9428   2.575   0.443   4.608
 3155TIP3    H1 9429   2.623   0.495   4.544
 3155TIP3    H2 9430   2.622   0.459   4.691
 3156TIP3   OH2 9431   1.407   6.266   4.357
 3156TIP3    H1 9432   1.442   6.180   4.335
 3156TIP3    H2 9433   1.425   6.320   4.280
 3157TIP3   OH2 9434   4.757   6.289   4.997
 3157TIP3    H1 9435   4.765   6.379   5.029
 3157TIP3    H2 9436   4.666   6.265   5.016
 3158TIP3   OH2 9437   6.868   2.837   1.603
 3158TIP3    H1 9438   6.792   2.816   1.657
 3158TIP3    H2 9439   6.929   2.765   1.617
 3159TIP3   OH2 9440   0.385   3.435   4.105
 3159TIP3    H1 9441   0.462   3.379   4.094
 3159TIP3    H2 9442   0.327   3.410   4.033
 3160TIP3   OH2 9443   0.519   1.039   2.821
 3160TIP3    H1 9444   0.461   1.088   2.880
 3160TIP3    H2 9445   0.486   1.060   2.733
 3161TIP3   OH2 9446   5.946   5.768   5.770
 3161TIP3    H1 9447   5.870   5.791   5.825
 3161TIP3    H2 9448   5.961   5.675   5.788
 3162TIP3   OH2 9449   5.853   2.320   2.247
 3162TIP3    H1 9450   5.850   2.329   2.151
 3162TIP3    H2 9451   5.847   2.410   2.279
 3163TIP3   OH2 9452   0.947   3.379   4.714
 3163TIP3    H1 9453   0.954   3.292   4.675
 3163TIP3    H2 9454   0.859   3.382   4.750
 3164TIP3   OH2 9455   2.704   2.896   1.075
 3164TIP3    H1 9456   2.717   2.984   1.110
 3164TIP3    H2 9457   2.611   2.878   1.087
 3165TIP3   OH2 9458   6.677   3.944   5.284
 3165TIP3    H1 9459   6.664   3.964   5.377
 3165TIP3    H2 9460   6.720   4.021   5.248
 3166TIP3   OH2 9461   1.370   5.304   2.682
 3166TIP3    H1 9462   1.459   5.273   2.703
 3166TIP3    H2 9463   1.345   5.358   2.756
 3167TIP3   OH2 9464   2.825   0.675   2.070
 3167TIP3    H1 9465   2.763   0.662   1.998
 3167TIP3    H2 9466   2.849   0.586   2.097
 3168TIP3   OH2 9467   3.953   2.717   0.784
 3168TIP3    H1 9468   3.935   2.674   0.700
 3168TIP3    H2 9469   3.869   2.713   0.831
 3169TIP3   OH2 9470   4.975   4.485   0.508
 3169TIP3    H1 9471   4.955   4.558   0.567
 3169TIP3    H2 9472   4.919   4.499   0.432
 3170TIP3   OH2 9473   6.140   3.127   1.576
 3170TIP3    H1 9474   6.135   3.206   1.629
 3170TIP3    H2 9475   6.228   3.094   1.591
 3171TIP3   OH2 9476   1.358   1.750   1.340
 3171TIP3    H1 9477   1.294   1.805   1.295
 3171TIP3    H2 9478   1.427   1.810   1.366
 3172TIP3   OH2 9479   2.468   2.599   4.710
 3172TIP3    H1 9480   2.392   2.585   4.767
 3172TIP3    H2 9481   2.477   2.694   4.705
 3173TIP3   OH2 9482   4.263   2.467   0.671
 3173TIP3    H1 9483   4.209   2.423   0.605
 3173TIP3    H2 9484   4.336   2.504   0.621
 3174TIP3   OH2 9485   3.472   2.069   3.929
 3174TIP3    H1 9486   3.531   2.082   3.855
 3174TIP3    H2 9487   3.450   1.975   3.926
 3175TIP3   OH2 9488   7.034   4.523   2.722
 3175TIP3    H1 9489   6.987   4.556   2.798
 3175TIP3    H2 9490   7.061   4.602   2.675
 3176TIP3   OH2 9491   6.468   0.860   5.229
 3176TIP3    H1 9492   6.490   0.838   5.138
 3176TIP3    H2 9493   6.377   0.890   5.224
 3177TIP3   OH2 9494   1.765   6.665   1.299
 3177TIP3    H1 9495   1.859   6.659   1.310
 3177TIP3    H2 9496   1.731   6.585   1.338
 3178TIP3   OH2 9497   3.650   3.983   0.459
 3178TIP3    H1 9498   3.663   3.901   0.506
 3178TIP3    H2 9499   3.685   3.966   0.372
 3179TIP3   OH2 9500   0.522   3.756   1.023
 3179TIP3    H1 9501   0.613   3.727   1.035
 3179TIP3    H2 9502   0.528   3.851   1.016
 3180TIP3   OH2 9503   3.136   4.062   4.044
 3180TIP3    H1 9504   3.122   4.147   4.088
 3180TIP3    H2 9505   3.065   4.056   3.980
 3181TIP3   OH2 9506   4.715   2.199   3.836
 3181TIP3    H1 9507   4.789   2.232   3.887
 3181TIP3    H2 9508   4.750   2.125   3.787
 3182TIP3   OH2 9509   4.492   5.045   3.150
 3182TIP3    H1 9510   4.576   5.030   3.108
 3182TIP3    H2 9511   4.514   5.085   3.234
 3183TIP3   OH2 9512   3.472   6.253   1.062
 3183TIP3    H1 9513   3.378   6.251   1.044
 3183TIP3    H2 9514   3.502   6.337   1.027
 3184TIP3   OH2 9515   2.035   4.454   0.348
 3184TIP3    H1 9516   2.023   4.417   0.261
 3184TIP3    H2 9517   2.126   4.435   0.370
 3185TIP3   OH2 9518   7.222   5.299   4.452
 3185TIP3    H1 9519   7.171   5.277   4.374
 3185TIP3    H2 9520   7.158   5.319   4.519
 3186TIP3   OH2 9521   2.598   3.019   5.100
 3186TIP3    H1 9522   2.544   3.097   5.098
 3186TIP3    H2 9523   2.589   2.985   5.189
 3187TIP3   OH2 9524   0.183   5.706   2.380
 3187TIP3    H1 9525   0.274   5.677   2.371
 3187TIP3    H2 9526   0.134   5.649   2.320
 3188TIP3   OH2 9527   1.356   1.483   5.859
 3188TIP3    H1 9528   1.316   1.517   5.939
 3188TIP3    H2 9529   1.292   1.504   5.790
 3189TIP3   OH2 9530   0.329   6.299   3.811
 3189TIP3    H1 9531   0.390   6.286   3.739
 3189TIP3    H2 9532   0.251   6.337   3.770
 3190TIP3   OH2 9533   2.453   0.658   0.064
 3190TIP3    H1 9534   2.491   0.652   0.152
 3190TIP3    H2 9535   2.411   0.744   0.062
 3191TIP3   OH2 9536   2.839   0.868   1.454
 3191TIP3    H1 9537   2.767   0.855   1.515
 3191TIP3    H2 9538   2.811   0.943   1.400
 3192TIP3   OH2 9539   3.118   1.611   5.063
 3192TIP3    H1 9540   3.094   1.682   5.122
 3192TIP3    H2 9541   3.174   1.555   5.115
 3193TIP3   OH2 9542   4.069   2.745   4.743
 3193TIP3    H1 9543   3.973   2.739   4.744
 3193TIP3    H2 9544   4.091   2.769   4.653
 3194TIP3   OH2 9545   3.365   2.565   0.874
 3194TIP3    H1 9546   3.342   2.655   0.899
 3194TIP3    H2 9547   3.454   2.571   0.841
 3195TIP3   OH2 9548   5.235   4.966   3.605
 3195TIP3    H1 9549   5.160   4.965   3.545
 3195TIP3    H2 9550   5.272   4.878   3.599
 3196TIP3   OH2 9551   0.025   6.586   3.576
 3196TIP3    H1 9552   0.116   6.573   3.549
 3196TIP3    H2 9553  -0.025   6.524   3.522
 3197TIP3   OH2 9554   7.132   1.430   5.481
 3197TIP3    H1 9555   7.144   1.515   5.524
 3197TIP3    H2 9556   7.077   1.449   5.405
 3198TIP3   OH2 9557   5.463   0.894   5.475
 3198TIP3    H1 9558   5.386   0.935   5.517
 3198TIP3    H2 9559   5.426   0.824   5.421
 3199TIP3   OH2 9560   5.811   2.578   4.389
 3199TIP3    H1 9561   5.803   2.587   4.484
 3199TIP3    H2 9562   5.900   2.548   4.374
 3200TIP3   OH2 9563   2.554   2.377   1.936
 3200TIP3    H1 9564   2.612   2.302   1.920
 3200TIP3    H2 9565   2.487   2.370   1.868
 3201TIP3   OH2 9566   0.441   6.595   0.023
 3201TIP3    H1 9567   0.511   6.657   0.044
 3201TIP3    H2 9568   0.411   6.621  -0.064
 3202TIP3   OH2 9569   2.265   2.225   5.116
 3202TIP3    H1 9570   2.352   2.231   5.077
 3202TIP3    H2 9571   2.252   2.132   5.134
 3203TIP3   OH2 9572   1.187   2.371   3.364
 3203TIP3    H1 9573   1.231   2.288   3.384
 3203TIP3    H2 9574   1.129   2.386   3.439
 3204TIP3   OH2 9575   1.037   6.324   4.618
 3204TIP3    H1 9576   1.052   6.385   4.690
 3204TIP3    H2 9577   0.954   6.282   4.639
 3205TIP3   OH2 9578   1.208   1.947   1.909
 3205TIP3    H1 9579   1.142   1.976   1.973
 3205TIP3    H2 9580   1.163   1.880   1.858
 3206TIP3   OH2 9581   1.973   3.091   4.931
 3206TIP3    H1 9582   2.051   3.040   4.954
 3206TIP3    H2 9583   1.977   3.169   4.987
 3207TIP3   OH2 9584   0.877   0.714   0.486
 3207TIP3    H1 9585   0.922   0.761   0.416
 3207TIP3    H2 9586   0.891   0.622   0.466
 3208TIP3   OH2 9587   6.002   1.809   5.685
 3208TIP3    H1 9588   5.972   1.775   5.769
 3208TIP3    H2 9589   5.928   1.796   5.625
 3209TIP3   OH2 9590   5.997   0.727   0.238
 3209TIP3    H1 9591   6.087   0.713   0.208
 3209TIP3    H2 9592   6.007   0.760   0.328
 3210TIP3   OH2 9593   2.142   6.095   0.591
 3210TIP3    H1 9594   2.148   6.026   0.658
 3210TIP3    H2 9595   2.109   6.050   0.513
 3211TIP3   OH2 9596   1.516   2.154   5.606
 3211TIP3    H1 9597   1.499   2.247   5.597
 3211TIP3    H2 9598   1.467   2.113   5.535
 3212TIP3   OH2 9599   2.104   6.071   3.123
 3212TIP3    H1 9600   2.084   6.069   3.029
 3212TIP3    H2 9601   2.028   6.113   3.162
 3213TIP3   OH2 9602   2.266   4.952   0.950
 3213TIP3    H1 9603   2.308   4.979   0.869
 3213TIP3    H2 9604   2.331   4.898   0.995
 3214TIP3   OH2 9605   6.483   1.633   4.197
 3214TIP3    H1 9606   6.449   1.556   4.151
 3214TIP3    H2 9607   6.570   1.646   4.160
 3215TIP3   OH2 9608   3.130   5.882   0.659
 3215TIP3    H1 9609   3.055   5.885   0.600
 3215TIP3    H2 9610   3.198   5.837   0.609
 3216TIP3   OH2 9611   6.099   1.923   4.176
 3216TIP3    H1 9612   6.136   1.901   4.091
 3216TIP3    H2 9613   6.134   2.009   4.197
 3217TIP3   OH2 9614   3.774   2.182   1.248
 3217TIP3    H1 9615   3.833   2.123   1.201
 3217TIP3    H2 9616   3.779   2.265   1.200
 3218TIP3   OH2 9617   3.673   3.440   0.568
 3218TIP3    H1 9618   3.578   3.442   0.567
 3218TIP3    H2 9619   3.696   3.387   0.492
 3219TIP3   OH2 9620   1.538   5.115   3.518
 3219TIP3    H1 9621   1.627   5.117   3.554
 3219TIP3    H2 9622   1.510   5.206   3.517
 3220TIP3   OH2 9623   0.704   2.638   3.926
 3220TIP3    H1 9624   0.722   2.724   3.889
 3220TIP3    H2 9625   0.699   2.580   3.849
 3221TIP3   OH2 9626   4.231   5.894   3.874
 3221TIP3    H1 9627   4.225   5.852   3.960
 3221TIP3    H2 9628   4.240   5.987   3.893
 3222TIP3   OH2 9629   5.435   6.025   0.993
 3222TIP3    H1 9630   5.509   6.031   1.053
 3222TIP3    H2 9631   5.473   6.035   0.906
 3223TIP3   OH2 9632   2.008   3.311   2.427
 3223TIP3    H1 9633   1.932   3.263   2.395
 3223TIP3    H2 9634   2.031   3.267   2.509
 3224TIP3   OH2 9635   5.057   4.759   4.122
 3224TIP3    H1 9636   5.115   4.822   4.163
 3224TIP3    H2 9637   4.988   4.745   4.186
 3225TIP3   OH2 9638   0.695   4.723   4.323
 3225TIP3    H1 9639   0.738   4.642   4.353
 3225TIP3    H2 9640   0.730   4.737   4.236
 3226TIP3   OH2 9641   3.758   5.078   0.823
 3226TIP3    H1 9642   3.751   5.045   0.913
 3226TIP3    H2 9643   3.839   5.040   0.790
 3227TIP3   OH2 9644   2.342   2.684   0.706
 3227TIP3    H1 9645   2.268   2.729   0.746
 3227TIP3    H2 9646   2.364   2.738   0.629
 3228TIP3   OH2 9647   5.162   5.544   3.170
 3228TIP3    H1 9648   5.189   5.570   3.082
 3228TIP3    H2 9649   5.104   5.469   3.156
 3229TIP3   OH2 9650   4.163   6.560   1.001
 3229TIP3    H1 9651   4.237   6.620   1.008
 3229TIP3    H2 9652   4.203   6.473   0.994
 3230TIP3   OH2 9653   6.901   4.943   1.493
 3230TIP3    H1 9654   6.930   5.034   1.504
 3230TIP3    H2 9655   6.922   4.923   1.401
 3231TIP3   OH2 9656   4.861   0.719   5.624
 3231TIP3    H1 9657   4.805   0.651   5.663
 3231TIP3    H2 9658   4.921   0.744   5.695
 3232TIP3   OH2 9659   6.435   0.772   0.656
 3232TIP3    H1 9660   6.382   0.817   0.590
 3232TIP3    H2 9661   6.418   0.819   0.737
 3233TIP3   OH2 9662   4.504   6.768   4.039
 3233TIP3    H1 9663   4.487   6.775   4.133
 3233TIP3    H2 9664   4.486   6.856   4.005
 3234TIP3   OH2 9665   3.139   1.284   1.812
 3234TIP3    H1 9666   3.054   1.290   1.769
 3234TIP3    H2 9667   3.172   1.374   1.816
 3235TIP3   OH2 9668   4.081   0.808   4.504
 3235TIP3    H1 9669   3.992   0.827   4.474
 3235TIP3    H2 9670   4.075   0.724   4.549
 3236TIP3   OH2 9671   1.106   3.560   4.888
 3236TIP3    H1 9672   1.056   3.580   4.966
 3236TIP3    H2 9673   1.095   3.466   4.875
 3237TIP3   OH2 9674   2.898   5.266   1.816
 3237TIP3    H1 9675   2.992   5.262   1.798
 3237TIP3    H2 9676   2.856   5.248   1.732
 3238TIP3   OH2 9677   2.915   5.198   5.365
 3238TIP3    H1 9678   2.974   5.202   5.291
 3238TIP3    H2 9679   2.939   5.274   5.419
 3239TIP3   OH2 9680   2.153   2.764   2.567
 3239TIP3    H1 9681   2.096   2.691   2.591
 3239TIP3    H2 9682   2.197   2.735   2.487
 3240TIP3   OH2 9683   3.370   4.061   0.357
 3240TIP3    H1 9684   3.414   3.996   0.412
 3240TIP3    H2 9685   3.305   4.010   0.308
 3241TIP3   OH2 9686   2.826   5.847   5.884
 3241TIP3    H1 9687   2.827   5.861   5.789
 3241TIP3    H2 9688   2.749   5.896   5.914
 3242TIP3   OH2 9689   0.131   4.599   4.316
 3242TIP3    H1 9690   0.088   4.523   4.277
 3242TIP3    H2 9691   0.207   4.617   4.260
 3243TIP3   OH2 9692   0.664   3.219   0.583
 3243TIP3    H1 9693   0.587   3.242   0.530
 3243TIP3    H2 9694   0.695   3.303   0.618
 3244TIP3   OH2 9695   2.196   5.811   0.548
 3244TIP3    H1 9696   2.271   5.830   0.492
 3244TIP3    H2 9697   2.228   5.747   0.611
 3245TIP3   OH2 9698   4.141   5.612   4.279
 3245TIP3    H1 9699   4.081   5.664   4.332
 3245TIP3    H2 9700   4.185   5.676   4.222
 3246TIP3   OH2 9701   3.590   5.246   3.412
 3246TIP3    H1 9702   3.672   5.201   3.432
 3246TIP3    H2 9703   3.522   5.179   3.422
 3247TIP3   OH2 9704   2.187   4.509   1.305
 3247TIP3    H1 9705   2.208   4.577   1.370
 3247TIP3    H2 9706   2.270   4.467   1.286
 3248TIP3   OH2 9707   6.637   1.226   1.576
 3248TIP3    H1 9708   6.661   1.147   1.529
 3248TIP3    H2 9709   6.595   1.282   1.510
 3249TIP3   OH2 9710   4.128   3.905   1.515
 3249TIP3    H1 9711   4.110   3.831   1.456
 3249TIP3    H2 9712   4.219   3.928   1.497
 3250TIP3   OH2 9713   7.121   4.080   3.588
 3250TIP3    H1 9714   7.189   4.015   3.574
 3250TIP3    H2 9715   7.101   4.076   3.681
 3251TIP3   OH2 9716   4.750   6.041   5.616
 3251TIP3    H1 9717   4.782   6.113   5.561
 3251TIP3    H2 9718   4.655   6.051   5.615
 3252TIP3   OH2 9719   5.554   2.168   0.099
 3252TIP3    H1 9720   5.526   2.102   0.035
 3252TIP3    H2 9721   5.622   2.124   0.150
 3253TIP3   OH2 9722   6.620   5.481   4.217
 3253TIP3    H1 9723   6.613   5.387   4.202
 3253TIP3    H2 9724   6.706   5.493   4.258
 3254TIP3   OH2 9725   3.888   5.412   2.591
 3254TIP3    H1 9726   3.799   5.376   2.598
 3254TIP3    H2 9727   3.878   5.505   2.609
 3255TIP3   OH2 9728   4.817   2.895   5.362
 3255TIP3    H1 9729   4.742   2.846   5.329
 3255TIP3    H2 9730   4.834   2.858   5.448
 3256TIP3   OH2 9731   5.810   5.105   2.543
 3256TIP3    H1 9732   5.857   5.030   2.507
 3256TIP3    H2 9733   5.840   5.179   2.490
 3257TIP3   OH2 9734   1.079   6.420   4.888
 3257TIP3    H1 9735   0.999   6.379   4.922
 3257TIP3    H2 9736   1.149   6.386   4.944
 3258TIP3   OH2 9737   3.615   3.855   1.922
 3258TIP3    H1 9738   3.681   3.838   1.990
 3258TIP3    H2 9739   3.601   3.769   1.882
 3259TIP3   OH2 9740   3.750   0.559   3.210
 3259TIP3    H1 9741   3.771   0.615   3.135
 3259TIP3    H2 9742   3.772   0.471   3.181
 3260TIP3   OH2 9743   2.501   0.861   5.835
 3260TIP3    H1 9744   2.595   0.878   5.834
 3260TIP3    H2 9745   2.483   0.828   5.923
 3261TIP3   OH2 9746   5.911   6.177   2.164
 3261TIP3    H1 9747   5.949   6.090   2.177
 3261TIP3    H2 9748   5.823   6.160   2.130
 3262TIP3   OH2 9749   0.091   5.264   5.087
 3262TIP3    H1 9750   0.086   5.242   5.180
 3262TIP3    H2 9751   0.102   5.180   5.042
 3263TIP3   OH2 9752   2.992   0.845   2.180
 3263TIP3    H1 9753   2.932   0.875   2.249
 3263TIP3    H2 9754   2.947   0.769   2.141
 3264TIP3   OH2 9755   3.745   4.731   4.046
 3264TIP3    H1 9756   3.692   4.799   4.004
 3264TIP3    H2 9757   3.714   4.649   4.007
 3265TIP3   OH2 9758   4.712   5.491   4.309
 3265TIP3    H1 9759   4.662   5.411   4.297
 3265TIP3    H2 9760   4.725   5.498   4.404
 3266TIP3   OH2 9761   2.073   2.088   4.268
 3266TIP3    H1 9762   2.121   2.020   4.315
 3266TIP3    H2 9763   2.128   2.111   4.194
 3267TIP3   OH2 9764   1.977   6.528   4.903
 3267TIP3    H1 9765   2.016   6.614   4.918
 3267TIP3    H2 9766   2.010   6.473   4.974
 3268TIP3   OH2 9767   6.014   0.119   1.344
 3268TIP3    H1 9768   6.031   0.131   1.437
 3268TIP3    H2 9769   6.038   0.028   1.326
 3269TIP3   OH2 9770   4.416   3.658   0.558
 3269TIP3    H1 9771   4.357   3.708   0.614
 3269TIP3    H2 9772   4.504   3.683   0.585
 3270TIP3   OH2 9773   0.650   0.826   1.095
 3270TIP3    H1 9774   0.597   0.905   1.086
 3270TIP3    H2 9775   0.740   0.856   1.081
 3271TIP3   OH2 9776   4.728   5.968   2.140
 3271TIP3    H1 9777   4.656   6.021   2.104
 3271TIP3    H2 9778   4.753   5.909   2.069
 3272TIP3   OH2 9779   6.347   0.106   4.521
 3272TIP3    H1 9780   6.266   0.140   4.560
 3272TIP3    H2 9781   6.324   0.017   4.493
 3273TIP3   OH2 9782   6.817   5.508   5.579
 3273TIP3    H1 9783   6.821   5.415   5.558
 3273TIP3    H2 9784   6.902   5.542   5.552
 3274TIP3   OH2 9785   5.969   4.949   0.016
 3274TIP3    H1 9786   5.921   5.012   0.070
 3274TIP3    H2 9787   6.043   4.998  -0.020
 3275TIP3   OH2 9788   4.481   3.120   4.987
 3275TIP3    H1 9789   4.519   3.116   5.074
 3275TIP3    H2 9790   4.436   3.205   4.983
 3276TIP3   OH2 9791   5.930   0.838   2.966
 3276TIP3    H1 9792   5.835   0.835   2.968
 3276TIP3    H2 9793   5.953   0.921   3.008
 3277TIP3   OH2 9794   0.636   2.372   1.226
 3277TIP3    H1 9795   0.697   2.386   1.299
 3277TIP3    H2 9796   0.652   2.281   1.199
 3278TIP3   OH2 9797   5.670   4.356   0.211
 3278TIP3    H1 9798   5.733   4.315   0.270
 3278TIP3    H2 9799   5.709   4.441   0.190
 3279TIP3   OH2 9800   1.648   0.689   2.937
 3279TIP3    H1 9801   1.639   0.779   2.903
 3279TIP3    H2 9802   1.594   0.688   3.016
 3280TIP3   OH2 9803   6.214   3.162   0.909
 3280TIP3    H1 9804   6.150   3.133   0.975
 3280TIP3    H2 9805   6.262   3.233   0.952
 3281TIP3   OH2 9806   5.587   5.174   2.702
 3281TIP3    H1 9807   5.548   5.106   2.756
 3281TIP3    H2 9808   5.645   5.127   2.642
 3282TIP3   OH2 9809   1.061   4.243   2.212
 3282TIP3    H1 9810   0.974   4.207   2.193
 3282TIP3    H2 9811   1.045   4.337   2.226
 3283TIP3   OH2 9812   6.227   5.434   5.220
 3283TIP3    H1 9813   6.156   5.498   5.214
 3283TIP3    H2 9814   6.289   5.460   5.152
 3284TIP3   OH2 9815   3.231   4.492   4.253
 3284TIP3    H1 9816   3.210   4.584   4.235
 3284TIP3    H2 9817   3.322   4.482   4.225
 3285TIP3   OH2 9818   2.199   1.786   0.806
 3285TIP3    H1 9819   2.218   1.878   0.790
 3285TIP3    H2 9820   2.268   1.739   0.759
 3286TIP3   OH2 9821   1.995   3.769   2.958
 3286TIP3    H1 9822   2.084   3.759   2.924
 3286TIP3    H2 9823   2.005   3.761   3.053
 3287TIP3   OH2 9824   7.109   6.567   0.933
 3287TIP3    H1 9825   7.194   6.545   0.971
 3287TIP3    H2 9826   7.062   6.484   0.929
 3288TIP3   OH2 9827   0.214   1.953   0.716
 3288TIP3    H1 9828   0.192   1.866   0.685
 3288TIP3    H2 9829   0.154   2.011   0.668
 3289TIP3   OH2 9830   3.376   4.344   4.611
 3289TIP3    H1 9831   3.425   4.400   4.671
 3289TIP3    H2 9832   3.432   4.338   4.533
 3290TIP3   OH2 9833   0.315   1.210   3.360
 3290TIP3    H1 9834   0.221   1.207   3.342
 3290TIP3    H2 9835   0.338   1.302   3.347
 3291TIP3   OH2 9836   3.198   4.138   5.618
 3291TIP3    H1 9837   3.126   4.178   5.570
 3291TIP3    H2 9838   3.246   4.212   5.655
 3292TIP3   OH2 9839   5.784   1.275   3.920
 3292TIP3    H1 9840   5.763   1.181   3.923
 3292TIP3    H2 9841   5.826   1.292   4.004
 3293TIP3   OH2 9842   6.403   6.209   5.838
 3293TIP3    H1 9843   6.367   6.225   5.751
 3293TIP3    H2 9844   6.454   6.288   5.858
 3294TIP3   OH2 9845   1.015   0.649   3.818
 3294TIP3    H1 9846   1.007   0.703   3.896
 3294TIP3    H2 9847   1.089   0.686   3.770
 3295TIP3   OH2 9848   0.455   3.537   2.566
 3295TIP3    H1 9849   0.517   3.610   2.563
 3295TIP3    H2 9850   0.375   3.571   2.527
 3296TIP3   OH2 9851   3.975   0.751   2.659
 3296TIP3    H1 9852   3.911   0.702   2.609
 3296TIP3    H2 9853   3.981   0.835   2.614
 3297TIP3   OH2 9854   4.281   5.093   2.994
 3297TIP3    H1 9855   4.361   5.066   3.039
 3297TIP3    H2 9856   4.306   5.097   2.902
 3298TIP3   OH2 9857   1.069   2.594   0.167
 3298TIP3    H1 9858   0.991   2.553   0.204
 3298TIP3    H2 9859   1.099   2.533   0.100
 3299TIP3   OH2 9860   1.557   0.834   1.051
 3299TIP3    H1 9861   1.495   0.867   1.116
 3299TIP3    H2 9862   1.557   0.739   1.065
 3300TIP3   OH2 9863   2.650   2.793   5.552
 3300TIP3    H1 9864   2.573   2.811   5.499
 3300TIP3    H2 9865   2.710   2.865   5.532
 3301TIP3   OH2 9866   6.573   1.265   4.233
 3301TIP3    H1 9867   6.650   1.319   4.217
 3301TIP3    H2 9868   6.524   1.268   4.150
 3302TIP3   OH2 9869   3.156   6.512   4.364
 3302TIP3    H1 9870   3.146   6.425   4.326
 3302TIP3    H2 9871   3.140   6.499   4.457
 3303TIP3   OH2 9872   4.153   0.312   1.565
 3303TIP3    H1 9873   4.136   0.247   1.496
 3303TIP3    H2 9874   4.201   0.382   1.521
 3304TIP3   OH2 9875   0.531   0.134  -0.024
 3304TIP3    H1 9876   0.569   0.133   0.064
 3304TIP3    H2 9877   0.437   0.121  -0.009
 3305TIP3   OH2 9878   4.680   5.618   3.649
 3305TIP3    H1 9879   4.697   5.669   3.728
 3305TIP3    H2 9880   4.763   5.621   3.600
 3306TIP3   OH2 9881   2.124   2.670   0.469
 3306TIP3    H1 9882   2.183   2.712   0.406
 3306TIP3    H2 9883   2.139   2.717   0.551
 3307TIP3   OH2 9884   1.249   3.821   0.709
 3307TIP3    H1 9885   1.292   3.860   0.784
 3307TIP3    H2 9886   1.321   3.795   0.651
 3308TIP3   OH2 9887   0.075   5.319   3.499
 3308TIP3    H1 9888   0.039   5.273   3.423
 3308TIP3    H2 9889   0.118   5.396   3.462
 3309TIP3   OH2 9890   6.623   0.781   1.772
 3309TIP3    H1 9891   6.710   0.816   1.756
 3309TIP3    H2 9892   6.597   0.820   1.856
 3310TIP3   OH2 9893   6.867   5.004   0.567
 3310TIP3    H1 9894   6.813   5.012   0.489
 3310TIP3    H2 9895   6.827   5.063   0.631
 3311TIP3   OH2 9896   6.242   5.658   4.525
 3311TIP3    H1 9897   6.167   5.606   4.557
 3311TIP3    H2 9898   6.293   5.596   4.472
 3312TIP3   OH2 9899   2.346   0.907   3.870
 3312TIP3    H1 9900   2.434   0.869   3.862
 3312TIP3    H2 9901   2.355   0.976   3.935
 3313TIP3   OH2 9902   5.104   0.833   1.424
 3313TIP3    H1 9903   5.055   0.751   1.430
 3313TIP3    H2 9904   5.039   0.898   1.396
 3314TIP3   OH2 9905   6.070   4.578   0.808
 3314TIP3    H1 9906   6.068   4.669   0.778
 3314TIP3    H2 9907   5.991   4.569   0.861
 3315TIP3   OH2 9908   1.032   5.241   0.496
 3315TIP3    H1 9909   1.062   5.153   0.518
 3315TIP3    H2 9910   0.944   5.247   0.534
 3316TIP3   OH2 9911   4.930   5.137   1.423
 3316TIP3    H1 9912   4.892   5.111   1.339
 3316TIP3    H2 9913   4.963   5.226   1.409
 3317TIP3   OH2 9914   1.673   1.122   2.598
 3317TIP3    H1 9915   1.747   1.173   2.563
 3317TIP3    H2 9916   1.598   1.151   2.547
 3318TIP3   OH2 9917   2.382   0.950   1.394
 3318TIP3    H1 9918   2.307   1.009   1.404
 3318TIP3    H2 9919   2.345   0.868   1.362
 3319TIP3   OH2 9920   6.338   0.108   4.874
 3319TIP3    H1 9921   6.278   0.062   4.816
 3319TIP3    H2 9922   6.423   0.068   4.859
 3320TIP3   OH2 9923   6.834   4.203   0.141
 3320TIP3    H1 9924   6.787   4.165   0.067
 3320TIP3    H2 9925   6.889   4.271   0.103
 3321TIP3   OH2 9926   5.960   4.221   2.661
 3321TIP3    H1 9927   5.882   4.228   2.606
 3321TIP3    H2 9928   5.931   4.246   2.748
 3322TIP3   OH2 9929   1.807   6.765   1.644
 3322TIP3    H1 9930   1.778   6.723   1.563
 3322TIP3    H2 9931   1.813   6.692   1.706
 3323TIP3   OH2 9932   7.008   3.864   5.298
 3323TIP3    H1 9933   7.023   3.894   5.387
 3323TIP3    H2 9934   6.981   3.943   5.251
 3324TIP3   OH2 9935   6.221   2.604   5.200
 3324TIP3    H1 9936   6.136   2.609   5.244
 3324TIP3    H2 9937   6.236   2.693   5.168
 3325TIP3   OH2 9938   5.309   5.406   1.905
 3325TIP3    H1 9939   5.332   5.456   1.983
 3325TIP3    H2 9940   5.359   5.325   1.913
 3326TIP3   OH2 9941   3.592   5.918   3.890
 3326TIP3    H1 9942   3.525   5.986   3.881
 3326TIP3    H2 9943   3.665   5.948   3.836
 3327TIP3   OH2 9944   3.371   2.039   0.626
 3327TIP3    H1 9945   3.351   2.113   0.684
 3327TIP3    H2 9946   3.466   2.037   0.621
 3328TIP3   OH2 9947   3.834   6.788   3.821
 3328TIP3    H1 9948   3.750   6.784   3.866
 3328TIP3    H2 9949   3.875   6.704   3.838
 3329TIP3   OH2 9950   3.100   1.020   3.731
 3329TIP3    H1 9951   3.037   0.973   3.786
 3329TIP3    H2 9952   3.107   0.966   3.652
 3330TIP3   OH2 9953   2.819   2.887   4.962
 3330TIP3    H1 9954   2.740   2.917   5.007
 3330TIP3    H2 9955   2.888   2.944   4.995
 3331TIP3   OH2 9956   5.218   3.541   2.482
 3331TIP3    H1 9957   5.202   3.523   2.389
 3331TIP3    H2 9958   5.131   3.535   2.522
 3332TIP3   OH2 9959   0.324   5.468   3.662
 3332TIP3    H1 9960   0.420   5.471   3.668
 3332TIP3    H2 9961   0.307   5.387   3.613
 3333TIP3   OH2 9962   0.060   4.184   1.898
 3333TIP3    H1 9963   0.109   4.264   1.913
 3333TIP3    H2 9964   0.005   4.203   1.822
 3334TIP3   OH2 9965   6.040   5.004   5.262
 3334TIP3    H1 9966   6.104   4.945   5.223
 3334TIP3    H2 9967   5.964   4.949   5.281
 3335TIP3   OH2 9968   0.509   3.036   2.178
 3335TIP3    H1 9969   0.599   3.059   2.154
 3335TIP3    H2 9970   0.498   3.074   2.265
 3336TIP3   OH2 9971   3.328   3.346   4.778
 3336TIP3    H1 9972   3.371   3.323   4.695
 3336TIP3    H2 9973   3.386   3.311   4.846
 3337TIP3   OH2 9974   1.789   4.153   5.562
 3337TIP3    H1 9975   1.769   4.097   5.637
 3337TIP3    H2 9976   1.884   4.143   5.549
 3338TIP3   OH2 9977   0.843   5.609   0.215
 3338TIP3    H1 9978   0.884   5.659   0.285
 3338TIP3    H2 9979   0.884   5.523   0.219
 3339TIP3   OH2 9980   2.437   6.351   4.038
 3339TIP3    H1 9981   2.372   6.397   3.985
 3339TIP3    H2 9982   2.445   6.265   3.998
 3340TIP3   OH2 9983   5.297   4.030   5.258
 3340TIP3    H1 9984   5.387   4.062   5.257
 3340TIP3    H2 9985   5.263   4.058   5.343
 3341TIP3   OH2 9986   4.563   3.042   1.041
 3341TIP3    H1 9987   4.627   3.074   1.104
 3341TIP3    H2 9988   4.572   3.102   0.966
 3342TIP3   OH2 9989   0.512   0.923   5.559
 3342TIP3    H1 9990   0.475   0.924   5.471
 3342TIP3    H2 9991   0.605   0.903   5.546
 3343TIP3   OH2 9992   3.473   1.479   3.580
 3343TIP3    H1 9993   3.433   1.396   3.605
 3343TIP3    H2 9994   3.567   1.460   3.574
 3344TIP3   OH2 9995   0.406   0.682   0.123
 3344TIP3    H1 9996   0.421   0.740   0.048
 3344TIP3    H2 9997   0.479   0.699   0.182
 3345TIP3   OH2 9998   6.414   0.402   1.902
 3345TIP3    H1 9999   6.432   0.490   1.935
 3345TIP3    H210000   6.479   0.389   1.833
 3346TIP3   OH210001   6.179   4.205   4.565
 3346TIP3    H110002   6.233   4.126   4.563
 3346TIP3    H210003   6.190   4.244   4.479
 3347TIP3   OH210004   1.865   4.645   1.544
 3347TIP3    H110005   1.929   4.716   1.538
 3347TIP3    H210006   1.783   4.685   1.515
 3348TIP3   OH210007   2.607   6.489   3.745
 3348TIP3    H110008   2.549   6.464   3.673
 3348TIP3    H210009   2.648   6.407   3.773
 3349TIP3   OH210010   3.746   5.069   5.144
 3349TIP3    H110011   3.800   5.028   5.076
 3349TIP3    H210012   3.794   5.149   5.167
 3350TIP3   OH210013   0.704   2.138   4.647
 3350TIP3    H110014   0.747   2.093   4.574
 3350TIP3    H210015   0.771   2.141   4.715
 3351TIP3   OH210016   6.006   2.137   2.561
 3351TIP3    H110017   5.979   2.206   2.621
 3351TIP3    H210018   6.036   2.066   2.618
 3352TIP3   OH210019   7.080   5.857   1.293
 3352TIP3    H110020   7.108   5.776   1.251
 3352TIP3    H210021   7.161   5.899   1.321
 3353TIP3   OH210022   7.136   1.456   4.374
 3353TIP3    H110023   7.153   1.495   4.288
 3353TIP3    H210024   7.085   1.378   4.355
 3354TIP3   OH210025   7.115   4.025   3.142
 3354TIP3    H110026   7.188   4.077   3.110
 3354TIP3    H210027   7.156   3.960   3.200
 3355TIP3   OH210028   2.699   3.107   1.781
 3355TIP3    H110029   2.731   3.117   1.871
 3355TIP3    H210030   2.653   3.189   1.762
 3356TIP3   OH210031   5.532   0.384   1.178
 3356TIP3    H110032   5.623   0.415   1.179
 3356TIP3    H210033   5.520   0.351   1.089
 3357TIP3   OH210034   5.977   0.432   1.503
 3357TIP3    H110035   5.958   0.396   1.590
 3357TIP3    H210036   5.910   0.499   1.489
 3358TIP3   OH210037   3.946   3.896   2.916
 3358TIP3    H110038   4.010   3.936   2.858
 3358TIP3    H210039   3.880   3.964   2.930
 3359TIP3   OH210040   6.406   3.505   3.156
 3359TIP3    H110041   6.453   3.467   3.082
 3359TIP3    H210042   6.385   3.594   3.129
 3360TIP3   OH210043   4.120   4.566   0.466
 3360TIP3    H110044   4.120   4.656   0.496
 3360TIP3    H210045   4.207   4.533   0.487
 3361TIP3   OH210046   0.145   0.262   0.751
 3361TIP3    H110047   0.210   0.231   0.688
 3361TIP3    H210048   0.136   0.355   0.734
 3362TIP3   OH210049   6.423   4.406   3.040
 3362TIP3    H110050   6.490   4.378   3.103
 3362TIP3    H210051   6.382   4.324   3.011
 3363TIP3   OH210052   1.220   0.266   0.212
 3363TIP3    H110053   1.285   0.261   0.282
 3363TIP3    H210054   1.148   0.210   0.243
 3364TIP3   OH210055   5.737   5.287   3.886
 3364TIP3    H110056   5.814   5.239   3.857
 3364TIP3    H210057   5.725   5.263   3.978
 3365TIP3   OH210058   5.859   2.131   1.068
 3365TIP3    H110059   5.830   2.043   1.042
 3365TIP3    H210060   5.883   2.122   1.160
 3366TIP3   OH210061   3.578   6.552   2.854
 3366TIP3    H110062   3.623   6.469   2.837
 3366TIP3    H210063   3.490   6.539   2.818
 3367TIP3   OH210064   4.989   5.699   3.600
 3367TIP3    H110065   4.995   5.710   3.505
 3367TIP3    H210066   5.075   5.666   3.626
 3368TIP3   OH210067   5.961   5.111   3.239
 3368TIP3    H110068   5.929   5.027   3.272
 3368TIP3    H210069   6.010   5.148   3.313
 3369TIP3   OH210070   6.113   0.306   0.725
 3369TIP3    H110071   6.150   0.249   0.659
 3369TIP3    H210072   6.044   0.254   0.767
 3370TIP3   OH210073   6.694   6.083   2.638
 3370TIP3    H110074   6.721   6.167   2.674
 3370TIP3    H210075   6.716   6.020   2.707
 3371TIP3   OH210076   5.728   0.933   5.517
 3371TIP3    H110077   5.637   0.940   5.490
 3371TIP3    H210078   5.724   0.924   5.613
 3372TIP3   OH210079   2.701   3.321   3.940
 3372TIP3    H110080   2.622   3.343   3.891
 3372TIP3    H210081   2.696   3.226   3.951
 3373TIP3   OH210082   1.392   1.807   3.961
 3373TIP3    H110083   1.462   1.743   3.957
 3373TIP3    H210084   1.417   1.875   3.898
 3374TIP3   OH210085   0.115   3.269   4.309
 3374TIP3    H110086   0.118   3.365   4.306
 3374TIP3    H210087   0.141   3.247   4.399
 3375TIP3   OH210088   3.761   1.419   5.334
 3375TIP3    H110089   3.785   1.502   5.375
 3375TIP3    H210090   3.844   1.370   5.329
 3376TIP3   OH210091   2.041   3.317   2.999
 3376TIP3    H110092   1.994   3.372   2.938
 3376TIP3    H210093   2.033   3.362   3.083
 3377TIP3   OH210094   0.743   1.532   0.213
 3377TIP3    H110095   0.764   1.604   0.273
 3377TIP3    H210096   0.803   1.544   0.139
 3378TIP3   OH210097   5.669   2.230   4.580
 3378TIP3    H110098   5.656   2.198   4.490
 3378TIP3    H210099   5.595   2.194   4.629
 3379TIP3   OH210100   3.777   6.482   3.371
 3379TIP3    H110101   3.858   6.522   3.340
 3379TIP3    H210102   3.758   6.526   3.454
 3380TIP3   OH210103   0.462   1.027   4.737
 3380TIP3    H110104   0.496   1.083   4.806
 3380TIP3    H210105   0.451   1.085   4.662
 3381TIP3   OH210106   1.356   0.215   2.803
 3381TIP3    H110107   1.434   0.216   2.748
 3381TIP3    H210108   1.380   0.270   2.878
 3382TIP3   OH210109   4.484   0.656   5.702
 3382TIP3    H110110   4.481   0.613   5.616
 3382TIP3    H210111   4.487   0.584   5.765
 3383TIP3   OH210112   2.593   5.045   3.180
 3383TIP3    H110113   2.543   5.009   3.253
 3383TIP3    H210114   2.673   4.992   3.177
 3384TIP3   OH210115   4.267   2.623   5.535
 3384TIP3    H110116   4.182   2.614   5.576
 3384TIP3    H210117   4.275   2.716   5.513
 3385TIP3   OH210118   0.059   3.552   1.054
 3385TIP3    H110119   0.128   3.593   1.001
 3385TIP3    H210120   0.003   3.507   0.990
 3386TIP3   OH210121   4.672   4.014   5.542
 3386TIP3    H110122   4.621   4.071   5.599
 3386TIP3    H210123   4.657   3.926   5.578
 3387TIP3   OH210124   4.867   3.794   1.087
 3387TIP3    H110125   4.931   3.759   1.025
 3387TIP3    H210126   4.813   3.852   1.034
 3388TIP3   OH210127   7.173   5.058   1.180
 3388TIP3    H110128   7.214   5.038   1.096
 3388TIP3    H210129   7.208   5.145   1.203
 3389TIP3   OH210130   3.071   3.886   0.436
 3389TIP3    H110131   2.992   3.940   0.437
 3389TIP3    H210132   3.038   3.796   0.436
 3390TIP3   OH210133   4.113   6.759   2.849
 3390TIP3    H110134   4.149   6.816   2.917
 3390TIP3    H210135   4.095   6.817   2.775
 3391TIP3   OH210136   1.803   1.758   0.437
 3391TIP3    H110137   1.780   1.847   0.462
 3391TIP3    H210138   1.725   1.706   0.457
 3392TIP3   OH210139   2.004   0.588   3.556
 3392TIP3    H110140   2.024   0.570   3.464
 3392TIP3    H210141   2.079   0.637   3.588
 3393TIP3   OH210142   4.304   1.632   0.781
 3393TIP3    H110143   4.372   1.647   0.847
 3393TIP3    H210144   4.225   1.617   0.832
 3394TIP3   OH210145   5.829   2.603   5.840
 3394TIP3    H110146   5.764   2.559   5.895
 3394TIP3    H210147   5.807   2.696   5.847
 3395TIP3   OH210148   4.353   1.547   4.424
 3395TIP3    H110149   4.290   1.617   4.440
 3395TIP3    H210150   4.305   1.484   4.369
 3396TIP3   OH210151   0.205   4.502   0.548
 3396TIP3    H110152   0.292   4.537   0.566
 3396TIP3    H210153   0.219   4.431   0.486
 3397TIP3   OH210154   2.651   3.222   0.430
 3397TIP3    H110155   2.715   3.209   0.500
 3397TIP3    H210156   2.574   3.258   0.475
 3398TIP3   OH210157   1.680   6.738   5.184
 3398TIP3    H110158   1.751   6.790   5.147
 3398TIP3    H210159   1.670   6.665   5.123
 3399TIP3   OH210160   3.322   2.918   1.275
 3399TIP3    H110161   3.236   2.960   1.271
 3399TIP3    H210162   3.311   2.836   1.226
 3400TIP3   OH210163   6.341   1.302   3.538
 3400TIP3    H110164   6.360   1.394   3.519
 3400TIP3    H210165   6.425   1.266   3.568
 3401TIP3   OH210166   1.345   0.982   3.916
 3401TIP3    H110167   1.264   1.025   3.941
 3401TIP3    H210168   1.402   0.992   3.992
 3402TIP3   OH210169   4.784   4.112   3.018
 3402TIP3    H110170   4.698   4.125   3.058
 3402TIP3    H210171   4.765   4.082   2.929
 3403TIP3   OH210172   0.727   0.902   4.027
 3403TIP3    H110173   0.700   0.991   4.047
 3403TIP3    H210174   0.822   0.905   4.023
 3404TIP3   OH210175   6.239   5.788   2.488
 3404TIP3    H110176   6.197   5.724   2.431
 3404TIP3    H210177   6.310   5.738   2.530
 3405TIP3   OH210178   5.595   1.195   1.647
 3405TIP3    H110179   5.680   1.155   1.628
 3405TIP3    H210180   5.542   1.122   1.679
 3406TIP3   OH210181   1.772   3.216   2.615
 3406TIP3    H110182   1.756   3.151   2.683
 3406TIP3    H210183   1.856   3.256   2.638
 3407TIP3   OH210184   6.872   3.800   2.792
 3407TIP3    H110185   6.860   3.815   2.886
 3407TIP3    H210186   6.965   3.820   2.776
 3408TIP3   OH210187   6.245   2.593   1.963
 3408TIP3    H110188   6.187   2.631   1.898
 3408TIP3    H210189   6.256   2.662   2.028
 3409TIP3   OH210190   1.991   6.452   0.204
 3409TIP3    H110191   2.003   6.366   0.163
 3409TIP3    H210192   2.061   6.457   0.269
 3410TIP3   OH210193   4.930   5.993   1.459
 3410TIP3    H110194   4.944   6.039   1.376
 3410TIP3    H210195   4.999   5.927   1.461
 3411TIP3   OH210196   3.660   6.662   1.298
 3411TIP3    H110197   3.698   6.660   1.386
 3411TIP3    H210198   3.622   6.575   1.286
 3412TIP3   OH210199   2.359   1.893   1.539
 3412TIP3    H110200   2.333   1.878   1.630
 3412TIP3    H210201   2.449   1.926   1.544
 3413TIP3   OH210202   4.316   4.912   5.211
 3413TIP3    H110203   4.330   4.944   5.121
 3413TIP3    H210204   4.316   4.992   5.264
 3414TIP3   OH210205   4.476   4.226   0.049
 3414TIP3    H110206   4.432   4.284   0.110
 3414TIP3    H210207   4.467   4.139   0.087
 3415TIP3   OH210208   6.457   1.533   3.173
 3415TIP3    H110209   6.395   1.589   3.126
 3415TIP3    H210210   6.410   1.507   3.252
 3416TIP3   OH210211   0.343   6.402   4.065
 3416TIP3    H110212   0.354   6.366   3.977
 3416TIP3    H210213   0.255   6.441   4.064
 3417TIP3   OH210214   7.167   4.169   0.403
 3417TIP3    H110215   7.108   4.244   0.414
 3417TIP3    H210216   7.134   4.104   0.465
 3418TIP3   OH210217   6.773   4.575   0.023
 3418TIP3    H110218   6.868   4.567   0.026
 3418TIP3    H210219   6.756   4.642  -0.043
 3419TIP3   OH210220   5.078   1.699   4.469
 3419TIP3    H110221   5.147   1.660   4.414
 3419TIP3    H210222   5.057   1.782   4.425
 3420TIP3   OH210223   6.738   1.876   2.438
 3420TIP3    H110224   6.647   1.846   2.436
 3420TIP3    H210225   6.759   1.895   2.347
 3421TIP3   OH210226   0.151   2.334   1.410
 3421TIP3    H110227   0.104   2.415   1.389
 3421TIP3    H210228   0.221   2.331   1.345
 3422TIP3   OH210229   3.321   3.495   2.404
 3422TIP3    H110230   3.398   3.524   2.355
 3422TIP3    H210231   3.292   3.415   2.359
 3423TIP3   OH210232   2.939   0.123   1.245
 3423TIP3    H110233   2.855   0.164   1.267
 3423TIP3    H210234   2.999   0.197   1.232
 3424TIP3   OH210235   1.313   5.749   5.390
 3424TIP3    H110236   1.356   5.663   5.389
 3424TIP3    H210237   1.286   5.761   5.481
 3425TIP3   OH210238   4.854   5.534   0.615
 3425TIP3    H110239   4.840   5.627   0.633
 3425TIP3    H210240   4.944   5.517   0.642
 3426TIP3   OH210241   0.671   2.612   5.233
 3426TIP3    H110242   0.662   2.656   5.148
 3426TIP3    H210243   0.640   2.677   5.296
 3427TIP3   OH210244   4.320   5.490   3.510
 3427TIP3    H110245   4.315   5.558   3.442
 3427TIP3    H210246   4.285   5.411   3.468
 3428TIP3   OH210247   1.957   2.505   0.299
 3428TIP3    H110248   2.023   2.552   0.350
 3428TIP3    H210249   1.874   2.527   0.340
 3429TIP3   OH210250   4.665   3.726   0.670
 3429TIP3    H110251   4.677   3.779   0.748
 3429TIP3    H210252   4.744   3.740   0.618
 3430TIP3   OH210253   0.696   5.689   1.010
 3430TIP3    H110254   0.653   5.677   1.095
 3430TIP3    H210255   0.790   5.680   1.030
 3431TIP3   OH210256   2.941   5.575   0.184
 3431TIP3    H110257   3.011   5.510   0.181
 3431TIP3    H210258   2.957   5.631   0.107
 3432TIP3   OH210259   3.414   1.013   0.623
 3432TIP3    H110260   3.410   1.035   0.716
 3432TIP3    H210261   3.390   0.920   0.619
 3433TIP3   OH210262   3.884   1.836   2.245
 3433TIP3    H110263   3.882   1.804   2.335
 3433TIP3    H210264   3.792   1.839   2.218
 3434TIP3   OH210265   4.973   3.609   3.333
 3434TIP3    H110266   5.043   3.661   3.294
 3434TIP3    H210267   4.893   3.657   3.311
 3435TIP3   OH210268   3.852   0.544   1.123
 3435TIP3    H110269   3.929   0.594   1.151
 3435TIP3    H210270   3.778   0.590   1.163
 3436TIP3   OH210271   5.225   5.276   0.690
 3436TIP3    H110272   5.256   5.339   0.756
 3436TIP3    H210273   5.246   5.190   0.728
 3437TIP3   OH210274   1.970   0.612   2.244
 3437TIP3    H110275   1.883   0.576   2.257
 3437TIP3    H210276   1.959   0.678   2.175
 3438TIP3   OH210277   3.202   5.485   3.544
 3438TIP3    H110278   3.179   5.396   3.515
 3438TIP3    H210279   3.121   5.519   3.581
 3439TIP3   OH210280   1.468   1.263   2.450
 3439TIP3    H110281   1.523   1.334   2.416
 3439TIP3    H210282   1.379   1.295   2.438
 3440TIP3   OH210283   2.327   3.308   4.390
 3440TIP3    H110284   2.406   3.287   4.340
 3440TIP3    H210285   2.260   3.251   4.353
 3441TIP3   OH210286   2.054   3.693   4.536
 3441TIP3    H110287   1.977   3.722   4.488
 3441TIP3    H210288   2.054   3.598   4.527
 3442TIP3   OH210289   0.380   0.023   3.945
 3442TIP3    H110290   0.330   0.084   3.891
 3442TIP3    H210291   0.387   0.067   4.030
 3443TIP3   OH210292   4.258   1.962   1.659
 3443TIP3    H110293   4.188   1.974   1.595
 3443TIP3    H210294   4.290   2.051   1.676
 3444TIP3   OH210295   1.122   1.670   1.800
 3444TIP3    H110296   1.165   1.666   1.714
 3444TIP3    H210297   1.030   1.688   1.779
 3445TIP3   OH210298   3.989   0.996   1.819
 3445TIP3    H110299   4.007   0.913   1.776
 3445TIP3    H210300   3.908   1.027   1.778
 3446TIP3   OH210301   4.111   1.272   1.074
 3446TIP3    H110302   4.089   1.179   1.080
 3446TIP3    H210303   4.156   1.292   1.155
 3447TIP3   OH210304   5.890   2.138   4.794
 3447TIP3    H110305   5.796   2.139   4.775
 3447TIP3    H210306   5.925   2.212   4.744
 3448TIP3   OH210307   4.111   4.697   3.346
 3448TIP3    H110308   4.125   4.683   3.439
 3448TIP3    H210309   4.147   4.784   3.329
 3449TIP3   OH210310   6.103   1.094   4.230
 3449TIP3    H110311   6.076   1.025   4.291
 3449TIP3    H210312   6.149   1.158   4.285
 3450TIP3   OH210313   0.547   1.948   5.517
 3450TIP3    H110314   0.541   2.035   5.477
 3450TIP3    H210315   0.492   1.893   5.462
 3451TIP3   OH210316   5.690   0.007   1.794
 3451TIP3    H110317   5.773   0.048   1.822
 3451TIP3    H210318   5.649  -0.020   1.876
 3452TIP3   OH210319   0.086   3.938   1.824
 3452TIP3    H110320   0.093   4.023   1.867
 3452TIP3    H210321  -0.007   3.916   1.829
 3453TIP3   OH210322   5.756   1.695   2.490
 3453TIP3    H110323   5.820   1.715   2.558
 3453TIP3    H210324   5.795   1.727   2.409
 3454TIP3   OH210325   7.086   0.646   0.265
 3454TIP3    H110326   7.174   0.634   0.301
 3454TIP3    H210327   7.030   0.591   0.319
 3455TIP3   OH210328   4.242   1.618   5.300
 3455TIP3    H110329   4.177   1.571   5.247
 3455TIP3    H210330   4.323   1.613   5.249
 3456TIP3   OH210331   4.942   0.338   4.919
 3456TIP3    H110332   5.019   0.292   4.885
 3456TIP3    H210333   4.954   0.340   5.013
 3457TIP3   OH210334   1.235   1.052   5.462
 3457TIP3    H110335   1.228   1.059   5.367
 3457TIP3    H210336   1.328   1.038   5.478
 3458TIP3   OH210337   2.668   2.875   4.540
 3458TIP3    H110338   2.752   2.917   4.520
 3458TIP3    H210339   2.689   2.815   4.612
 3459TIP3   OH210340   2.084   3.205   2.681
 3459TIP3    H110341   2.168   3.158   2.678
 3459TIP3    H210342   2.106   3.290   2.719
 3460TIP3   OH210343   0.321   4.556   5.458
 3460TIP3    H110344   0.400   4.530   5.410
 3460TIP3    H210345   0.299   4.479   5.510
 3461TIP3   OH210346   5.543   0.304   1.893
 3461TIP3    H110347   5.624   0.264   1.925
 3461TIP3    H210348   5.475   0.272   1.952
 3462TIP3   OH210349   1.015   3.331   0.456
 3462TIP3    H110350   0.967   3.408   0.425
 3462TIP3    H210351   1.018   3.341   0.551
 3463TIP3   OH210352   5.342   1.695   2.012
 3463TIP3    H110353   5.259   1.725   1.975
 3463TIP3    H210354   5.385   1.775   2.042
 3464TIP3   OH210355   3.586   6.270   4.318
 3464TIP3    H110356   3.597   6.175   4.312
 3464TIP3    H210357   3.507   6.289   4.267
 3465TIP3   OH210358   2.853   2.695   0.535
 3465TIP3    H110359   2.805   2.615   0.560
 3465TIP3    H210360   2.944   2.667   0.529
 3466TIP3   OH210361   4.350   3.795   5.176
 3466TIP3    H110362   4.260   3.762   5.181
 3466TIP3    H210363   4.369   3.800   5.083
 3467TIP3   OH210364   1.797   0.937   1.014
 3467TIP3    H110365   1.708   0.902   1.012
 3467TIP3    H210366   1.853   0.863   1.035
 3468TIP3   OH210367   1.305   0.178   5.856
 3468TIP3    H110368   1.300   0.204   5.948
 3468TIP3    H210369   1.225   0.213   5.816
 3469TIP3   OH210370   4.585   4.715   1.832
 3469TIP3    H110371   4.593   4.627   1.797
 3469TIP3    H210372   4.533   4.705   1.912
 3470TIP3   OH210373   3.365   5.386   2.487
 3470TIP3    H110374   3.294   5.369   2.550
 3470TIP3    H210375   3.332   5.352   2.404
 3471TIP3   OH210376   3.361   5.473   4.975
 3471TIP3    H110377   3.267   5.492   4.968
 3471TIP3    H210378   3.396   5.495   4.889
 3472TIP3   OH210379   6.535   0.056   1.860
 3472TIP3    H110380   6.452   0.085   1.822
 3472TIP3    H210381   6.602   0.090   1.801
 3473TIP3   OH210382   0.302   6.560   3.522
 3473TIP3    H110383   0.312   6.630   3.457
 3473TIP3    H210384   0.340   6.596   3.602
 3474TIP3   OH210385   6.906   1.789   2.225
 3474TIP3    H110386   6.823   1.742   2.228
 3474TIP3    H210387   6.947   1.761   2.143
 3475TIP3   OH210388   0.540   2.438   2.589
 3475TIP3    H110389   0.460   2.425   2.538
 3475TIP3    H210390   0.604   2.471   2.525
 3476TIP3   OH210391   4.654   5.328   5.437
 3476TIP3    H110392   4.559   5.321   5.428
 3476TIP3    H210393   4.669   5.330   5.532
 3477TIP3   OH210394   3.467   0.171   0.899
 3477TIP3    H110395   3.553   0.130   0.902
 3477TIP3    H210396   3.474   0.235   0.828
 3478TIP3   OH210397   7.101   1.750   4.520
 3478TIP3    H110398   7.138   1.696   4.451
 3478TIP3    H210399   7.008   1.726   4.522
 3479TIP3   OH210400   5.231   1.036   2.941
 3479TIP3    H110401   5.280   1.082   2.873
 3479TIP3    H210402   5.146   1.018   2.900
 3480TIP3   OH210403   1.145   5.737   0.183
 3480TIP3    H110404   1.087   5.735   0.259
 3480TIP3    H210405   1.231   5.716   0.219
 3481TIP3   OH210406   6.601   4.614   0.808
 3481TIP3    H110407   6.562   4.527   0.800
 3481TIP3    H210408   6.694   4.601   0.789
 3482TIP3   OH210409   3.335   5.027   0.797
 3482TIP3    H110410   3.339   4.958   0.863
 3482TIP3    H210411   3.421   5.025   0.755
 3483TIP3   OH210412   1.821   3.133   1.336
 3483TIP3    H110413   1.787   3.218   1.309
 3483TIP3    H210414   1.868   3.100   1.260
 3484TIP3   OH210415   1.057   5.707   3.108
 3484TIP3    H110416   1.103   5.791   3.104
 3484TIP3    H210417   1.115   5.646   3.064
 3485TIP3   OH210418   5.574   2.580   4.208
 3485TIP3    H110419   5.492   2.588   4.256
 3485TIP3    H210420   5.642   2.604   4.271
 3486TIP3   OH210421   2.326   3.950   0.691
 3486TIP3    H110422   2.338   3.857   0.713
 3486TIP3    H210423   2.336   3.954   0.596
 3487TIP3   OH210424   2.692   2.660   3.359
 3487TIP3    H110425   2.733   2.619   3.283
 3487TIP3    H210426   2.698   2.754   3.342
 3488TIP3   OH210427   5.956   1.568   4.799
 3488TIP3    H110428   5.939   1.619   4.878
 3488TIP3    H210429   5.970   1.479   4.830
 3489TIP3   OH210430   4.989   2.495   3.457
 3489TIP3    H110431   4.949   2.505   3.544
 3489TIP3    H210432   5.004   2.585   3.427
 3490TIP3   OH210433   2.528   2.744   2.628
 3490TIP3    H110434   2.517   2.838   2.639
 3490TIP3    H210435   2.539   2.732   2.533
 3491TIP3   OH210436   3.277   0.996   5.536
 3491TIP3    H110437   3.350   0.935   5.545
 3491TIP3    H210438   3.319   1.081   5.524
 3492TIP3   OH210439   1.463   2.595   5.204
 3492TIP3    H110440   1.376   2.636   5.199
 3492TIP3    H210441   1.520   2.654   5.155
 3493TIP3   OH210442   3.979   4.342   2.986
 3493TIP3    H110443   4.054   4.293   2.953
 3493TIP3    H210444   4.017   4.410   3.042
 3494TIP3   OH210445   3.105   3.648   1.752
 3494TIP3    H110446   3.015   3.662   1.722
 3494TIP3    H210447   3.157   3.712   1.703
 3495TIP3   OH210448   2.134   5.775   3.175
 3495TIP3    H110449   2.170   5.746   3.259
 3495TIP3    H210450   2.142   5.870   3.177
 3496TIP3   OH210451   0.371   1.631   5.166
 3496TIP3    H110452   0.290   1.616   5.215
 3496TIP3    H210453   0.349   1.608   5.076
 3497TIP3   OH210454   5.785   2.757   0.817
 3497TIP3    H110455   5.747   2.701   0.885
 3497TIP3    H210456   5.740   2.731   0.737
 3498TIP3   OH210457   6.142   4.766   3.272
 3498TIP3    H110458   6.190   4.684   3.258
 3498TIP3    H210459   6.161   4.818   3.194
 3499TIP3   OH210460   0.737   1.318   4.976
 3499TIP3    H110461   0.680   1.374   5.029
 3499TIP3    H210462   0.706   1.229   4.993
 3500TIP3   OH210463   2.578   4.207   0.556
 3500TIP3    H110464   2.573   4.131   0.498
 3500TIP3    H210465   2.636   4.268   0.510
 3501TIP3   OH210466   0.298   3.063   3.861
 3501TIP3    H110467   0.375   3.005   3.861
 3501TIP3    H210468   0.269   3.064   3.952
 3502TIP3   OH210469   2.151   0.842   5.674
 3502TIP3    H110470   2.153   0.867   5.766
 3502TIP3    H210471   2.234   0.796   5.659
 3503TIP3   OH210472   6.095   3.983   2.641
 3503TIP3    H110473   6.057   3.946   2.720
 3503TIP3    H210474   6.065   4.074   2.640
 3504TIP3   OH210475   1.493   0.533   4.244
 3504TIP3    H110476   1.414   0.557   4.196
 3504TIP3    H210477   1.510   0.442   4.216
 3505TIP3   OH210478   4.157   3.223   0.579
 3505TIP3    H110479   4.206   3.249   0.657
 3505TIP3    H210480   4.096   3.295   0.564
 3506TIP3   OH210481   3.370   6.085   3.562
 3506TIP3    H110482   3.455   6.108   3.524
 3506TIP3    H210483   3.363   6.140   3.640
 3507TIP3   OH210484   4.726   1.491   0.394
 3507TIP3    H110485   4.794   1.424   0.400
 3507TIP3    H210486   4.771   1.569   0.363
 3508TIP3   OH210487   5.975   6.553   3.270
 3508TIP3    H110488   5.983   6.465   3.233
 3508TIP3    H210489   5.895   6.588   3.232
 3509TIP3   OH210490   6.166   6.298   1.130
 3509TIP3    H110491   6.253   6.284   1.168
 3509TIP3    H210492   6.121   6.354   1.193
 3510TIP3   OH210493   3.919   2.328   4.007
 3510TIP3    H110494   4.002   2.376   3.998
 3510TIP3    H210495   3.854   2.388   3.971
 3511TIP3   OH210496   4.312   1.509   5.898
 3511TIP3    H110497   4.343   1.440   5.839
 3511TIP3    H210498   4.217   1.498   5.901
 3512TIP3   OH210499   0.107   5.311   2.154
 3512TIP3    H110500   0.098   5.397   2.195
 3512TIP3    H210501   0.107   5.329   2.060
 3513TIP3   OH210502   3.699   2.166   5.253
 3513TIP3    H110503   3.640   2.094   5.232
 3513TIP3    H210504   3.693   2.176   5.348
 3514TIP3   OH210505   1.891   1.308   4.767
 3514TIP3    H110506   1.817   1.368   4.774
 3514TIP3    H210507   1.967   1.362   4.791
 3515TIP3   OH210508   1.078   5.954   2.616
 3515TIP3    H110509   0.983   5.938   2.612
 3515TIP3    H210510   1.097   5.962   2.709
 3516TIP3   OH210511   5.708   2.759   3.523
 3516TIP3    H110512   5.632   2.799   3.565
 3516TIP3    H210513   5.743   2.698   3.589
 3517TIP3   OH210514   4.209   1.085   5.627
 3517TIP3    H110515   4.115   1.082   5.640
 3517TIP3    H210516   4.236   0.994   5.618
 3518TIP3   OH210517   4.650   2.086   4.894
 3518TIP3    H110518   4.598   2.128   4.824
 3518TIP3    H210519   4.598   2.010   4.920
 3519TIP3   OH210520   4.117   3.641   4.304
 3519TIP3    H110521   4.169   3.721   4.300
 3519TIP3    H210522   4.180   3.570   4.289
 3520TIP3   OH210523   2.639   6.563   3.104
 3520TIP3    H110524   2.553   6.606   3.109
 3520TIP3    H210525   2.698   6.633   3.077
 3521TIP3   OH210526   6.672   0.035   3.069
 3521TIP3    H110527   6.636   0.045   3.157
 3521TIP3    H210528   6.709   0.121   3.048
 3522TIP3   OH210529   1.078   3.354   2.756
 3522TIP3    H110530   1.013   3.330   2.823
 3522TIP3    H210531   1.143   3.284   2.761
 3523TIP3   OH210532   5.837   1.908   0.459
 3523TIP3    H110533   5.853   1.942   0.547
 3523TIP3    H210534   5.920   1.868   0.433
 3524TIP3   OH210535   6.818   4.370   4.331
 3524TIP3    H110536   6.739   4.382   4.278
 3524TIP3    H210537   6.886   4.416   4.284
 3525TIP3   OH210538   5.173   2.888   2.029
 3525TIP3    H110539   5.216   2.818   2.077
 3525TIP3    H210540   5.085   2.854   2.010
 3526TIP3   OH210541   2.707   0.687   5.647
 3526TIP3    H110542   2.616   0.689   5.675
 3526TIP3    H210543   2.750   0.754   5.701
 3527TIP3   OH210544   3.750   1.667   2.451
 3527TIP3    H110545   3.828   1.711   2.484
 3527TIP3    H210546   3.725   1.605   2.520
 3528TIP3   OH210547   0.623   6.078   1.523
 3528TIP3    H110548   0.682   6.016   1.479
 3528TIP3    H210549   0.601   6.035   1.606
 3529TIP3   OH210550   4.635   2.032   4.489
 3529TIP3    H110551   4.682   2.009   4.569
 3529TIP3    H210552   4.660   2.123   4.472
 3530TIP3   OH210553   0.954   4.126   1.793
 3530TIP3    H110554   1.038   4.151   1.754
 3530TIP3    H210555   0.932   4.200   1.850
 3531TIP3   OH210556   0.006   2.393   0.408
 3531TIP3    H110557  -0.061   2.404   0.341
 3531TIP3    H210558   0.056   2.475   0.406
 3532TIP3   OH210559   0.867   1.395   1.339
 3532TIP3    H110560   0.909   1.350   1.412
 3532TIP3    H210561   0.774   1.373   1.347
 3533TIP3   OH210562   4.139   2.830   4.232
 3533TIP3    H110563   4.139   2.925   4.218
 3533TIP3    H210564   4.232   2.806   4.233
 3534TIP3   OH210565   5.340   3.352   0.928
 3534TIP3    H110566   5.367   3.360   0.836
 3534TIP3    H210567   5.406   3.401   0.976
 3535TIP3   OH210568   1.687   2.719   3.498
 3535TIP3    H110569   1.701   2.627   3.478
 3535TIP3    H210570   1.614   2.720   3.559
 3536TIP3   OH210571   7.193   5.068   3.796
 3536TIP3    H110572   7.277   5.025   3.780
 3536TIP3    H210573   7.141   5.003   3.843
 3537TIP3   OH210574   7.035   2.451   5.637
 3537TIP3    H110575   7.098   2.467   5.567
 3537TIP3    H210576   6.962   2.406   5.595
 3538TIP3   OH210577   3.189   4.795   4.349
 3538TIP3    H110578   3.275   4.837   4.359
 3538TIP3    H210579   3.167   4.764   4.437
 3539TIP3   OH210580   2.565   4.190   5.729
 3539TIP3    H110581   2.506   4.260   5.756
 3539TIP3    H210582   2.553   4.121   5.794
 3540TIP3   OH210583   4.082   1.176   0.014
 3540TIP3    H110584   4.043   1.091  -0.006
 3540TIP3    H210585   4.175   1.164  -0.003
 3541TIP3   OH210586   1.767   2.608   1.446
 3541TIP3    H110587   1.699   2.603   1.513
 3541TIP3    H210588   1.757   2.696   1.409
 3542TIP3   OH210589   0.214   4.641   1.693
 3542TIP3    H110590   0.262   4.560   1.675
 3542TIP3    H210591   0.234   4.660   1.785
 3543TIP3   OH210592   5.554   4.668   2.215
 3543TIP3    H110593   5.649   4.675   2.221
 3543TIP3    H210594   5.526   4.750   2.173
 3544TIP3   OH210595   0.707   6.698   0.834
 3544TIP3    H110596   0.692   6.610   0.868
 3544TIP3    H210597   0.746   6.746   0.907
 3545TIP3   OH210598   5.953   5.560   0.902
 3545TIP3    H110599   5.867   5.530   0.931
 3545TIP3    H210600   5.988   5.610   0.976
 3546TIP3   OH210601   6.457   5.044   5.440
 3546TIP3    H110602   6.549   5.035   5.462
 3546TIP3    H210603   6.424   5.112   5.498
 3547TIP3   OH210604   3.756   0.174   2.075
 3547TIP3    H110605   3.848   0.183   2.054
 3547TIP3    H210606   3.745   0.081   2.095
 3548TIP3   OH210607   6.563   3.039   1.002
 3548TIP3    H110608   6.510   3.083   0.935
 3548TIP3    H210609   6.623   3.107   1.033
 3549TIP3   OH210610   1.969   3.882   2.039
 3549TIP3    H110611   1.906   3.836   2.094
 3549TIP3    H210612   1.973   3.831   1.958
 3550TIP3   OH210613   1.203   6.032   4.057
 3550TIP3    H110614   1.170   5.951   4.018
 3550TIP3    H210615   1.284   6.050   4.009
 3551TIP3   OH210616   5.291   4.465   0.399
 3551TIP3    H110617   5.359   4.401   0.419
 3551TIP3    H210618   5.329   4.550   0.424
 3552TIP3   OH210619   5.338   5.409   3.335
 3552TIP3    H110620   5.282   5.475   3.294
 3552TIP3    H210621   5.290   5.327   3.324
 3553TIP3   OH210622   5.142   0.723   5.362
 3553TIP3    H110623   5.139   0.669   5.283
 3553TIP3    H210624   5.140   0.813   5.331
 3554TIP3   OH210625   0.215   1.123   1.556
 3554TIP3    H110626   0.255   1.054   1.503
 3554TIP3    H210627   0.162   1.077   1.621
 3555TIP3   OH210628   5.705   5.919   3.341
 3555TIP3    H110629   5.663   5.879   3.265
 3555TIP3    H210630   5.720   5.846   3.402
 3556TIP3   OH210631   5.083   0.714   2.155
 3556TIP3    H110632   5.161   0.744   2.202
 3556TIP3    H210633   5.016   0.705   2.222
 3557TIP3   OH210634   2.371   6.151   1.718
 3557TIP3    H110635   2.361   6.159   1.623
 3557TIP3    H210636   2.394   6.060   1.732
 3558TIP3   OH210637   3.964   5.789   4.399
 3558TIP3    H110638   3.873   5.760   4.390
 3558TIP3    H210639   3.972   5.815   4.491
 3559TIP3   OH210640   2.094   2.739   4.936
 3559TIP3    H110641   2.156   2.686   4.885
 3559TIP3    H210642   2.101   2.704   5.025
 3560TIP3   OH210643   0.647   0.355   4.186
 3560TIP3    H110644   0.692   0.438   4.202
 3560TIP3    H210645   0.641   0.349   4.091
 3561TIP3   OH210646   0.160   3.575   3.272
 3561TIP3    H110647   0.210   3.638   3.324
 3561TIP3    H210648   0.214   3.496   3.270
 3562TIP3   OH210649   6.177   3.443   1.181
 3562TIP3    H110650   6.205   3.410   1.096
 3562TIP3    H210651   6.108   3.382   1.208
 3563TIP3   OH210652   1.453   3.472   0.005
 3563TIP3    H110653   1.402   3.423  -0.060
 3563TIP3    H210654   1.472   3.409   0.074
 3564TIP3   OH210655   5.060   0.271   1.475
 3564TIP3    H110656   5.027   0.361   1.479
 3564TIP3    H210657   4.994   0.224   1.424
 3565TIP3   OH210658   5.136   5.173   2.825
 3565TIP3    H110659   5.073   5.133   2.765
 3565TIP3    H210660   5.196   5.221   2.768
 3566TIP3   OH210661   4.558   3.353   5.369
 3566TIP3    H110662   4.619   3.280   5.380
 3566TIP3    H210663   4.614   3.428   5.347
 3567TIP3   OH210664   5.194   5.859   5.304
 3567TIP3    H110665   5.170   5.918   5.233
 3567TIP3    H210666   5.285   5.880   5.324
 3568TIP3   OH210667   3.159   2.592   1.817
 3568TIP3    H110668   3.091   2.660   1.815
 3568TIP3    H210669   3.188   2.585   1.726
 3569TIP3   OH210670   4.033   3.207   1.050
 3569TIP3    H110671   3.988   3.130   1.016
 3569TIP3    H210672   4.126   3.190   1.032
 3570TIP3   OH210673   1.814   2.107   3.194
 3570TIP3    H110674   1.900   2.095   3.234
 3570TIP3    H210675   1.827   2.176   3.129
 3571TIP3   OH210676   3.117   0.216   0.097
 3571TIP3    H110677   3.090   0.278   0.029
 3571TIP3    H210678   3.178   0.266   0.152
 3572TIP3   OH210679   6.876   6.634   0.300
 3572TIP3    H110680   6.823   6.703   0.340
 3572TIP3    H210681   6.963   6.672   0.292
 3573TIP3   OH210682   2.714   6.679   0.153
 3573TIP3    H110683   2.731   6.764   0.112
 3573TIP3    H210684   2.622   6.684   0.179
 3574TIP3   OH210685   4.397   5.169   2.448
 3574TIP3    H110686   4.327   5.201   2.390
 3574TIP3    H210687   4.450   5.112   2.392
 3575TIP3   OH210688   7.050   3.617   4.909
 3575TIP3    H110689   7.105   3.560   4.963
 3575TIP3    H210690   7.110   3.684   4.875
 3576TIP3   OH210691   1.391   6.526   3.672
 3576TIP3    H110692   1.455   6.457   3.652
 3576TIP3    H210693   1.400   6.588   3.600
 3577TIP3   OH210694   0.899   1.337   3.825
 3577TIP3    H110695   0.871   1.429   3.824
 3577TIP3    H210696   0.994   1.341   3.834
 3578TIP3   OH210697   0.106   0.621   2.630
 3578TIP3    H110698   0.105   0.646   2.722
 3578TIP3    H210699   0.132   0.529   2.630
 3579TIP3   OH210700   3.301   6.784   3.493
 3579TIP3    H110701   3.304   6.812   3.584
 3579TIP3    H210702   3.393   6.775   3.467
 3580TIP3   OH210703   0.110   3.352   0.675
 3580TIP3    H110704   0.188   3.382   0.722
 3580TIP3    H210705   0.039   3.358   0.738
 3581TIP3   OH210706   0.145   1.685   0.605
 3581TIP3    H110707   0.157   1.674   0.699
 3581TIP3    H210708   0.055   1.656   0.589
 3582TIP3   OH210709   4.944   3.641   0.215
 3582TIP3    H110710   5.025   3.649   0.264
 3582TIP3    H210711   4.957   3.697   0.138
 3583TIP3   OH210712   1.012   0.054   1.385
 3583TIP3    H110713   0.928   0.083   1.417
 3583TIP3    H210714   1.041   0.123   1.326
 3584TIP3   OH210715   6.446   3.958   5.534
 3584TIP3    H110716   6.369   4.015   5.541
 3584TIP3    H210717   6.513   4.002   5.586
 3585TIP3   OH210718   0.989   5.347   0.242
 3585TIP3    H110719   1.040   5.330   0.321
 3585TIP3    H210720   1.054   5.358   0.173
 3586TIP3   OH210721   4.305   1.907   3.896
 3586TIP3    H110722   4.255   1.852   3.836
 3586TIP3    H210723   4.264   1.893   3.982
 3587TIP3   OH210724   0.985   1.275   0.030
 3587TIP3    H110725   1.073   1.305   0.052
 3587TIP3    H210726   0.960   1.218   0.104
 3588TIP3   OH210727   3.714   0.233   0.418
 3588TIP3    H110728   3.638   0.201   0.369
 3588TIP3    H210729   3.694   0.324   0.437
 3589TIP3   OH210730   1.119   0.398   2.365
 3589TIP3    H110731   1.116   0.319   2.419
 3589TIP3    H210732   1.202   0.392   2.317
 3590TIP3   OH210733   3.497   3.855   5.628
 3590TIP3    H110734   3.516   3.850   5.722
 3590TIP3    H210735   3.512   3.767   5.596
 3591TIP3   OH210736   1.210   4.247   5.712
 3591TIP3    H110737   1.202   4.270   5.805
 3591TIP3    H210738   1.122   4.218   5.687
 3592TIP3   OH210739   7.114   4.079   2.363
 3592TIP3    H110740   7.034   4.028   2.373
 3592TIP3    H210741   7.185   4.016   2.379
 3593TIP3   OH210742   2.088   3.428   0.372
 3593TIP3    H110743   2.088   3.334   0.385
 3593TIP3    H210744   2.015   3.444   0.311
 3594TIP3   OH210745   3.662   2.989   4.986
 3594TIP3    H110746   3.711   2.918   4.946
 3594TIP3    H210747   3.603   2.946   5.047
 3595TIP3   OH210748   6.907   4.179   4.539
 3595TIP3    H110749   6.869   4.263   4.513
 3595TIP3    H210750   6.851   4.113   4.498
 3596TIP3   OH210751   3.857   3.100   0.240
 3596TIP3    H110752   3.929   3.069   0.295
 3596TIP3    H210753   3.898   3.122   0.156
 3597TIP3   OH210754   7.061   1.647   1.426
 3597TIP3    H110755   7.090   1.691   1.506
 3597TIP3    H210756   6.973   1.616   1.446
 3598TIP3   OH210757   3.269   2.016   2.041
 3598TIP3    H110758   3.251   2.098   1.996
 3598TIP3    H210759   3.258   2.036   2.134
 3599TIP3   OH210760   1.089   0.818   0.356
 3599TIP3    H110761   1.175   0.831   0.397
 3599TIP3    H210762   1.108   0.801   0.264
 3600TIP3   OH210763   1.517   2.888   0.896
 3600TIP3    H110764   1.553   2.800   0.901
 3600TIP3    H210765   1.432   2.882   0.939
 3601TIP3   OH210766   1.815   3.175   2.267
 3601TIP3    H110767   1.810   3.203   2.176
 3601TIP3    H210768   1.725   3.178   2.299
 3602TIP3   OH210769   1.914   4.093   1.128
 3602TIP3    H110770   2.007   4.104   1.146
 3602TIP3    H210771   1.886   4.177   1.092
 3603TIP3   OH210772   0.518   1.316   2.993
 3603TIP3    H110773   0.540   1.251   3.061
 3603TIP3    H210774   0.430   1.291   2.964
 3604TIP3   OH210775   1.477   4.822   3.825
 3604TIP3    H110776   1.400   4.876   3.807
 3604TIP3    H210777   1.518   4.862   3.901
 3605TIP3   OH210778   0.060   2.663   0.484
 3605TIP3    H110779   0.043   2.698   0.397
 3605TIP3    H210780   0.152   2.635   0.482
 3606TIP3   OH210781   2.632   3.562   0.255
 3606TIP3    H110782   2.690   3.502   0.209
 3606TIP3    H210783   2.619   3.635   0.194
 3607TIP3   OH210784   6.608   6.142   0.080
 3607TIP3    H110785   6.595   6.231   0.112
 3607TIP3    H210786   6.592   6.086   0.156
 3608TIP3   OH210787   6.956   6.523   3.729
 3608TIP3    H110788   6.936   6.445   3.781
 3608TIP3    H210789   6.993   6.488   3.648
 3609TIP3   OH210790   6.101   2.275   0.466
 3609TIP3    H110791   6.159   2.238   0.533
 3609TIP3    H210792   6.039   2.329   0.515
 3610TIP3   OH210793   4.761   1.134   5.137
 3610TIP3    H110794   4.801   1.216   5.109
 3610TIP3    H210795   4.814   1.066   5.095
 3611TIP3   OH210796   7.159   0.403   1.289
 3611TIP3    H110797   7.102   0.480   1.287
 3611TIP3    H210798   7.106   0.333   1.250
 3612TIP3   OH210799   6.550   2.020   3.666
 3612TIP3    H110800   6.621   2.083   3.678
 3612TIP3    H210801   6.572   1.974   3.585
 3613TIP3   OH210802   1.015   5.985   5.646
 3613TIP3    H110803   1.059   5.942   5.573
 3613TIP3    H210804   0.927   6.003   5.614
 3614TIP3   OH210805   2.772   4.457   2.142
 3614TIP3    H110806   2.812   4.532   2.099
 3614TIP3    H210807   2.843   4.392   2.148
 3615TIP3   OH210808   4.584   4.186   3.864
 3615TIP3    H110809   4.570   4.240   3.787
 3615TIP3    H210810   4.506   4.198   3.917
 3616TIP3   OH210811   6.518   5.029   1.956
 3616TIP3    H110812   6.476   4.998   2.036
 3616TIP3    H210813   6.499   4.961   1.891
 3617TIP3   OH210814   7.211   1.284   3.330
 3617TIP3    H110815   7.194   1.228   3.254
 3617TIP3    H210816   7.140   1.263   3.391
 3618TIP3   OH210817   6.581   2.156   0.655
 3618TIP3    H110818   6.596   2.236   0.604
 3618TIP3    H210819   6.599   2.182   0.745
 3619TIP3   OH210820   4.669   2.852   2.076
 3619TIP3    H110821   4.702   2.924   2.130
 3619TIP3    H210822   4.643   2.785   2.138
 3620TIP3   OH210823   2.498   0.734   0.903
 3620TIP3    H110824   2.567   0.711   0.841
 3620TIP3    H210825   2.473   0.823   0.880
 3621TIP3   OH210826   6.927   5.509   1.280
 3621TIP3    H110827   6.922   5.497   1.185
 3621TIP3    H210828   6.875   5.436   1.315
 3622TIP3   OH210829   0.372   5.378   1.654
 3622TIP3    H110830   0.347   5.406   1.566
 3622TIP3    H210831   0.333   5.290   1.663
 3623TIP3   OH210832   4.946   3.754   5.643
 3623TIP3    H110833   4.981   3.824   5.697
 3623TIP3    H210834   4.990   3.763   5.559
 3624TIP3   OH210835   1.706   1.749   1.312
 3624TIP3    H110836   1.768   1.815   1.281
 3624TIP3    H210837   1.622   1.795   1.319
 3625TIP3   OH210838   3.242   0.166   5.810
 3625TIP3    H110839   3.177   0.232   5.786
 3625TIP3    H210840   3.263   0.186   5.901
 3626TIP3   OH210841   3.559   6.277   3.849
 3626TIP3    H110842   3.526   6.356   3.891
 3626TIP3    H210843   3.481   6.224   3.831
 3627TIP3   OH210844   2.631   1.611   4.430
 3627TIP3    H110845   2.543   1.635   4.399
 3627TIP3    H210846   2.687   1.684   4.403
 3628TIP3   OH210847   2.846   1.478   2.634
 3628TIP3    H110848   2.896   1.424   2.574
 3628TIP3    H210849   2.878   1.567   2.619
 3629TIP3   OH210850   0.098   3.096   1.710
 3629TIP3    H110851   0.175   3.103   1.654
 3629TIP3    H210852   0.069   3.186   1.722
 3630TIP3   OH210853   1.441   2.178   4.200
 3630TIP3    H110854   1.413   2.090   4.172
 3630TIP3    H210855   1.498   2.162   4.275
 3631TIP3   OH210856   6.732   6.649   2.470
 3631TIP3    H110857   6.778   6.583   2.418
 3631TIP3    H210858   6.670   6.599   2.524
 3632TIP3   OH210859   4.448   6.387   5.408
 3632TIP3    H110860   4.480   6.437   5.484
 3632TIP3    H210861   4.353   6.388   5.418
 3633TIP3   OH210862   2.265   5.814   5.085
 3633TIP3    H110863   2.300   5.818   4.996
 3633TIP3    H210864   2.313   5.742   5.126
 3634TIP3   OH210865   6.465   5.752   4.921
 3634TIP3    H110866   6.541   5.713   4.877
 3634TIP3    H210867   6.434   5.819   4.860
 3635TIP3   OH210868   6.944   1.919   4.239
 3635TIP3    H110869   7.007   1.956   4.301
 3635TIP3    H210870   6.992   1.917   4.156
 3636TIP3   OH210871   0.500   3.836   1.957
 3636TIP3    H110872   0.554   3.777   2.009
 3636TIP3    H210873   0.417   3.789   1.945
 3637TIP3   OH210874   1.042   4.516   2.233
 3637TIP3    H110875   1.087   4.560   2.161
 3637TIP3    H210876   1.029   4.586   2.298
 3638TIP3   OH210877   2.659   0.852   0.337
 3638TIP3    H110878   2.748   0.829   0.313
 3638TIP3    H210879   2.605   0.779   0.306
 3639TIP3   OH210880   0.462   1.013   3.806
 3639TIP3    H110881   0.435   0.998   3.715
 3639TIP3    H210882   0.499   0.930   3.834
 3640TIP3   OH210883   3.713   2.893   0.137
 3640TIP3    H110884   3.669   2.877   0.053
 3640TIP3    H210885   3.778   2.960   0.118
 3641TIP3   OH210886   4.211   0.488   2.764
 3641TIP3    H110887   4.187   0.401   2.734
 3641TIP3    H210888   4.247   0.474   2.852
 3642TIP3   OH210889   4.380   6.685   2.579
 3642TIP3    H110890   4.392   6.667   2.486
 3642TIP3    H210891   4.303   6.633   2.604
 3643TIP3   OH210892   0.350   3.752   1.226
 3643TIP3    H110893   0.388   3.690   1.289
 3643TIP3    H210894   0.407   3.746   1.149
 3644TIP3   OH210895   3.057   4.547   2.108
 3644TIP3    H110896   3.083   4.587   2.191
 3644TIP3    H210897   3.055   4.453   2.127
 3645TIP3   OH210898   3.359   2.664   0.018
 3645TIP3    H110899   3.393   2.686   0.105
 3645TIP3    H210900   3.277   2.618   0.036
 3646TIP3   OH210901   7.127   1.931   0.415
 3646TIP3    H110902   7.097   1.901   0.501
 3646TIP3    H210903   7.179   2.009   0.435
 3647TIP3   OH210904   5.748   3.978   2.037
 3647TIP3    H110905   5.659   4.007   2.016
 3647TIP3    H210906   5.800   4.059   2.039
 3648TIP3   OH210907   6.488   1.548   3.472
 3648TIP3    H110908   6.504   1.576   3.562
 3648TIP3    H210909   6.547   1.601   3.419
 3649TIP3   OH210910   3.536   5.925   1.342
 3649TIP3    H110911   3.518   5.832   1.335
 3649TIP3    H210912   3.623   5.936   1.305
 3650TIP3   OH210913   3.988   5.282   4.001
 3650TIP3    H110914   3.955   5.323   4.080
 3650TIP3    H210915   4.080   5.310   3.996
 3651TIP3   OH210916   1.882   6.023   4.222
 3651TIP3    H110917   1.870   6.098   4.280
 3651TIP3    H210918   1.969   5.990   4.245
 3652TIP3   OH210919   0.950   0.134   3.151
 3652TIP3    H110920   1.044   0.147   3.137
 3652TIP3    H210921   0.913   0.130   3.063
 3653TIP3   OH210922   7.206   2.936   1.133
 3653TIP3    H110923   7.161   2.916   1.215
 3653TIP3    H210924   7.140   2.979   1.080
 3654TIP3   OH210925   1.789   1.660   3.457
 3654TIP3    H110926   1.805   1.596   3.387
 3654TIP3    H210927   1.854   1.728   3.442
 3655TIP3   OH210928   5.404   5.019   4.515
 3655TIP3    H110929   5.452   5.049   4.438
 3655TIP3    H210930   5.312   5.039   4.496
 3656TIP3   OH210931   4.800   6.212   0.275
 3656TIP3    H110932   4.795   6.158   0.196
 3656TIP3    H210933   4.713   6.250   0.284
 3657TIP3   OH210934   5.445   0.790   1.973
 3657TIP3    H110935   5.535   0.775   1.943
 3657TIP3    H210936   5.400   0.708   1.957
 3658TIP3   OH210937   6.765   2.102   4.394
 3658TIP3    H110938   6.855   2.093   4.425
 3658TIP3    H210939   6.749   2.022   4.344
 3659TIP3   OH210940   5.562   1.469   1.671
 3659TIP3    H110941   5.559   1.374   1.662
 3659TIP3    H210942   5.470   1.496   1.672
 3660TIP3   OH210943   6.092   4.581   5.819
 3660TIP3    H110944   6.002   4.577   5.852
 3660TIP3    H210945   6.084   4.617   5.731
 3661TIP3   OH210946   0.065   0.314   2.270
 3661TIP3    H110947  -0.001   0.381   2.285
 3661TIP3    H210948   0.016   0.238   2.239
 3662TIP3   OH210949   5.109   2.375   0.079
 3662TIP3    H110950   5.022   2.336   0.078
 3662TIP3    H210951   5.113   2.425   0.161
 3663TIP3   OH210952   6.710   0.019   0.230
 3663TIP3    H110953   6.662   0.057   0.157
 3663TIP3    H210954   6.692  -0.075   0.225
 3664TIP3   OH210955   4.600   2.838   0.842
 3664TIP3    H110956   4.508   2.813   0.857
 3664TIP3    H210957   4.629   2.875   0.925
 3665TIP3   OH210958   1.271   0.853   1.509
 3665TIP3    H110959   1.193   0.819   1.553
 3665TIP3    H210960   1.339   0.852   1.577
 3666TIP3   OH210961   2.348   3.808   3.907
 3666TIP3    H110962   2.333   3.718   3.877
 3666TIP3    H210963   2.303   3.813   3.991
 3667TIP3   OH210964   6.474   5.385   5.395
 3667TIP3    H110965   6.503   5.331   5.468
 3667TIP3    H210966   6.392   5.424   5.425
 3668TIP3   OH210967   3.974   2.710   1.894
 3668TIP3    H110968   3.934   2.718   1.808
 3668TIP3    H210969   3.999   2.799   1.917
 3669TIP3   OH210970   6.100   2.932   1.365
 3669TIP3    H110971   6.172   2.942   1.427
 3669TIP3    H210972   6.022   2.921   1.420
 3670TIP3   OH210973   3.681   0.818   4.059
 3670TIP3    H110974   3.700   0.837   4.151
 3670TIP3    H210975   3.751   0.758   4.032
 3671TIP3   OH210976   5.750   2.519   3.658
 3671TIP3    H110977   5.735   2.563   3.742
 3671TIP3    H210978   5.763   2.427   3.682
 3672TIP3   OH210979   0.300   5.110   0.389
 3672TIP3    H110980   0.256   5.147   0.466
 3672TIP3    H210981   0.392   5.134   0.400
 3673TIP3   OH210982   0.958   3.770   5.649
 3673TIP3    H110983   0.985   3.809   5.565
 3673TIP3    H210984   1.022   3.803   5.712
 3674TIP3   OH210985   4.959   1.997   1.743
 3674TIP3    H110986   4.881   1.958   1.703
 3674TIP3    H210987   4.982   2.070   1.684
 3675TIP3   OH210988   3.898   2.111   4.943
 3675TIP3    H110989   3.959   2.054   4.990
 3675TIP3    H210990   3.886   2.186   5.001
 3676TIP3   OH210991   5.165   6.261   3.543
 3676TIP3    H110992   5.145   6.193   3.608
 3676TIP3    H210993   5.099   6.328   3.558
 3677TIP3   OH210994   6.176   3.966   5.778
 3677TIP3    H110995   6.216   4.030   5.720
 3677TIP3    H210996   6.110   3.922   5.725
 3678TIP3   OH210997   4.246   1.028   1.398
 3678TIP3    H110998   4.205   0.999   1.316
 3678TIP3    H210999   4.284   0.948   1.435
 3679TIP3   OH211000   4.033   6.646   0.073
 3679TIP3    H111001   4.058   6.575   0.133
 3679TIP3    H211002   3.945   6.671   0.101
 3680TIP3   OH211003   5.853   2.444   1.753
 3680TIP3    H111004   5.831   2.524   1.801
 3680TIP3    H211005   5.823   2.461   1.664
 3681TIP3   OH211006   0.390   2.042   0.018
 3681TIP3    H111007   0.383   2.037   0.113
 3681TIP3    H211008   0.315   1.992  -0.015
 3682TIP3   OH211009   1.285   4.058   5.347
 3682TIP3    H111010   1.291   4.012   5.263
 3682TIP3    H211011   1.354   4.018   5.401
 3683TIP3   OH211012   6.562   1.506   1.993
 3683TIP3    H111013   6.624   1.569   1.957
 3683TIP3    H211014   6.524   1.462   1.917
 3684TIP3   OH211015   0.793   3.812   0.010
 3684TIP3    H111016   0.872   3.867   0.016
 3684TIP3    H211017   0.778   3.783   0.100
 3685TIP3   OH211018   4.535   4.610   0.086
 3685TIP3    H111019   4.490   4.644   0.009
 3685TIP3    H211020   4.473   4.623   0.158
 3686TIP3   OH211021   4.996   3.784   0.838
 3686TIP3    H111022   5.083   3.760   0.807
 3686TIP3    H211023   4.972   3.861   0.786
 3687TIP3   OH211024   2.538   5.286   3.030
 3687TIP3    H111025   2.547   5.242   2.946
 3687TIP3    H211026   2.561   5.220   3.095
 3688TIP3   OH211027   6.255   4.980   5.071
 3688TIP3    H111028   6.255   4.990   4.975
 3688TIP3    H211029   6.281   5.066   5.104
 3689TIP3   OH211030   4.169   3.132   5.123
 3689TIP3    H111031   4.210   3.046   5.131
 3689TIP3    H211032   4.116   3.141   5.202
 3690TIP3   OH211033   6.993   2.808   0.160
 3690TIP3    H111034   6.966   2.871   0.227
 3690TIP3    H211035   6.915   2.756   0.143
 3691TIP3   OH211036   2.618   5.002   0.438
 3691TIP3    H111037   2.615   4.908   0.419
 3691TIP3    H211038   2.642   5.007   0.530
 3692TIP3   OH211039   1.466   5.054   1.296
 3692TIP3    H111040   1.406   5.127   1.315
 3692TIP3    H211041   1.546   5.076   1.343
 3693TIP3   OH211042   1.754   1.372   3.554
 3693TIP3    H111043   1.766   1.467   3.555
 3693TIP3    H211044   1.672   1.358   3.600
 3694TIP3   OH211045   4.493   2.183   0.394
 3694TIP3    H111046   4.489   2.129   0.315
 3694TIP3    H211047   4.432   2.255   0.377
 3695TIP3   OH211048   5.636   3.069   4.561
 3695TIP3    H111049   5.666   3.128   4.630
 3695TIP3    H211050   5.630   3.123   4.483
 3696TIP3   OH211051   3.897   6.536   3.795
 3696TIP3    H111052   3.866   6.477   3.725
 3696TIP3    H211053   3.952   6.480   3.850
 3697TIP3   OH211054   2.821   4.279   5.728
 3697TIP3    H111055   2.738   4.233   5.716
 3697TIP3    H211056   2.874   4.254   5.653
 3698TIP3   OH211057   5.716   3.055   3.978
 3698TIP3    H111058   5.736   3.041   4.071
 3698TIP3    H211059   5.655   2.984   3.956
 3699TIP3   OH211060   3.717   6.723   5.690
 3699TIP3    H111061   3.680   6.640   5.661
 3699TIP3    H211062   3.652   6.789   5.665
 3700TIP3   OH211063   1.278   4.179   4.592
 3700TIP3    H111064   1.367   4.144   4.598
 3700TIP3    H211065   1.241   4.138   4.513
 3701TIP3   OH211066   0.868   5.231   3.055
 3701TIP3    H111067   0.779   5.266   3.043
 3701TIP3    H211068   0.863   5.142   3.020
 3702TIP3   OH211069   2.652   2.085   1.664
 3702TIP3    H111070   2.693   2.049   1.585
 3702TIP3    H211071   2.625   2.008   1.714
 3703TIP3   OH211072   1.294   4.538   3.188
 3703TIP3    H111073   1.384   4.570   3.185
 3703TIP3    H211074   1.245   4.607   3.233
 3704TIP3   OH211075   3.727   1.446   2.662
 3704TIP3    H111076   3.671   1.500   2.718
 3704TIP3    H211077   3.771   1.387   2.723
 3705TIP3   OH211078   5.599   1.608   0.665
 3705TIP3    H111079   5.510   1.572   0.672
 3705TIP3    H211080   5.586   1.700   0.644
 3706TIP3   OH211081   4.889   2.188   4.942
 3706TIP3    H111082   4.965   2.130   4.948
 3706TIP3    H211083   4.816   2.130   4.920
 3707TIP3   OH211084   1.207   2.716   5.166
 3707TIP3    H111085   1.168   2.745   5.249
 3707TIP3    H211086   1.144   2.654   5.131
 3708TIP3   OH211087   5.581   6.153   3.392
 3708TIP3    H111088   5.629   6.075   3.367
 3708TIP3    H211089   5.580   6.151   3.488
 3709TIP3   OH211090   0.221   3.153   3.354
 3709TIP3    H111091   0.152   3.206   3.393
 3709TIP3    H211092   0.301   3.201   3.372
 3710TIP3   OH211093   3.460   1.079   2.435
 3710TIP3    H111094   3.539   1.108   2.479
 3710TIP3    H211095   3.488   1.004   2.382
 3711TIP3   OH211096   6.713   2.666   2.396
 3711TIP3    H111097   6.736   2.573   2.388
 3711TIP3    H211098   6.736   2.689   2.486
 3712TIP3   OH211099   4.532   6.376   4.762
 3712TIP3    H111100   4.477   6.348   4.689
 3712TIP3    H211101   4.472   6.381   4.836
 3713TIP3   OH211102   6.202   1.320   0.727
 3713TIP3    H111103   6.252   1.355   0.800
 3713TIP3    H211104   6.111   1.341   0.748
 3714TIP3   OH211105   4.155   6.250   5.364
 3714TIP3    H111106   4.098   6.174   5.382
 3714TIP3    H211107   4.212   6.221   5.293
 3715TIP3   OH211108   2.723   4.487   4.666
 3715TIP3    H111109   2.770   4.404   4.668
 3715TIP3    H211110   2.744   4.525   4.581
 3716TIP3   OH211111   1.828   3.180   0.632
 3716TIP3    H111112   1.778   3.107   0.593
 3716TIP3    H211113   1.762   3.232   0.677
 3717TIP3   OH211114   6.819   4.196   3.591
 3717TIP3    H111115   6.731   4.215   3.623
 3717TIP3    H211116   6.821   4.100   3.584
 3718TIP3   OH211117   2.698   5.036   5.572
 3718TIP3    H111118   2.769   5.071   5.627
 3718TIP3    H211119   2.685   5.102   5.504
 3719TIP3   OH211120   4.663   5.289   1.252
 3719TIP3    H111121   4.589   5.344   1.277
 3719TIP3    H211122   4.675   5.305   1.158
 3720TIP3   OH211123   4.154   6.585   2.415
 3720TIP3    H111124   4.135   6.669   2.374
 3720TIP3    H211125   4.208   6.538   2.352
 3721TIP3   OH211126   2.044   0.624   4.815
 3721TIP3    H111127   2.051   0.572   4.895
 3721TIP3    H211128   2.023   0.561   4.746
 3722TIP3   OH211129   5.725   3.003   4.249
 3722TIP3    H111130   5.645   2.951   4.248
 3722TIP3    H211131   5.701   3.085   4.291
 3723TIP3   OH211132   6.139   2.058   4.633
 3723TIP3    H111133   6.224   2.028   4.665
 3723TIP3    H211134   6.147   2.154   4.631
 3724TIP3   OH211135   1.772   4.813   5.776
 3724TIP3    H111136   1.764   4.726   5.813
 3724TIP3    H211137   1.812   4.799   5.690
 3725TIP3   OH211138   3.061   4.701   0.395
 3725TIP3    H111139   2.997   4.758   0.353
 3725TIP3    H211140   3.105   4.757   0.459
 3726TIP3   OH211141   2.540   3.891   4.463
 3726TIP3    H111142   2.445   3.892   4.452
 3726TIP3    H211143   2.574   3.904   4.374
 3727TIP3   OH211144   0.189   2.735   4.915
 3727TIP3    H111145   0.141   2.814   4.942
 3727TIP3    H211146   0.140   2.702   4.840
 3728TIP3   OH211147   3.176   3.486   0.672
 3728TIP3    H111148   3.177   3.573   0.714
 3728TIP3    H211149   3.084   3.460   0.674
 3729TIP3   OH211150   3.890   0.363   2.383
 3729TIP3    H111151   3.951   0.382   2.312
 3729TIP3    H211152   3.806   0.348   2.340
 3730TIP3   OH211153   6.842   1.536   1.995
 3730TIP3    H111154   6.810   1.447   2.010
 3730TIP3    H211155   6.896   1.530   1.917
 3731TIP3   OH211156   2.849   2.157   1.392
 3731TIP3    H111157   2.903   2.215   1.338
 3731TIP3    H211158   2.772   2.139   1.338
 3732TIP3   OH211159   4.231   5.894   0.519
 3732TIP3    H111160   4.162   5.924   0.578
 3732TIP3    H211161   4.212   5.802   0.504
 3733TIP3   OH211162   4.553   3.072   0.191
 3733TIP3    H111163   4.557   3.021   0.110
 3733TIP3    H211164   4.637   3.117   0.196
 3734TIP3   OH211165   2.445   3.013   3.382
 3734TIP3    H111166   2.537   2.989   3.365
 3734TIP3    H211167   2.396   2.934   3.358
 3735TIP3   OH211168   3.047   4.783   5.830
 3735TIP3    H111169   3.136   4.777   5.794
 3735TIP3    H211170   3.061   4.800   5.923
 3736TIP3   OH211171   2.581   1.155   0.321
 3736TIP3    H111172   2.591   1.074   0.371
 3736TIP3    H211173   2.486   1.167   0.314
 3737TIP3   OH211174   4.514   4.679   2.562
 3737TIP3    H111175   4.499   4.751   2.501
 3737TIP3    H211176   4.442   4.684   2.625
 3738TIP3   OH211177   3.238   3.645   4.273
 3738TIP3    H111178   3.293   3.674   4.200
 3738TIP3    H211179   3.153   3.685   4.255
 3739TIP3   OH211180   5.724   4.205   4.421
 3739TIP3    H111181   5.742   4.267   4.350
 3739TIP3    H211182   5.773   4.126   4.396
 3740TIP3   OH211183   1.039   2.025   4.981
 3740TIP3    H111184   1.048   2.070   5.066
 3740TIP3    H211185   1.129   2.005   4.955
 3741TIP3   OH211186   3.702   4.070   4.138
 3741TIP3    H111187   3.745   3.985   4.128
 3741TIP3    H211188   3.609   4.051   4.125
 3742TIP3   OH211189   3.560   5.016   2.262
 3742TIP3    H111190   3.481   5.036   2.312
 3742TIP3    H211191   3.548   5.060   2.178
 3743TIP3   OH211192   3.899   0.133   1.722
 3743TIP3    H111193   3.884   0.053   1.772
 3743TIP3    H211194   3.974   0.113   1.666
 3744TIP3   OH211195   5.682   4.027   5.512
 3744TIP3    H111196   5.715   4.036   5.601
 3744TIP3    H211197   5.755   3.990   5.463
 3745TIP3   OH211198   3.982   5.059   5.887
 3745TIP3    H111199   3.960   5.145   5.851
 3745TIP3    H211200   4.048   5.024   5.828
 3746TIP3   OH211201   2.242   0.636   5.167
 3746TIP3    H111202   2.190   0.715   5.179
 3746TIP3    H211203   2.329   0.667   5.142
 3747TIP3   OH211204   3.726   3.097   2.556
 3747TIP3    H111205   3.815   3.122   2.582
 3747TIP3    H211206   3.733   3.075   2.463
 3748TIP3   OH211207   1.357   3.380   2.294
 3748TIP3    H111208   1.274   3.419   2.322
 3748TIP3    H211209   1.386   3.329   2.369
 3749TIP3   OH211210   2.189   1.330   1.450
 3749TIP3    H111211   2.177   1.419   1.481
 3749TIP3    H211212   2.230   1.339   1.364
 3750TIP3   OH211213   5.175   2.929   1.162
 3750TIP3    H111214   5.162   3.008   1.215
 3750TIP3    H211215   5.270   2.914   1.165
 3751TIP3   OH211216   4.098   3.838   2.158
 3751TIP3    H111217   4.059   3.921   2.184
 3751TIP3    H211218   4.024   3.783   2.133
 3752TIP3   OH211219   0.922   0.223   2.113
 3752TIP3    H111220   0.947   0.315   2.123
 3752TIP3    H211221   0.934   0.204   2.020
 3753TIP3   OH211222   2.989   5.433   4.737
 3753TIP3    H111223   3.026   5.429   4.649
 3753TIP3    H211224   2.936   5.353   4.744
 3754TIP3   OH211225   1.050   1.072   3.054
 3754TIP3    H111226   1.034   1.110   3.140
 3754TIP3    H211227   1.064   0.979   3.071
 3755TIP3   OH211228   7.154   6.318   4.094
 3755TIP3    H111229   7.126   6.255   4.027
 3755TIP3    H211230   7.117   6.283   4.175
 3756TIP3   OH211231   4.158   1.702   4.833
 3756TIP3    H111232   4.182   1.769   4.897
 3756TIP3    H211233   4.164   1.620   4.881
 3757TIP3   OH211234   1.071   2.482   3.157
 3757TIP3    H111235   1.137   2.469   3.088
 3757TIP3    H211236   1.112   2.445   3.235
 3758TIP3   OH211237   4.248   1.766   4.535
 3758TIP3    H111238   4.271   1.756   4.628
 3758TIP3    H211239   4.256   1.859   4.518
 3759TIP3   OH211240   3.800   3.871   2.130
 3759TIP3    H111241   3.751   3.895   2.209
 3759TIP3    H211242   3.871   3.935   2.126
 3760TIP3   OH211243   0.616   4.404   5.256
 3760TIP3    H111244   0.673   4.434   5.185
 3760TIP3    H211245   0.527   4.411   5.220
 3761TIP3   OH211246   5.567   1.942   2.374
 3761TIP3    H111247   5.559   1.858   2.420
 3761TIP3    H211248   5.650   1.978   2.403
 3762TIP3   OH211249   6.555   1.821   4.649
 3762TIP3    H111250   6.525   1.790   4.564
 3762TIP3    H211251   6.475   1.849   4.694
 3763TIP3   OH211252   5.597   2.802   4.552
 3763TIP3    H111253   5.510   2.801   4.513
 3763TIP3    H211254   5.623   2.895   4.550
 3764TIP3   OH211255   0.391   5.507   2.192
 3764TIP3    H111256   0.482   5.488   2.214
 3764TIP3    H211257   0.388   5.503   2.096
 3765TIP3   OH211258   2.111   1.953   5.855
 3765TIP3    H111259   2.103   1.959   5.760
 3765TIP3    H211260   2.150   2.037   5.881
 3766TIP3   OH211261   0.351   1.626   4.541
 3766TIP3    H111262   0.420   1.633   4.475
 3766TIP3    H211263   0.385   1.674   4.616
 3767TIP3   OH211264   6.878   0.142   4.947
 3767TIP3    H111265   6.956   0.105   4.989
 3767TIP3    H211266   6.912   0.181   4.866
 3768TIP3   OH211267   1.056   0.937   4.929
 3768TIP3    H111268   1.106   1.012   4.898
 3768TIP3    H211269   1.104   0.907   5.007
 3769TIP3   OH211270   2.642   5.397   3.734
 3769TIP3    H111271   2.716   5.348   3.772
 3769TIP3    H211272   2.683   5.457   3.672
 3770TIP3   OH211273   4.542   3.991   0.201
 3770TIP3    H111274   4.479   3.922   0.180
 3770TIP3    H211275   4.519   4.018   0.290
 3771TIP3   OH211276   1.967   0.493   4.581
 3771TIP3    H111277   2.019   0.525   4.508
 3771TIP3    H211278   1.963   0.398   4.568
 3772TIP3   OH211279   4.079   3.670   2.998
 3772TIP3    H111280   4.110   3.621   2.921
 3772TIP3    H211281   4.031   3.744   2.961
 3773TIP3   OH211282   3.223   5.399   3.993
 3773TIP3    H111283   3.265   5.351   3.921
 3773TIP3    H211284   3.219   5.489   3.962
 3774TIP3   OH211285   1.618   1.623   3.940
 3774TIP3    H111286   1.592   1.615   4.032
 3774TIP3    H211287   1.695   1.680   3.941
 3775TIP3   OH211288   6.867   0.271   4.451
 3775TIP3    H111289   6.815   0.351   4.445
 3775TIP3    H211290   6.958   0.302   4.441
 3776TIP3   OH211291   6.847   0.584   2.082
 3776TIP3    H111292   6.879   0.515   2.024
 3776TIP3    H211293   6.881   0.665   2.043
 3777TIP3   OH211294   6.903   0.573   3.589
 3777TIP3    H111295   6.969   0.588   3.656
 3777TIP3    H211296   6.837   0.518   3.631
 3778TIP3   OH211297   2.122   5.415   4.915
 3778TIP3    H111298   2.146   5.335   4.868
 3778TIP3    H211299   2.155   5.486   4.860
 3779TIP3   OH211300   3.082   2.636   3.768
 3779TIP3    H111301   3.029   2.702   3.813
 3779TIP3    H211302   3.022   2.595   3.706
 3780TIP3   OH211303   3.189   0.951   4.138
 3780TIP3    H111304   3.126   0.926   4.070
 3780TIP3    H211305   3.271   0.910   4.110
 3781TIP3   OH211306   6.487   1.057   4.532
 3781TIP3    H111307   6.414   1.008   4.569
 3781TIP3    H211308   6.456   1.147   4.526
 3782TIP3   OH211309   0.543   3.907   5.763
 3782TIP3    H111310   0.591   3.898   5.681
 3782TIP3    H211311   0.608   3.938   5.826
 3783TIP3   OH211312   7.051   5.336   1.828
 3783TIP3    H111313   7.050   5.257   1.774
 3783TIP3    H211314   7.142   5.363   1.829
 3784TIP3   OH211315   6.097   5.719   3.797
 3784TIP3    H111316   6.075   5.664   3.723
 3784TIP3    H211317   6.116   5.805   3.759
 3785TIP3   OH211318   2.188   3.524   1.050
 3785TIP3    H111319   2.224   3.442   1.017
 3785TIP3    H211320   2.104   3.533   1.004
 3786TIP3   OH211321   3.938   6.386   5.680
 3786TIP3    H111322   3.900   6.348   5.601
 3786TIP3    H211323   3.944   6.479   5.662
 3787TIP3   OH211324   3.083   6.361   2.639
 3787TIP3    H111325   3.009   6.393   2.587
 3787TIP3    H211326   3.042   6.325   2.718
 3788TIP3   OH211327   2.274   1.951   4.411
 3788TIP3    H111328   2.307   2.041   4.409
 3788TIP3    H211329   2.351   1.897   4.398
 3789TIP3   OH211330   4.542   0.758   4.698
 3789TIP3    H111331   4.493   0.839   4.714
 3789TIP3    H211332   4.633   0.782   4.710
 3790TIP3   OH211333   6.657   4.120   2.260
 3790TIP3    H111334   6.717   4.135   2.333
 3790TIP3    H211335   6.584   4.071   2.299
 3791TIP3   OH211336   1.842   6.764   0.604
 3791TIP3    H111337   1.914   6.739   0.661
 3791TIP3    H211338   1.763   6.739   0.651
 3792TIP3   OH211339   1.737   0.326   2.982
 3792TIP3    H111340   1.822   0.367   2.997
 3792TIP3    H211341   1.739   0.303   2.889
 3793TIP3   OH211342   1.628   0.296   0.181
 3793TIP3    H111343   1.656   0.207   0.202
 3793TIP3    H211344   1.534   0.288   0.163
 3794TIP3   OH211345   1.449   3.965   0.064
 3794TIP3    H111346   1.468   4.022   0.138
 3794TIP3    H211347   1.457   4.023  -0.013
 3795TIP3   OH211348   7.123   0.499   2.810
 3795TIP3    H111349   7.078   0.520   2.728
 3795TIP3    H211350   7.167   0.581   2.834
 3796TIP3   OH211351   1.375   3.265   3.412
 3796TIP3    H111352   1.439   3.198   3.439
 3796TIP3    H211353   1.348   3.239   3.324
 3797TIP3   OH211354   4.871   6.567   3.074
 3797TIP3    H111355   4.886   6.524   3.158
 3797TIP3    H211356   4.903   6.656   3.086
 3798TIP3   OH211357   0.688   6.727   5.613
 3798TIP3    H111358   0.687   6.632   5.605
 3798TIP3    H211359   0.602   6.755   5.582
 3799TIP3   OH211360   1.445   1.079   0.676
 3799TIP3    H111361   1.431   0.995   0.721
 3799TIP3    H211362   1.383   1.138   0.718
 3800TIP3   OH211363   6.392   5.065   2.780
 3800TIP3    H111364   6.439   5.017   2.712
 3800TIP3    H211365   6.426   5.029   2.862
 3801TIP3   OH211366   0.040   4.840   1.647
 3801TIP3    H111367   0.109   4.777   1.667
 3801TIP3    H211368   0.065   4.877   1.563
 3802TIP3   OH211369   3.419   3.235   5.806
 3802TIP3    H111370   3.429   3.286   5.886
 3802TIP3    H211371   3.425   3.299   5.735
 3803TIP3   OH211372   0.634   1.004   3.406
 3803TIP3    H111373   0.682   0.929   3.372
 3803TIP3    H211374   0.552   0.966   3.439
 3804TIP3   OH211375   4.405   5.555   0.404
 3804TIP3    H111376   4.459   5.629   0.374
 3804TIP3    H211377   4.397   5.569   0.499
 3805TIP3   OH211378   0.793   5.213   0.617
 3805TIP3    H111379   0.732   5.201   0.544
 3805TIP3    H211380   0.770   5.143   0.679
 3806TIP3   OH211381   5.682   4.494   1.583
 3806TIP3    H111382   5.688   4.408   1.625
 3806TIP3    H211383   5.676   4.474   1.489
 3807TIP3   OH211384   0.124   6.133   5.188
 3807TIP3    H111385   0.090   6.117   5.276
 3807TIP3    H211386   0.047   6.158   5.137
 3808TIP3   OH211387   5.152   3.802   2.260
 3808TIP3    H111388   5.081   3.748   2.296
 3808TIP3    H211389   5.225   3.740   2.248
 3809TIP3   OH211390   1.055   6.704   4.782
 3809TIP3    H111391   1.093   6.625   4.819
 3809TIP3    H211392   1.060   6.768   4.853
 3810TIP3   OH211393   0.759   3.548   5.100
 3810TIP3    H111394   0.726   3.504   5.022
 3810TIP3    H211395   0.682   3.593   5.136
 3811TIP3   OH211396   4.584   1.590   1.937
 3811TIP3    H111397   4.593   1.497   1.915
 3811TIP3    H211398   4.543   1.629   1.860
 3812TIP3   OH211399   4.495   5.468   1.887
 3812TIP3    H111400   4.552   5.400   1.850
 3812TIP3    H211401   4.455   5.509   1.811
 3813TIP3   OH211402   6.866   6.038   5.159
 3813TIP3    H111403   6.779   6.071   5.138
 3813TIP3    H211404   6.891   5.984   5.084
 3814TIP3   OH211405   2.089   1.204   2.660
 3814TIP3    H111406   2.032   1.204   2.584
 3814TIP3    H211407   2.098   1.296   2.684
 3815TIP3   OH211408   6.857   3.342   0.876
 3815TIP3    H111409   6.833   3.330   0.784
 3815TIP3    H211410   6.782   3.387   0.915
 3816TIP3   OH211411   6.700   3.726   0.918
 3816TIP3    H111412   6.750   3.763   0.992
 3816TIP3    H211413   6.765   3.676   0.869
 3817TIP3   OH211414   0.287   4.294   4.316
 3817TIP3    H111415   0.354   4.323   4.378
 3817TIP3    H211416   0.334   4.234   4.258
 3818TIP3   OH211417   3.104   4.564   3.234
 3818TIP3    H111418   3.113   4.476   3.197
 3818TIP3    H211419   3.078   4.550   3.325
 3819TIP3   OH211420   2.078   3.832   5.010
 3819TIP3    H111421   2.037   3.772   5.072
 3819TIP3    H211422   2.171   3.811   5.015
 3820TIP3   OH211423   1.393   3.117   4.030
 3820TIP3    H111424   1.299   3.111   4.016
 3820TIP3    H211425   1.432   3.063   3.961
 3821TIP3   OH211426   6.749   6.035   2.034
 3821TIP3    H111427   6.747   5.941   2.016
 3821TIP3    H211428   6.728   6.075   1.949
 3822TIP3   OH211429   3.387   6.100   2.227
 3822TIP3    H111430   3.331   6.126   2.155
 3822TIP3    H211431   3.343   6.024   2.266
 3823TIP3   OH211432   5.342   0.979   3.190
 3823TIP3    H111433   5.325   1.013   3.102
 3823TIP3    H211434   5.256   0.979   3.232
 3824TIP3   OH211435   3.269   2.733   5.887
 3824TIP3    H111436   3.314   2.757   5.807
 3824TIP3    H211437   3.299   2.797   5.952
 3825TIP3   OH211438   1.454   2.033   3.831
 3825TIP3    H111439   1.545   2.015   3.807
 3825TIP3    H211440   1.449   2.129   3.836
 3826TIP3   OH211441   1.251   3.904   3.721
 3826TIP3    H111442   1.217   3.922   3.633
 3826TIP3    H211443   1.305   3.980   3.742
 3827TIP3   OH211444   4.257   0.836   5.651
 3827TIP3    H111445   4.253   0.781   5.729
 3827TIP3    H211446   4.273   0.774   5.579
 3828TIP3   OH211447   0.558   2.181   3.810
 3828TIP3    H111448   0.509   2.105   3.779
 3828TIP3    H211449   0.598   2.152   3.893
 3829TIP3   OH211450   1.049   0.844   5.487
 3829TIP3    H111451   1.108   0.916   5.466
 3829TIP3    H211452   1.107   0.768   5.494
 3830TIP3   OH211453   4.633   6.688   2.071
 3830TIP3    H111454   4.564   6.696   2.005
 3830TIP3    H211455   4.685   6.614   2.042
 3831TIP3   OH211456   2.865   4.796   2.010
 3831TIP3    H111457   2.920   4.725   1.979
 3831TIP3    H211458   2.838   4.843   1.931
 3832TIP3   OH211459   3.345   6.171   5.825
 3832TIP3    H111460   3.291   6.167   5.904
 3832TIP3    H211461   3.371   6.080   5.809
 3833TIP3   OH211462   3.426   1.476   4.322
 3833TIP3    H111463   3.426   1.556   4.270
 3833TIP3    H211464   3.334   1.448   4.323
 3834TIP3   OH211465   4.081   2.140   5.179
 3834TIP3    H111466   4.079   2.215   5.239
 3834TIP3    H211467   4.114   2.068   5.232
 3835TIP3   OH211468   6.659   1.030   5.351
 3835TIP3    H111469   6.603   1.100   5.386
 3835TIP3    H211470   6.598   0.970   5.309
 3836TIP3   OH211471   3.024   3.256   2.418
 3836TIP3    H111472   3.072   3.264   2.335
 3836TIP3    H211473   3.080   3.299   2.482
 3837TIP3   OH211474   5.437   3.531   4.961
 3837TIP3    H111475   5.472   3.443   4.952
 3837TIP3    H211476   5.510   3.583   4.995
 3838TIP3   OH211477   4.004   0.791   5.377
 3838TIP3    H111478   4.062   0.721   5.345
 3838TIP3    H211479   3.961   0.752   5.453
 3839TIP3   OH211480   0.952   6.260   5.378
 3839TIP3    H111481   0.999   6.310   5.444
 3839TIP3    H211482   1.001   6.179   5.369
 3840TIP3   OH211483   2.423   4.511   4.182
 3840TIP3    H111484   2.488   4.546   4.121
 3840TIP3    H211485   2.362   4.462   4.128
 3841TIP3   OH211486   6.366   5.279   0.176
 3841TIP3    H111487   6.440   5.337   0.159
 3841TIP3    H211488   6.295   5.338   0.203
 3842TIP3   OH211489   0.125   5.670   1.558
 3842TIP3    H111490   0.104   5.751   1.511
 3842TIP3    H211491   0.089   5.601   1.502
 3843TIP3   OH211492   6.436   2.111   4.733
 3843TIP3    H111493   6.418   2.205   4.737
 3843TIP3    H211494   6.395   2.075   4.811
 3844TIP3   OH211495   1.533   5.835   0.792
 3844TIP3    H111496   1.492   5.919   0.770
 3844TIP3    H211497   1.464   5.785   0.835
 3845TIP3   OH211498   1.043   0.888   2.306
 3845TIP3    H111499   1.072   0.957   2.246
 3845TIP3    H211500   1.100   0.814   2.286
 3846TIP3   OH211501   5.559   4.771   4.641
 3846TIP3    H111502   5.486   4.769   4.578
 3846TIP3    H211503   5.547   4.691   4.693
 3847TIP3   OH211504   0.753   2.663   1.381
 3847TIP3    H111505   0.785   2.745   1.417
 3847TIP3    H211506   0.681   2.688   1.323
 3848TIP3   OH211507   5.604   6.567   2.722
 3848TIP3    H111508   5.568   6.599   2.805
 3848TIP3    H211509   5.626   6.647   2.673
 3849TIP3   OH211510   1.690   6.639   4.067
 3849TIP3    H111511   1.620   6.576   4.047
 3849TIP3    H211512   1.749   6.591   4.125
 3850TIP3   OH211513   4.560   4.011   2.585
 3850TIP3    H111514   4.548   3.986   2.493
 3850TIP3    H211515   4.546   3.930   2.634
 3851TIP3   OH211516   2.397   6.218   0.564
 3851TIP3    H111517   2.463   6.165   0.609
 3851TIP3    H211518   2.314   6.174   0.584
 3852TIP3   OH211519   6.229   2.124   1.517
 3852TIP3    H111520   6.222   2.053   1.581
 3852TIP3    H211521   6.206   2.203   1.566
 3853TIP3   OH211522   1.913   1.789   0.138
 3853TIP3    H111523   1.886   1.880   0.127
 3853TIP3    H211524   1.877   1.763   0.223
 3854TIP3   OH211525   6.405   0.515   0.556
 3854TIP3    H111526   6.392   0.479   0.644
 3854TIP3    H211527   6.418   0.609   0.571
 3855TIP3   OH211528   0.995   2.014   2.102
 3855TIP3    H111529   1.068   1.964   2.139
 3855TIP3    H211530   0.924   2.003   2.165
 3856TIP3   OH211531   0.980   1.942   0.447
 3856TIP3    H111532   0.984   1.986   0.362
 3856TIP3    H211533   1.033   1.997   0.505
 3857TIP3   OH211534   5.061   3.873   1.978
 3857TIP3    H111535   5.098   3.785   1.967
 3857TIP3    H211536   5.108   3.910   2.053
 3858TIP3   OH211537   3.734   1.778   4.559
 3858TIP3    H111538   3.723   1.850   4.496
 3858TIP3    H211539   3.793   1.813   4.625
 3859TIP3   OH211540   2.099   4.020   3.128
 3859TIP3    H111541   2.190   4.019   3.099
 3859TIP3    H211542   2.050   4.052   3.052
 3860TIP3   OH211543   2.556   5.075   5.248
 3860TIP3    H111544   2.572   5.092   5.156
 3860TIP3    H211545   2.592   4.988   5.263
 3861TIP3   OH211546   2.068   6.442   5.591
 3861TIP3    H111547   2.039   6.513   5.648
 3861TIP3    H211548   1.990   6.386   5.581
 3862TIP3   OH211549   5.308   6.694   0.403
 3862TIP3    H111550   5.322   6.731   0.490
 3862TIP3    H211551   5.336   6.763   0.343
 3863TIP3   OH211552   2.685   2.911   0.458
 3863TIP3    H111553   2.703   2.997   0.497
 3863TIP3    H211554   2.749   2.852   0.498
 3864TIP3   OH211555   5.762   2.854   0.332
 3864TIP3    H111556   5.774   2.939   0.290
 3864TIP3    H211557   5.710   2.873   0.409
 3865TIP3   OH211558   0.684   2.377   4.412
 3865TIP3    H111559   0.610   2.350   4.465
 3865TIP3    H211560   0.730   2.442   4.466
 3866TIP3   OH211561   3.405   2.395   1.945
 3866TIP3    H111562   3.362   2.462   1.998
 3866TIP3    H211563   3.334   2.339   1.914
 3867TIP3   OH211564   3.761   4.580   0.657
 3867TIP3    H111565   3.818   4.519   0.611
 3867TIP3    H211566   3.677   4.534   0.665
 3868TIP3   OH211567   5.578   1.527   1.963
 3868TIP3    H111568   5.495   1.559   1.999
 3868TIP3    H211569   5.552   1.472   1.889
 3869TIP3   OH211570   6.228   4.353   2.137
 3869TIP3    H111571   6.258   4.331   2.049
 3869TIP3    H211572   6.137   4.380   2.125
 3870TIP3   OH211573   6.736   5.174   1.860
 3870TIP3    H111574   6.648   5.139   1.873
 3870TIP3    H211575   6.776   5.116   1.795
 3871TIP3   OH211576   2.954   4.530   4.021
 3871TIP3    H111577   2.873   4.479   4.029
 3871TIP3    H211578   2.947   4.572   3.935
 3872TIP3   OH211579   3.265   2.767   4.962
 3872TIP3    H111580   3.349   2.723   4.951
 3872TIP3    H211581   3.275   2.851   4.917
 3873TIP3   OH211582   2.696   5.207   4.797
 3873TIP3    H111583   2.679   5.159   4.879
 3873TIP3    H211584   2.691   5.299   4.822
 3874TIP3   OH211585   0.904   4.425   5.531
 3874TIP3    H111586   0.933   4.516   5.522
 3874TIP3    H211587   0.942   4.379   5.456
 3875TIP3   OH211588   2.593   2.046   1.273
 3875TIP3    H111589   2.582   2.018   1.182
 3875TIP3    H211590   2.525   2.112   1.287
 3876TIP3   OH211591   2.531   5.030   1.969
 3876TIP3    H111592   2.521   4.974   2.046
 3876TIP3    H211593   2.609   5.082   1.987
 3877TIP3   OH211594   2.505   1.625   1.819
 3877TIP3    H111595   2.492   1.600   1.911
 3877TIP3    H211596   2.448   1.565   1.770
 3878TIP3   OH211597   0.143   4.426   4.589
 3878TIP3    H111598   0.125   4.519   4.606
 3878TIP3    H211599   0.165   4.423   4.496
 3879TIP3   OH211600   5.157   2.092   5.209
 3879TIP3    H111601   5.155   2.186   5.192
 3879TIP3    H211602   5.082   2.076   5.266
 3880TIP3   OH211603   6.809   1.415   4.154
 3880TIP3    H111604   6.839   1.357   4.083
 3880TIP3    H211605   6.800   1.501   4.113
 3881TIP3   OH211606   1.859   2.338   1.425
 3881TIP3    H111607   1.904   2.347   1.510
 3881TIP3    H211608   1.802   2.414   1.420
 3882TIP3   OH211609   3.534   1.605   1.973
 3882TIP3    H111610   3.604   1.597   2.038
 3882TIP3    H211611   3.467   1.657   2.017
 3883TIP3   OH211612   5.915   5.813   0.187
 3883TIP3    H111613   5.904   5.897   0.232
 3883TIP3    H211614   5.835   5.804   0.135
 3884TIP3   OH211615   6.784   1.218   5.199
 3884TIP3    H111616   6.728   1.156   5.244
 3884TIP3    H211617   6.747   1.304   5.220
 3885TIP3   OH211618   0.355   2.452   2.046
 3885TIP3    H111619   0.391   2.371   2.012
 3885TIP3    H211620   0.315   2.494   1.970
 3886TIP3   OH211621   0.840   1.503   5.226
 3886TIP3    H111622   0.869   1.422   5.269
 3886TIP3    H211623   0.750   1.486   5.199
 3887TIP3   OH211624   4.895   6.297   4.712
 3887TIP3    H111625   4.891   6.375   4.657
 3887TIP3    H211626   4.836   6.316   4.785
 3888TIP3   OH211627   1.072   0.565   4.483
 3888TIP3    H111628   1.048   0.547   4.574
 3888TIP3    H211629   1.129   0.491   4.459
 3889TIP3   OH211630   5.479   5.320   5.089
 3889TIP3    H111631   5.421   5.375   5.037
 3889TIP3    H211632   5.540   5.283   5.026
 3890TIP3   OH211633   1.785   2.473   3.381
 3890TIP3    H111634   1.788   2.426   3.297
 3890TIP3    H211635   1.751   2.410   3.443
 3891TIP3   OH211636   5.783   5.820   0.885
 3891TIP3    H111637   5.756   5.867   0.806
 3891TIP3    H211638   5.874   5.848   0.899
 3892TIP3   OH211639   4.742   1.332   2.223
 3892TIP3    H111640   4.688   1.256   2.246
 3892TIP3    H211641   4.756   1.323   2.128
 3893TIP3   OH211642   4.945   0.038   2.742
 3893TIP3    H111643   4.899  -0.046   2.736
 3893TIP3    H211644   4.988   0.036   2.827
 3894TIP3   OH211645   7.060   1.186   1.865
 3894TIP3    H111646   6.965   1.181   1.854
 3894TIP3    H211647   7.073   1.236   1.946
 3895TIP3   OH211648   4.548   2.684   2.591
 3895TIP3    H111649   4.490   2.654   2.661
 3895TIP3    H211650   4.636   2.678   2.628
 3896TIP3   OH211651   4.309   4.851   3.720
 3896TIP3    H111652   4.254   4.924   3.692
 3896TIP3    H211653   4.302   4.851   3.816
 3897TIP3   OH211654   1.954   4.808   3.328
 3897TIP3    H111655   1.956   4.894   3.286
 3897TIP3    H211656   2.004   4.819   3.409
 3898TIP3   OH211657   6.181   1.490   2.849
 3898TIP3    H111658   6.216   1.469   2.762
 3898TIP3    H211659   6.115   1.557   2.833
 3899TIP3   OH211660   4.083   0.663   1.212
 3899TIP3    H111661   4.067   0.731   1.278
 3899TIP3    H211662   4.150   0.701   1.155
 3900TIP3   OH211663   3.258   2.590   2.067
 3900TIP3    H111664   3.192   2.602   1.998
 3900TIP3    H211665   3.315   2.666   2.060
 3901TIP3   OH211666   5.615   5.228   1.261
 3901TIP3    H111667   5.534   5.268   1.294
 3901TIP3    H211668   5.684   5.265   1.317
 3902TIP3   OH211669   4.005   0.565   3.552
 3902TIP3    H111670   4.095   0.533   3.561
 3902TIP3    H211671   3.952   0.485   3.547
 3903TIP3   OH211672   5.417   2.387   2.265
 3903TIP3    H111673   5.478   2.454   2.295
 3903TIP3    H211674   5.333   2.432   2.260
 3904TIP3   OH211675   7.094   2.904   4.441
 3904TIP3    H111676   7.067   2.996   4.435
 3904TIP3    H211677   7.014   2.854   4.421
 3905TIP3   OH211678   0.196   4.288   1.478
 3905TIP3    H111679   0.229   4.290   1.568
 3905TIP3    H211680   0.142   4.209   1.473
 3906TIP3   OH211681   3.472   3.623   0.971
 3906TIP3    H111682   3.530   3.587   1.038
 3906TIP3    H211683   3.451   3.548   0.915
 3907TIP3   OH211684   0.274   2.851   2.291
 3907TIP3    H111685   0.362   2.823   2.316
 3907TIP3    H211686   0.286   2.938   2.253
 3908TIP3   OH211687   0.530   4.036   0.961
 3908TIP3    H111688   0.532   4.066   0.870
 3908TIP3    H211689   0.609   4.073   1.001
 3909TIP3   OH211690   4.010   0.249   2.033
 3909TIP3    H111691   4.023   0.295   1.950
 3909TIP3    H211692   4.086   0.192   2.041
 3910TIP3   OH211693   5.464   6.266   5.593
 3910TIP3    H111694   5.426   6.337   5.542
 3910TIP3    H211695   5.555   6.259   5.562
 3911TIP3   OH211696   3.876   2.485   0.592
 3911TIP3    H111697   3.809   2.468   0.526
 3911TIP3    H211698   3.938   2.412   0.582
 3912TIP3   OH211699   4.424   1.705   4.167
 3912TIP3    H111700   4.480   1.631   4.144
 3912TIP3    H211701   4.372   1.673   4.240
 3913TIP3   OH211702   3.644   6.004   4.317
 3913TIP3    H111703   3.697   5.952   4.257
 3913TIP3    H211704   3.569   5.949   4.337
 3914TIP3   OH211705   5.159   0.598   4.410
 3914TIP3    H111706   5.223   0.598   4.482
 3914TIP3    H211707   5.210   0.571   4.334
 3915TIP3   OH211708   6.629   6.119   2.973
 3915TIP3    H111709   6.580   6.044   3.009
 3915TIP3    H211710   6.684   6.080   2.905
 3916TIP3   OH211711   4.157   3.511   2.773
 3916TIP3    H111712   4.248   3.526   2.798
 3916TIP3    H211713   4.145   3.416   2.784
 3917TIP3   OH211714   2.980   4.572   5.111
 3917TIP3    H111715   3.040   4.505   5.078
 3917TIP3    H211716   2.917   4.584   5.040
 3918TIP3   OH211717   4.141   1.297   0.267
 3918TIP3    H111718   4.101   1.299   0.181
 3918TIP3    H211719   4.136   1.206   0.294
 3919TIP3   OH211720   3.935   2.196   0.864
 3919TIP3    H111721   3.903   2.113   0.901
 3919TIP3    H211722   3.874   2.262   0.896
 3920TIP3   OH211723   0.579   0.396   3.895
 3920TIP3    H111724   0.584   0.490   3.880
 3920TIP3    H211725   0.507   0.365   3.841
 3921TIP3   OH211726   2.757   3.182   1.098
 3921TIP3    H111727   2.687   3.240   1.068
 3921TIP3    H211728   2.835   3.211   1.050
 3922TIP3   OH211729   1.615   2.723   5.642
 3922TIP3    H111730   1.664   2.641   5.641
 3922TIP3    H211731   1.650   2.772   5.567
 3923TIP3   OH211732   2.951   0.675   4.079
 3923TIP3    H111733   3.046   0.676   4.084
 3923TIP3    H211734   2.923   0.661   4.170
 3924TIP3   OH211735   4.771   3.742   5.138
 3924TIP3    H111736   4.831   3.815   5.156
 3924TIP3    H211737   4.700   3.753   5.202
 3925TIP3   OH211738   4.406   6.352   4.519
 3925TIP3    H111739   4.501   6.355   4.503
 3925TIP3    H211740   4.371   6.426   4.470
 3926TIP3   OH211741   3.809   2.884   3.201
 3926TIP3    H111742   3.720   2.913   3.180
 3926TIP3    H211743   3.852   2.873   3.116
 3927TIP3   OH211744   0.782   2.590   2.737
 3927TIP3    H111745   0.802   2.506   2.695
 3927TIP3    H211746   0.688   2.600   2.726
 3928TIP3   OH211747   2.834   6.262   4.495
 3928TIP3    H111748   2.808   6.275   4.587
 3928TIP3    H211749   2.756   6.228   4.453
 3929TIP3   OH211750   0.901   2.342   2.639
 3929TIP3    H111751   0.942   2.310   2.558
 3929TIP3    H211752   0.854   2.266   2.674
 3930TIP3   OH211753   5.083   3.151   4.272
 3930TIP3    H111754   5.003   3.199   4.297
 3930TIP3    H211755   5.051   3.072   4.229
 3931TIP3   OH211756   4.991   0.443   0.253
 3931TIP3    H111757   4.916   0.421   0.310
 3931TIP3    H211758   4.965   0.410   0.167
 3932TIP3   OH211759   5.803   6.649   3.064
 3932TIP3    H111760   5.845   6.712   3.005
 3932TIP3    H211761   5.806   6.567   3.015
 3933TIP3   OH211762   3.758   2.763   5.445
 3933TIP3    H111763   3.716   2.844   5.415
 3933TIP3    H211764   3.852   2.779   5.436
 3934TIP3   OH211765   4.969   1.230   3.739
 3934TIP3    H111766   4.939   1.237   3.830
 3934TIP3    H211767   4.934   1.307   3.696
 3935TIP3   OH211768   2.057   0.654   2.492
 3935TIP3    H111769   2.014   0.657   2.406
 3935TIP3    H211770   2.106   0.737   2.496
 3936TIP3   OH211771   6.816   3.282   5.630
 3936TIP3    H111772   6.872   3.208   5.605
 3936TIP3    H211773   6.733   3.265   5.587
 3937TIP3   OH211774   2.385   0.011   5.450
 3937TIP3    H111775   2.443  -0.011   5.522
 3937TIP3    H211776   2.440   0.009   5.372
 3938TIP3   OH211777   2.800   4.813   4.082
 3938TIP3    H111778   2.743   4.739   4.058
 3938TIP3    H211779   2.889   4.776   4.079
 3939TIP3   OH211780   5.838   5.636   3.175
 3939TIP3    H111781   5.761   5.627   3.232
 3939TIP3    H211782   5.845   5.552   3.130
 3940TIP3   OH211783   2.176   2.159   1.033
 3940TIP3    H111784   2.163   2.066   1.048
 3940TIP3    H211785   2.110   2.202   1.086
 3941TIP3   OH211786   1.047   0.272   4.024
 3941TIP3    H111787   0.962   0.292   3.984
 3941TIP3    H211788   1.072   0.353   4.069
 3942TIP3   OH211789   0.933   1.661   1.480
 3942TIP3    H111790   1.026   1.659   1.502
 3942TIP3    H211791   0.913   1.571   1.454
 3943TIP3   OH211792   1.341   0.364   1.903
 3943TIP3    H111793   1.364   0.355   1.995
 3943TIP3    H211794   1.255   0.406   1.903
 3944TIP3   OH211795   1.280   3.172   2.710
 3944TIP3    H111796   1.225   3.098   2.682
 3944TIP3    H211797   1.331   3.195   2.633
 3945TIP3   OH211798   6.480   4.190   5.344
 3945TIP3    H111799   6.566   4.215   5.310
 3945TIP3    H211800   6.499   4.129   5.415
 3946TIP3   OH211801   5.317   2.640   2.419
 3946TIP3    H111802   5.340   2.707   2.354
 3946TIP3    H211803   5.222   2.632   2.413
 3947TIP3   OH211804   6.252   5.653   5.762
 3947TIP3    H111805   6.246   5.749   5.758
 3947TIP3    H211806   6.192   5.628   5.833
 3948TIP3   OH211807   0.015   3.816   0.453
 3948TIP3    H111808   0.083   3.880   0.434
 3948TIP3    H211809  -0.025   3.798   0.369
 3949TIP3   OH211810   6.580   5.644   1.015
 3949TIP3    H111811   6.613   5.563   0.974
 3949TIP3    H211812   6.611   5.639   1.105
 3950TIP3   OH211813   5.575   6.218   4.126
 3950TIP3    H111814   5.575   6.151   4.057
 3950TIP3    H211815   5.561   6.300   4.080
 3951TIP3   OH211816   1.786   2.527   5.642
 3951TIP3    H111817   1.809   2.449   5.591
 3951TIP3    H211818   1.835   2.517   5.724
 3952TIP3   OH211819   6.085   0.956   5.333
 3952TIP3    H111820   6.120   0.958   5.244
 3952TIP3    H211821   6.142   1.015   5.383
 3953TIP3   OH211822   6.662   6.283   2.187
 3953TIP3    H111823   6.586   6.291   2.244
 3953TIP3    H211824   6.637   6.326   2.106
 3954TIP3   OH211825   3.900   5.872   4.652
 3954TIP3    H111826   3.855   5.788   4.662
 3954TIP3    H211827   3.946   5.885   4.735
 3955TIP3   OH211828   5.298   6.111   5.432
 3955TIP3    H111829   5.214   6.071   5.456
 3955TIP3    H211830   5.305   6.188   5.488
 3956TIP3   OH211831   0.311   2.340   0.700
 3956TIP3    H111832   0.306   2.247   0.679
 3956TIP3    H211833   0.242   2.354   0.765
 3957TIP3   OH211834   0.876   3.590   3.719
 3957TIP3    H111835   0.964   3.626   3.726
 3957TIP3    H211836   0.888   3.504   3.679
 3958TIP3   OH211837   3.058   0.362   1.231
 3958TIP3    H111838   3.031   0.394   1.317
 3958TIP3    H211839   3.152   0.379   1.227
 3959TIP3   OH211840   0.405   6.355   0.196
 3959TIP3    H111841   0.424   6.442   0.162
 3959TIP3    H211842   0.309   6.350   0.196
 3960TIP3   OH211843   5.201   1.250   5.338
 3960TIP3    H111844   5.115   1.290   5.353
 3960TIP3    H211845   5.258   1.292   5.402
 3961TIP3   OH211846   7.008   2.521   2.873
 3961TIP3    H111847   7.086   2.533   2.928
 3961TIP3    H211848   6.942   2.486   2.933
 3962TIP3   OH211849   3.318   4.329   1.495
 3962TIP3    H111850   3.374   4.273   1.548
 3962TIP3    H211851   3.378   4.387   1.448
 3963TIP3   OH211852   3.249   0.811   2.082
 3963TIP3    H111853   3.177   0.871   2.104
 3963TIP3    H211854   3.222   0.727   2.121
 3964TIP3   OH211855   4.564   6.218   4.257
 3964TIP3    H111856   4.614   6.293   4.224
 3964TIP3    H211857   4.564   6.228   4.352
 3965TIP3   OH211858   5.818   3.725   1.884
 3965TIP3    H111859   5.733   3.703   1.847
 3965TIP3    H211860   5.803   3.806   1.932
 3966TIP3   OH211861   4.617   5.762   1.796
 3966TIP3    H111862   4.571   5.846   1.799
 3966TIP3    H211863   4.559   5.705   1.745
 3967TIP3   OH211864   4.484   4.234   2.873
 3967TIP3    H111865   4.401   4.275   2.846
 3967TIP3    H211866   4.549   4.273   2.815
 3968TIP3   OH211867   1.658   3.911   3.972
 3968TIP3    H111868   1.751   3.935   3.966
 3968TIP3    H211869   1.617   3.987   4.013
 3969TIP3   OH211870   5.877   1.875   1.200
 3969TIP3    H111871   5.955   1.907   1.245
 3969TIP3    H211872   5.807   1.882   1.265
 3970TIP3   OH211873   0.935   0.221   4.814
 3970TIP3    H111874   0.907   0.299   4.862
 3970TIP3    H211875   1.029   0.214   4.833
 3971TIP3   OH211876   4.366   5.064   3.938
 3971TIP3    H111877   4.377   4.976   3.976
 3971TIP3    H211878   4.454   5.103   3.944
 3972TIP3   OH211879   5.838   6.466   5.003
 3972TIP3    H111880   5.866   6.533   5.066
 3972TIP3    H211881   5.811   6.515   4.926
 3973TIP3   OH211882   6.527   6.421   4.944
 3973TIP3    H111883   6.493   6.509   4.957
 3973TIP3    H211884   6.620   6.427   4.969
 3974TIP3   OH211885   1.626   1.104   0.489
 3974TIP3    H111886   1.578   1.086   0.570
 3974TIP3    H211887   1.571   1.165   0.441
 3975TIP3   OH211888   6.901   6.313   5.349
 3975TIP3    H111889   6.851   6.394   5.363
 3975TIP3    H211890   6.838   6.253   5.309
 3976TIP3   OH211891   4.982   3.321  -0.012
 3976TIP3    H111892   4.891   3.320   0.018
 3976TIP3    H211893   5.024   3.250   0.037
 3977TIP3   OH211894   3.359   6.216   3.190
 3977TIP3    H111895   3.306   6.253   3.260
 3977TIP3    H211896   3.373   6.289   3.129
 3978TIP3   OH211897   6.491   1.432   5.491
 3978TIP3    H111898   6.515   1.442   5.583
 3978TIP3    H211899   6.402   1.467   5.485
 3979TIP3   OH211900   0.692   1.047   0.741
 3979TIP3    H111901   0.671   0.998   0.821
 3979TIP3    H211902   0.694   0.980   0.672
 3980TIP3   OH211903   5.289   3.930   1.029
 3980TIP3    H111904   5.226   3.869   1.067
 3980TIP3    H211905   5.243   3.969   0.954
 3981TIP3   OH211906   4.690   6.470   0.909
 3981TIP3    H111907   4.659   6.526   0.838
 3981TIP3    H211908   4.660   6.514   0.989
 3982TIP3   OH211909   5.008   3.803   4.822
 3982TIP3    H111910   5.043   3.889   4.799
 3982TIP3    H211911   5.083   3.756   4.858
 3983TIP3   OH211912   4.045   6.079   3.516
 3983TIP3    H111913   4.111   6.146   3.537
 3983TIP3    H211914   3.982   6.125   3.461
 3984TIP3   OH211915   2.157   6.560   0.441
 3984TIP3    H111916   2.120   6.473   0.459
 3984TIP3    H211917   2.235   6.564   0.496
 3985TIP3   OH211918   1.025   2.018   2.592
 3985TIP3    H111919   1.037   1.940   2.537
 3985TIP3    H211920   1.026   1.983   2.681
 3986TIP3   OH211921   1.023   3.100   1.857
 3986TIP3    H111922   1.096   3.150   1.894
 3986TIP3    H211923   1.039   3.010   1.885
 3987TIP3   OH211924   5.302   3.688   5.315
 3987TIP3    H111925   5.379   3.646   5.353
 3987TIP3    H211926   5.337   3.761   5.264
 3988TIP3   OH211927   3.488   3.971   3.695
 3988TIP3    H111928   3.462   3.917   3.621
 3988TIP3    H211929   3.575   3.940   3.719
 3989TIP3   OH211930   2.297   1.840   1.816
 3989TIP3    H111931   2.338   1.837   1.903
 3989TIP3    H211932   2.246   1.760   1.811
 3990TIP3   OH211933   0.106   6.495   5.275
 3990TIP3    H111934   0.017   6.495   5.242
 3990TIP3    H211935   0.099   6.461   5.365
 3991TIP3   OH211936   6.203   5.434   1.545
 3991TIP3    H111937   6.246   5.366   1.596
 3991TIP3    H211938   6.188   5.394   1.460
 3992TIP3   OH211939   4.282   3.011   1.007
 3992TIP3    H111940   4.369   3.051   1.011
 3992TIP3    H211941   4.279   2.952   1.082
 3993TIP3   OH211942   4.129   2.553   4.401
 3993TIP3    H111943   4.195   2.607   4.444
 3993TIP3    H211944   4.178   2.501   4.338
 3994TIP3   OH211945   2.817   2.264   4.469
 3994TIP3    H111946   2.846   2.199   4.533
 3994TIP3    H211947   2.893   2.321   4.456
 3995TIP3   OH211948   1.877   1.245   2.451
 3995TIP3    H111949   1.870   1.340   2.441
 3995TIP3    H211950   1.926   1.216   2.375
 3996TIP3   OH211951   6.819   2.964   3.772
 3996TIP3    H111952   6.837   2.983   3.864
 3996TIP3    H211953   6.724   2.971   3.763
 3997TIP3   OH211954   3.066   1.254   3.351
 3997TIP3    H111955   3.150   1.255   3.305
 3997TIP3    H211956   3.002   1.281   3.285
 3998TIP3   OH211957   3.923   1.283   4.753
 3998TIP3    H111958   3.895   1.325   4.834
 3998TIP3    H211959   3.939   1.356   4.693
 3999TIP3   OH211960   4.132   3.812   3.649
 3999TIP3    H111961   4.069   3.802   3.577
 3999TIP3    H211962   4.080   3.840   3.724
 4000TIP3   OH211963   0.283   6.763   0.756
 4000TIP3    H111964   0.287   6.806   0.842
 4000TIP3    H211965   0.191   6.739   0.746
 4001TIP3   OH211966   3.303   2.244   5.810
 4001TIP3    H111967   3.285   2.170   5.868
 4001TIP3    H211968   3.278   2.321   5.861
 4002TIP3   OH211969   1.614   3.906   0.382
 4002TIP3    H111970   1.677   3.951   0.327
 4002TIP3    H211971   1.608   3.959   0.461
 4003TIP3   OH211972   5.928   0.626   0.743
 4003TIP3    H111973   5.881   0.707   0.760
 4003TIP3    H211974   5.901   0.567   0.814
 4004TIP3   OH211975   0.562   3.712   5.234
 4004TIP3    H111976   0.510   3.766   5.174
 4004TIP3    H211977   0.631   3.771   5.265
 4005TIP3   OH211978   5.516   4.984   4.981
 4005TIP3    H111979   5.441   5.043   4.985
 4005TIP3    H211980   5.506   4.940   4.896
 4006TIP3   OH211981   4.467   4.710   5.478
 4006TIP3    H111982   4.546   4.746   5.520
 4006TIP3    H211983   4.455   4.625   5.520
 4007TIP3   OH211984   1.544   4.050   4.717
 4007TIP3    H111985   1.623   4.039   4.769
 4007TIP3    H211986   1.473   4.025   4.777
 4008TIP3   OH211987   2.464   2.520   1.421
 4008TIP3    H111988   2.539   2.538   1.363
 4008TIP3    H211989   2.500   2.527   1.509
 4009TIP3   OH211990   2.024   6.730   0.211
 4009TIP3    H111991   1.950   6.768   0.258
 4009TIP3    H211992   2.008   6.636   0.212
 4010TIP3   OH211993   0.776   0.589   2.288
 4010TIP3    H111994   0.871   0.582   2.299
 4010TIP3    H211995   0.740   0.544   2.365
 4011TIP3   OH211996   6.554   0.393   0.838
 4011TIP3    H111997   6.522   0.307   0.864
 4011TIP3    H211998   6.636   0.375   0.792
 4012TIP3   OH211999   6.526   5.071   3.801
 4012TIP3    H112000   6.456   5.007   3.790
 4012TIP3    H212001   6.562   5.053   3.887
 4013TIP3   OH212002   1.978   6.498   3.323
 4013TIP3    H112003   1.938   6.577   3.360
 4013TIP3    H212004   1.955   6.428   3.383
 4014TIP3   OH212005   6.248   5.854   0.373
 4014TIP3    H112006   6.324   5.811   0.412
 4014TIP3    H212007   6.244   5.819   0.284
 4015TIP3   OH212008   1.933   2.769   1.022
 4015TIP3    H112009   1.988   2.708   0.972
 4015TIP3    H212010   1.847   2.727   1.024
 4016TIP3   OH212011   2.674   5.785   2.715
 4016TIP3    H112012   2.701   5.877   2.721
 4016TIP3    H212013   2.587   5.784   2.753
 4017TIP3   OH212014   2.476   2.985   0.783
 4017TIP3    H112015   2.570   2.976   0.800
 4017TIP3    H212016   2.468   2.970   0.689
 4018TIP3   OH212017   2.016   5.490   5.331
 4018TIP3    H112018   1.971   5.529   5.406
 4018TIP3    H212019   1.949   5.436   5.288
 4019TIP3   OH212020   6.475   5.193   3.147
 4019TIP3    H112021   6.446   5.105   3.123
 4019TIP3    H212022   6.569   5.185   3.163
 4020TIP3   OH212023   1.257   4.761   0.589
 4020TIP3    H112024   1.275   4.849   0.622
 4020TIP3    H212025   1.342   4.717   0.590
 4021TIP3   OH212026   2.447   2.485   5.672
 4021TIP3    H112027   2.541   2.496   5.659
 4021TIP3    H212028   2.410   2.488   5.584
 4022TIP3   OH212029   7.177   0.613   1.860
 4022TIP3    H112030   7.153   0.533   1.814
 4022TIP3    H212031   7.234   0.584   1.931
 4023TIP3   OH212032   3.454   1.681   0.140
 4023TIP3    H112033   3.500   1.600   0.161
 4023TIP3    H212034   3.523   1.743   0.115
 4024TIP3   OH212035   4.786   1.996   3.691
 4024TIP3    H112036   4.824   2.025   3.608
 4024TIP3    H212037   4.725   1.926   3.666
 4025TIP3   OH212038   1.314   5.977   3.755
 4025TIP3    H112039   1.409   5.975   3.768
 4025TIP3    H212040   1.288   5.885   3.753
 4026TIP3   OH212041   6.962   0.776   1.955
 4026TIP3    H112042   6.939   0.825   1.876
 4026TIP3    H212043   7.041   0.728   1.930
 4027TIP3   OH212044   3.158   2.968   5.353
 4027TIP3    H112045   3.143   2.977   5.447
 4027TIP3    H212046   3.159   2.873   5.338
 4028TIP3   OH212047   1.436   4.746   4.605
 4028TIP3    H112048   1.408   4.763   4.695
 4028TIP3    H212049   1.359   4.764   4.552
 4029TIP3   OH212050   7.142   2.815   4.989
 4029TIP3    H112051   7.099   2.783   5.068
 4029TIP3    H212052   7.156   2.737   4.936
 4030TIP3   OH212053   3.908   3.419   1.892
 4030TIP3    H112054   3.922   3.514   1.899
 4030TIP3    H212055   3.819   3.406   1.924
 4031TIP3   OH212056   5.702   3.138   4.825
 4031TIP3    H112057   5.670   3.057   4.864
 4031TIP3    H212058   5.776   3.163   4.881
 4032TIP3   OH212059   4.182   6.541   5.340
 4032TIP3    H112060   4.111   6.598   5.370
 4032TIP3    H212061   4.160   6.454   5.372
 4033TIP3   OH212062   5.461   4.748   2.795
 4033TIP3    H112063   5.548   4.770   2.829
 4033TIP3    H212064   5.423   4.832   2.770
 4034TIP3   OH212065   1.916   0.188   2.152
 4034TIP3    H112066   1.986   0.249   2.129
 4034TIP3    H212067   1.835   0.235   2.131
 4035TIP3   OH212068   2.618   5.506   2.595
 4035TIP3    H112069   2.529   5.501   2.561
 4035TIP3    H212070   2.655   5.584   2.554
 4036TIP3   OH212071   1.703   4.890   2.615
 4036TIP3    H112072   1.695   4.911   2.522
 4036TIP3    H212073   1.683   4.796   2.621
 4037TIP3   OH212074   0.101   4.955   3.433
 4037TIP3    H112075   0.009   4.976   3.446
 4037TIP3    H212076   0.135   5.025   3.378
 4038TIP3   OH212077   3.088   6.261   0.344
 4038TIP3    H112078   3.161   6.318   0.370
 4038TIP3    H212079   3.009   6.309   0.370
 4039TIP3   OH212080   1.994   5.568   0.364
 4039TIP3    H112081   1.926   5.613   0.414
 4039TIP3    H212082   1.949   5.534   0.287
 4040TIP3   OH212083   1.577   2.423   4.120
 4040TIP3    H112084   1.518   2.347   4.123
 4040TIP3    H212085   1.573   2.459   4.209
 4041TIP3   OH212086   6.105   2.680   1.655
 4041TIP3    H112087   6.178   2.720   1.608
 4041TIP3    H212088   6.035   2.676   1.590
 4042TIP3   OH212089   6.815   4.478   5.449
 4042TIP3    H112090   6.850   4.509   5.532
 4042TIP3    H212091   6.723   4.507   5.449
 4043TIP3   OH212092   3.009   2.054   3.280
 4043TIP3    H112093   3.051   2.076   3.363
 4043TIP3    H212094   2.927   2.104   3.280
 4044TIP3   OH212095   5.018   6.702   4.447
 4044TIP3    H112096   5.105   6.701   4.406
 4044TIP3    H212097   4.956   6.708   4.375
 4045TIP3   OH212098   0.718   4.299   0.217
 4045TIP3    H112099   0.666   4.219   0.212
 4045TIP3    H212100   0.803   4.270   0.251
 4046TIP3   OH212101   6.606   1.222   3.531
 4046TIP3    H112102   6.700   1.230   3.520
 4046TIP3    H212103   6.570   1.225   3.442
 4047TIP3   OH212104   2.018   6.156   1.514
 4047TIP3    H112105   1.935   6.135   1.556
 4047TIP3    H212106   2.035   6.247   1.539
 4048TIP3   OH212107   6.852   3.763   0.495
 4048TIP3    H112108   6.762   3.775   0.466
 4048TIP3    H212109   6.845   3.733   0.585
 4049TIP3   OH212110   5.939   1.887   4.615
 4049TIP3    H112111   5.995   1.965   4.618
 4049TIP3    H212112   5.950   1.846   4.701
 4050TIP3   OH212113   4.568   5.371   3.770
 4050TIP3    H112114   4.494   5.346   3.715
 4050TIP3    H212115   4.608   5.445   3.724
 4051TIP3   OH212116   3.865   4.112   0.644
 4051TIP3    H112117   3.803   4.066   0.587
 4051TIP3    H212118   3.884   4.193   0.597
 4052TIP3   OH212119   2.161   1.699   3.959
 4052TIP3    H112120   2.215   1.764   3.913
 4052TIP3    H212121   2.160   1.624   3.900
 4053TIP3   OH212122   3.693   3.675   0.248
 4053TIP3    H112123   3.696   3.771   0.250
 4053TIP3    H212124   3.600   3.653   0.261
 4054TIP3   OH212125   1.058   1.913   0.103
 4054TIP3    H112126   0.989   1.961   0.057
 4054TIP3    H212127   1.063   1.829   0.058
 4055TIP3   OH212128   5.245   0.129   0.914
 4055TIP3    H112129   5.304   0.196   0.948
 4055TIP3    H212130   5.277   0.112   0.825
 4056TIP3   OH212131   5.013   1.537   2.182
 4056TIP3    H112132   5.042   1.466   2.126
 4056TIP3    H212133   4.929   1.507   2.218
 4057TIP3   OH212134   1.477   2.313   1.323
 4057TIP3    H112135   1.469   2.265   1.406
 4057TIP3    H212136   1.530   2.389   1.344
 4058TIP3   OH212137   3.714  -0.026   3.512
 4058TIP3    H112138   3.664   0.044   3.554
 4058TIP3    H212139   3.736   0.009   3.426
 4059TIP3   OH212140   0.357   1.386   4.831
 4059TIP3    H112141   0.387   1.328   4.761
 4059TIP3    H212142   0.368   1.334   4.911
 4060TIP3   OH212143   1.419   1.476   4.617
 4060TIP3    H112144   1.410   1.408   4.683
 4060TIP3    H212145   1.356   1.544   4.643
 4061TIP3   OH212146   6.358   4.136   3.500
 4061TIP3    H112147   6.264   4.121   3.498
 4061TIP3    H212148   6.370   4.217   3.451
 4062TIP3   OH212149   3.509   3.883   2.389
 4062TIP3    H112150   3.416   3.882   2.411
 4062TIP3    H212151   3.524   3.800   2.343
 4063TIP3   OH212152   4.487   3.259   2.997
 4063TIP3    H112153   4.577   3.237   2.972
 4063TIP3    H212154   4.492   3.349   3.030
 4064TIP3   OH212155   0.636   3.468   0.911
 4064TIP3    H112156   0.590   3.423   0.840
 4064TIP3    H212157   0.664   3.551   0.873
 4065TIP3   OH212158   7.017   3.753   0.263
 4065TIP3    H112159   6.960   3.761   0.339
 4065TIP3    H212160   6.977   3.684   0.210
 4066TIP3   OH212161   4.898   5.604   2.534
 4066TIP3    H112162   4.872   5.556   2.613
 4066TIP3    H212163   4.816   5.621   2.488
 4067TIP3   OH212164   5.230   0.160   4.418
 4067TIP3    H112165   5.136   0.169   4.430
 4067TIP3    H212166   5.255   0.087   4.474
 4068TIP3   OH212167   4.930   4.322   4.756
 4068TIP3    H112168   5.000   4.380   4.727
 4068TIP3    H212169   4.961   4.287   4.840
 4069TIP3   OH212170   2.243   5.607   5.264
 4069TIP3    H112171   2.158   5.575   5.295
 4069TIP3    H212172   2.308   5.554   5.311
 4070TIP3   OH212173   5.939   4.759   1.930
 4070TIP3    H112174   5.934   4.749   1.835
 4070TIP3    H212175   6.016   4.815   1.944
 4071TIP3   OH212176   5.731   5.467   2.035
 4071TIP3    H112177   5.722   5.546   1.982
 4071TIP3    H212178   5.815   5.429   2.009
 4072TIP3   OH212179   1.657   3.304   5.086
 4072TIP3    H112180   1.620   3.372   5.030
 4072TIP3    H212181   1.638   3.222   5.040
 4073TIP3   OH212182   5.508   4.702   1.626
 4073TIP3    H112183   5.419   4.688   1.595
 4073TIP3    H212184   5.556   4.624   1.601
 4074TIP3   OH212185   3.427   1.206   4.719
 4074TIP3    H112186   3.435   1.281   4.779
 4074TIP3    H212187   3.502   1.213   4.661
 4075TIP3   OH212188   0.647   1.081   5.233
 4075TIP3    H112189   0.736   1.046   5.240
 4075TIP3    H212190   0.643   1.149   5.300
 4076TIP3   OH212191   3.913   5.242   0.464
 4076TIP3    H112192   3.966   5.245   0.543
 4076TIP3    H212193   3.828   5.279   0.490
 4077TIP3   OH212194   1.703   4.939   1.099
 4077TIP3    H112195   1.693   4.865   1.158
 4077TIP3    H212196   1.786   4.923   1.054
 4078TIP3   OH212197   4.039   5.541   0.250
 4078TIP3    H112198   3.968   5.492   0.209
 4078TIP3    H212199   4.117   5.486   0.240
 4079TIP3   OH212200   5.570   2.715   4.836
 4079TIP3    H112201   5.611   2.747   4.755
 4079TIP3    H212202   5.487   2.677   4.807
 4080TIP3   OH212203   6.906   1.122   1.469
 4080TIP3    H112204   6.915   1.217   1.456
 4080TIP3    H212205   6.993   1.087   1.450
 4081TIP3   OH212206   3.650   5.294   2.552
 4081TIP3    H112207   3.623   5.251   2.633
 4081TIP3    H212208   3.569   5.306   2.503
 4082TIP3   OH212209   1.296   5.045   3.781
 4082TIP3    H112210   1.246   5.074   3.858
 4082TIP3    H212211   1.383   5.082   3.795
 4083TIP3   OH212212   5.192   6.585   4.282
 4083TIP3    H112213   5.126   6.584   4.212
 4083TIP3    H212214   5.214   6.493   4.295
 4084TIP3   OH212215   6.423   5.416   4.033
 4084TIP3    H112216   6.493   5.438   4.093
 4084TIP3    H212217   6.379   5.500   4.015
 4085TIP3   OH212218   0.375   2.904   5.647
 4085TIP3    H112219   0.331   2.863   5.572
 4085TIP3    H212220   0.430   2.834   5.683
 4086TIP3   OH212221   1.224   6.077   4.795
 4086TIP3    H112222   1.276   6.113   4.724
 4086TIP3    H212223   1.271   5.997   4.821
 4087TIP3   OH212224   4.202   5.125   5.349
 4087TIP3    H112225   4.165   5.208   5.318
 4087TIP3    H212226   4.227   5.142   5.440
 4088TIP3   OH212227   6.008   6.489   4.608
 4088TIP3    H112228   6.039   6.473   4.519
 4088TIP3    H212229   5.944   6.420   4.623
 4089TIP3   OH212230   0.476   0.855   0.680
 4089TIP3    H112231   0.465   0.912   0.756
 4089TIP3    H212232   0.567   0.826   0.686
 4090TIP3   OH212233   2.454   4.211   5.486
 4090TIP3    H112234   2.484   4.302   5.489
 4090TIP3    H212235   2.503   4.167   5.556
 4091TIP3   OH212236   2.020   0.583   0.143
 4091TIP3    H112237   1.942   0.578   0.087
 4091TIP3    H212238   1.986   0.604   0.230
 4092TIP3   OH212239   3.758   4.300   3.856
 4092TIP3    H112240   3.746   4.277   3.764
 4092TIP3    H212241   3.808   4.227   3.893
 4093TIP3   OH212242   1.283   5.118   0.644
 4093TIP3    H112243   1.324   5.150   0.564
 4093TIP3    H212244   1.330   5.163   0.714
 4094TIP3   OH212245   0.559   4.392   2.028
 4094TIP3    H112246   0.572   4.316   1.972
 4094TIP3    H212247   0.629   4.452   2.002
 4095TIP3   OH212248   3.805   5.475   1.595
 4095TIP3    H112249   3.767   5.488   1.508
 4095TIP3    H212250   3.738   5.508   1.656
 4096TIP3   OH212251   5.649   6.833   0.712
 4096TIP3    H112252   5.733   6.789   0.703
 4096TIP3    H212253   5.597   6.774   0.767
 4097TIP3   OH212254   3.104   0.112   2.969
 4097TIP3    H112255   3.057   0.091   2.888
 4097TIP3    H212256   3.193   0.134   2.940
 4098TIP3   OH212257   0.378   0.245   5.785
 4098TIP3    H112258   0.378   0.149   5.793
 4098TIP3    H212259   0.373   0.261   5.691
 4099TIP3   OH212260   5.820   0.223   0.593
 4099TIP3    H112261   5.794   0.157   0.529
 4099TIP3    H212262   5.901   0.190   0.630
 4100TIP3   OH212263   3.133   3.473   1.087
 4100TIP3    H112264   3.178   3.543   1.040
 4100TIP3    H212265   3.071   3.519   1.144
 4101TIP3   OH212266   1.299   5.042   1.707
 4101TIP3    H112267   1.395   5.040   1.714
 4101TIP3    H212268   1.277   5.135   1.705
 4102TIP3   OH212269   4.416   2.741   5.777
 4102TIP3    H112270   4.325   2.741   5.809
 4102TIP3    H212271   4.439   2.834   5.770
 4103TIP3   OH212272   5.648   4.893   0.969
 4103TIP3    H112273   5.618   4.803   0.983
 4103TIP3    H212274   5.740   4.884   0.945
 4104TIP3   OH212275   0.523   3.109   5.758
 4104TIP3    H112276   0.457   3.061   5.707
 4104TIP3    H212277   0.602   3.055   5.752
 4105TIP3   OH212278   4.940   3.965   5.171
 4105TIP3    H112279   4.852   4.001   5.165
 4105TIP3    H212280   4.989   4.028   5.224
 4106TIP3   OH212281   0.901   0.456   0.436
 4106TIP3    H112282   0.919   0.388   0.501
 4106TIP3    H212283   0.854   0.409   0.366
 4107TIP3   OH212284   5.541   5.099   3.131
 4107TIP3    H112285   5.498   5.013   3.128
 4107TIP3    H212286   5.546   5.120   3.224
 4108TIP3   OH212287   1.466   1.531   5.184
 4108TIP3    H112288   1.551   1.573   5.172
 4108TIP3    H212289   1.409   1.601   5.218
 4109TIP3   OH212290   5.456   1.236   1.901
 4109TIP3    H112291   5.530   1.263   1.955
 4109TIP3    H212292   5.497   1.198   1.823
 4110TIP3   OH212293   3.420   3.635   0.310
 4110TIP3    H112294   3.399   3.698   0.241
 4110TIP3    H212295   3.362   3.659   0.382
 4111TIP3   OH212296   0.982   0.134   0.210
 4111TIP3    H112297   1.026   0.054   0.180
 4111TIP3    H212298   0.935   0.106   0.289
 4112TIP3   OH212299   2.530   2.646   0.930
 4112TIP3    H112300   2.482   2.665   0.850
 4112TIP3    H212301   2.503   2.715   0.991
 4113TIP3   OH212302   0.014   4.700   3.578
 4113TIP3    H112303   0.023   4.759   3.504
 4113TIP3    H212304  -0.033   4.624   3.543
 4114TIP3   OH212305   0.487   1.235   3.973
 4114TIP3    H112306   0.488   1.156   3.918
 4114TIP3    H212307   0.423   1.215   4.042
 4115TIP3   OH212308   3.654   0.222   3.667
 4115TIP3    H112309   3.692   0.283   3.731
 4115TIP3    H212310   3.637   0.277   3.590
 4116TIP3   OH212311   3.854   6.365   1.286
 4116TIP3    H112312   3.876   6.347   1.377
 4116TIP3    H212313   3.904   6.443   1.263
 4117TIP3   OH212314   6.790   2.024   5.572
 4117TIP3    H112315   6.809   2.093   5.635
 4117TIP3    H212316   6.706   1.987   5.602
 4118TIP3   OH212317   5.613   3.149   2.714
 4118TIP3    H112318   5.684   3.165   2.652
 4118TIP3    H212319   5.579   3.236   2.735
 4119TIP3   OH212320   5.545   5.967   2.418
 4119TIP3    H112321   5.490   6.023   2.363
 4119TIP3    H212322   5.486   5.897   2.447
 4120TIP3   OH212323   1.276   0.356   4.429
 4120TIP3    H112324   1.307   0.321   4.346
 4120TIP3    H212325   1.353   0.353   4.486
 4121TIP3   OH212326   3.411   2.434   1.513
 4121TIP3    H112327   3.499   2.470   1.525
 4121TIP3    H212328   3.417   2.384   1.431
 4122TIP3   OH212329   3.225   4.943   2.227
 4122TIP3    H112330   3.224   5.014   2.162
 4122TIP3    H212331   3.268   4.982   2.303
 4123TIP3   OH212332   0.357   0.355   4.310
 4123TIP3    H112333   0.447   0.381   4.291
 4123TIP3    H212334   0.356   0.339   4.405
 4124TIP3   OH212335   2.316   0.352   1.137
 4124TIP3    H112336   2.280   0.357   1.225
 4124TIP3    H212337   2.408   0.330   1.150
 4125TIP3   OH212338   2.841   5.798   0.971
 4125TIP3    H112339   2.862   5.716   0.927
 4125TIP3    H212340   2.922   5.849   0.964
 4126TIP3   OH212341   6.321   0.075   1.227
 4126TIP3    H112342   6.266   0.126   1.168
 4126TIP3    H212343   6.316   0.120   1.311
 4127TIP3   OH212344   6.834   3.224   1.159
 4127TIP3    H112345   6.849   3.318   1.158
 4127TIP3    H212346   6.753   3.213   1.209
 4128TIP3   OH212347   0.400   4.869   4.675
 4128TIP3    H112348   0.394   4.835   4.586
 4128TIP3    H212349   0.474   4.931   4.672
 4129TIP3   OH212350   5.070   5.038   5.310
 4129TIP3    H112351   4.977   5.019   5.318
 4129TIP3    H212352   5.074   5.132   5.289
 4130TIP3   OH212353   4.401   0.086  -0.020
 4130TIP3    H112354   4.320   0.135  -0.002
 4130TIP3    H212355   4.407   0.024   0.052
 4131TIP3   OH212356   0.519   4.824   3.509
 4131TIP3    H112357   0.513   4.825   3.605
 4131TIP3    H212358   0.606   4.858   3.490
 4132TIP3   OH212359   4.470   3.022   5.652
 4132TIP3    H112360   4.440   3.107   5.622
 4132TIP3    H212361   4.565   3.026   5.645
 4133TIP3   OH212362   4.294   3.585   0.979
 4133TIP3    H112363   4.339   3.509   1.016
 4133TIP3    H212364   4.325   3.659   1.031
 4134TIP3   OH212365   2.269   2.857   3.607
 4134TIP3    H112366   2.284   2.935   3.554
 4134TIP3    H212367   2.316   2.787   3.561
 4135TIP3   OH212368   2.362   4.765   3.246
 4135TIP3    H112369   2.413   4.762   3.166
 4135TIP3    H212370   2.321   4.678   3.252
 4136TIP3   OH212371   6.498   1.590   2.681
 4136TIP3    H112372   6.474   1.510   2.727
 4136TIP3    H212373   6.580   1.569   2.638
 4137TIP3   OH212374   7.168   5.139   1.637
 4137TIP3    H112375   7.240   5.134   1.573
 4137TIP3    H212376   7.209   5.116   1.720
 4138TIP3   OH212377   7.133   2.166   5.653
 4138TIP3    H112378   7.064   2.159   5.718
 4138TIP3    H212379   7.202   2.216   5.696
 4139TIP3   OH212380   0.053   2.770   2.071
 4139TIP3    H112381   0.054   2.689   2.121
 4139TIP3    H212382   0.020   2.835   2.133
 4140TIP3   OH212383   4.502   0.063   4.020
 4140TIP3    H112384   4.409   0.080   4.004
 4140TIP3    H212385   4.545   0.146   3.998
 4141TIP3   OH212386   5.880   0.301   4.097
 4141TIP3    H112387   5.922   0.387   4.109
 4141TIP3    H212388   5.832   0.286   4.178
 4142TIP3   OH212389   4.217   3.210   2.506
 4142TIP3    H112390   4.170   3.145   2.453
 4142TIP3    H212391   4.274   3.255   2.444
 4143TIP3   OH212392   2.375   2.877   2.288
 4143TIP3    H112393   2.411   2.891   2.201
 4143TIP3    H212394   2.354   2.966   2.320
 4144TIP3   OH212395   5.076   3.007   1.502
 4144TIP3    H112396   5.059   2.939   1.568
 4144TIP3    H212397   5.164   2.988   1.470
 4145TIP3   OH212398   5.961   4.381   4.077
 4145TIP3    H112399   5.901   4.427   4.137
 4145TIP3    H212400   5.916   4.300   4.056
 4146TIP3   OH212401   0.459   2.167   5.361
 4146TIP3    H112402   0.412   2.143   5.281
 4146TIP3    H212403   0.501   2.250   5.340
 4147TIP3   OH212404   4.495   0.165   4.374
 4147TIP3    H112405   4.508   0.249   4.331
 4147TIP3    H212406   4.401   0.150   4.369
 4148TIP3   OH212407   0.742   1.329   1.659
 4148TIP3    H112408   0.739   1.350   1.752
 4148TIP3    H212409   0.814   1.381   1.625
 4149TIP3   OH212410   5.687   0.456   0.487
 4149TIP3    H112411   5.657   0.406   0.411
 4149TIP3    H212412   5.752   0.399   0.529
 4150TIP3   OH212413   6.456   5.010   3.384
 4150TIP3    H112414   6.510   4.931   3.390
 4150TIP3    H212415   6.518   5.081   3.369
 4151TIP3   OH212416   6.740   5.788   0.275
 4151TIP3    H112417   6.739   5.725   0.203
 4151TIP3    H212418   6.787   5.743   0.345
 4152TIP3   OH212419   5.232   0.588   5.744
 4152TIP3    H112420   5.142   0.570   5.771
 4152TIP3    H212421   5.274   0.502   5.742
 4153TIP3   OH212422   2.894   1.763   5.584
 4153TIP3    H112423   2.943   1.843   5.563
 4153TIP3    H212424   2.862   1.777   5.673
 4154TIP3   OH212425   5.905   4.279   0.777
 4154TIP3    H112426   5.914   4.333   0.698
 4154TIP3    H212427   5.953   4.199   0.757
 4155TIP3   OH212428   4.873   2.056   1.253
 4155TIP3    H112429   4.960   2.021   1.236
 4155TIP3    H212430   4.835   2.072   1.167
 4156TIP3   OH212431   3.111   0.758   3.544
 4156TIP3    H112432   3.027   0.780   3.504
 4156TIP3    H212433   3.134   0.672   3.508
 4157TIP3   OH212434   6.457   4.226   4.425
 4157TIP3    H112435   6.482   4.144   4.383
 4157TIP3    H212436   6.422   4.280   4.355
 4158TIP3   OH212437   3.134   4.587   2.715
 4158TIP3    H112438   3.109   4.567   2.805
 4158TIP3    H212439   3.215   4.637   2.723
 4159TIP3   OH212440   6.305   2.799   0.864
 4159TIP3    H112441   6.375   2.734   0.855
 4159TIP3    H212442   6.272   2.787   0.953
 4160TIP3   OH212443   2.877   0.780   0.169
 4160TIP3    H112444   2.853   0.693   0.138
 4160TIP3    H212445   2.867   0.836   0.091
 4161TIP3   OH212446   5.979   4.727   5.176
 4161TIP3    H112447   5.925   4.661   5.219
 4161TIP3    H212448   6.069   4.702   5.196
 4162TIP3   OH212449   4.678   0.870   1.451
 4162TIP3    H112450   4.703   0.949   1.498
 4162TIP3    H212451   4.651   0.809   1.519
 4163TIP3   OH212452   1.425   3.023   4.383
 4163TIP3    H112453   1.333   3.014   4.408
 4163TIP3    H212454   1.424   3.083   4.308
 4164TIP3   OH212455   1.689   5.013   0.806
 4164TIP3    H112456   1.661   4.995   0.896
 4164TIP3    H212457   1.781   5.038   0.814
 4165TIP3   OH212458   2.443   5.738   1.901
 4165TIP3    H112459   2.458   5.824   1.940
 4165TIP3    H212460   2.348   5.730   1.895
 4166TIP3   OH212461   3.399   0.251   3.940
 4166TIP3    H112462   3.313   0.255   3.984
 4166TIP3    H212463   3.384   0.290   3.854
 4167TIP3   OH212464   2.671   5.804   5.200
 4167TIP3    H112465   2.613   5.870   5.238
 4167TIP3    H212466   2.684   5.740   5.270
 4168TIP3   OH212467   1.402   0.063   3.700
 4168TIP3    H112468   1.339   0.058   3.629
 4168TIP3    H212469   1.383   0.146   3.743
 4169TIP3   OH212470   1.895   3.490   1.661
 4169TIP3    H112471   1.887   3.404   1.701
 4169TIP3    H212472   1.856   3.551   1.724
 4170TIP3   OH212473   4.550   2.233   4.092
 4170TIP3    H112474   4.609   2.178   4.041
 4170TIP3    H212475   4.538   2.311   4.039
 4171TIP3   OH212476   0.799   5.687   3.748
 4171TIP3    H112477   0.880   5.637   3.763
 4171TIP3    H212478   0.819   5.774   3.782
 4172TIP3   OH212479   1.994   0.527   1.285
 4172TIP3    H112480   1.997   0.458   1.219
 4172TIP3    H212481   1.928   0.497   1.348
 4173TIP3   OH212482   0.601   1.399   1.381
 4173TIP3    H112483   0.567   1.475   1.334
 4173TIP3    H212484   0.530   1.373   1.440
 4174TIP3   OH212485   4.529   1.169   4.961
 4174TIP3    H112486   4.615   1.132   4.978
 4174TIP3    H212487   4.504   1.211   5.043
 4175TIP3   OH212488   6.406   0.355   2.893
 4175TIP3    H112489   6.492   0.356   2.851
 4175TIP3    H212490   6.420   0.400   2.976
 4176TIP3   OH212491   4.457   6.129   2.251
 4176TIP3    H112492   4.516   6.150   2.323
 4176TIP3    H212493   4.410   6.051   2.280
 4177TIP3   OH212494   0.958   1.269   2.512
 4177TIP3    H112495   0.958   1.313   2.596
 4177TIP3    H212496   0.940   1.177   2.533
 4178TIP3   OH212497   6.524   4.411   1.711
 4178TIP3    H112498   6.526   4.352   1.636
 4178TIP3    H212499   6.433   4.407   1.742
 4179TIP3   OH212500   0.556   4.053   2.111
 4179TIP3    H112501   0.626   4.003   2.152
 4179TIP3    H212502   0.521   3.995   2.044
 4180TIP3   OH212503   0.394   4.250   0.673
 4180TIP3    H112504   0.308   4.217   0.644
 4180TIP3    H212505   0.378   4.282   0.761
 4181TIP3   OH212506   6.606   0.134   4.866
 4181TIP3    H112507   6.601   0.160   4.774
 4181TIP3    H212508   6.699   0.144   4.890
 4182TIP3   OH212509   2.042   0.111   2.841
 4182TIP3    H112510   2.006   0.196   2.866
 4182TIP3    H212511   2.053   0.064   2.923
 4183TIP3   OH212512   2.975   6.583   0.177
 4183TIP3    H112513   3.032   6.628   0.115
 4183TIP3    H212514   2.886   6.600   0.146
 4184TIP3   OH212515   7.049   1.366   2.087
 4184TIP3    H112516   7.038   1.351   2.181
 4184TIP3    H212517   6.978   1.426   2.064
 4185TIP3   OH212518   5.350   2.843   2.240
 4185TIP3    H112519   5.433   2.866   2.197
 4185TIP3    H212520   5.311   2.928   2.262
 4186TIP3   OH212521   4.361   2.035   3.655
 4186TIP3    H112522   4.273   2.054   3.623
 4186TIP3    H212523   4.348   2.005   3.745
 4187TIP3   OH212524   5.069   5.783   1.126
 4187TIP3    H112525   5.097   5.761   1.215
 4187TIP3    H212526   5.151   5.797   1.078
 4188TIP3   OH212527   5.999   4.447   4.510
 4188TIP3    H112528   6.056   4.397   4.568
 4188TIP3    H212529   5.938   4.491   4.568
 4189TIP3   OH212530   6.012   4.818   4.831
 4189TIP3    H112531   6.089   4.767   4.856
 4189TIP3    H212532   6.048   4.903   4.805
 4190TIP3   OH212533   4.126   6.320   1.687
 4190TIP3    H112534   4.057   6.373   1.648
 4190TIP3    H212535   4.197   6.382   1.703
 4191TIP3   OH212536   0.641   4.354   5.521
 4191TIP3    H112537   0.734   4.370   5.537
 4191TIP3    H212538   0.625   4.392   5.435
 4192TIP3   OH212539   3.224   2.432   0.697
 4192TIP3    H112540   3.275   2.491   0.753
 4192TIP3    H212541   3.210   2.481   0.616
 4193TIP3   OH212542   3.295   0.400   0.006
 4193TIP3    H112543   3.341   0.402   0.090
 4193TIP3    H212544   3.364   0.393  -0.060
 4194TIP3   OH212545   6.913   2.671   2.620
 4194TIP3    H112546   6.940   2.759   2.594
 4194TIP3    H212547   6.965   2.652   2.698
 4195TIP3   OH212548   2.266   4.209   4.870
 4195TIP3    H112549   2.265   4.221   4.965
 4195TIP3    H212550   2.220   4.126   4.856
 4196TIP3   OH212551   0.090   1.983   3.588
 4196TIP3    H112552   0.014   1.986   3.529
 4196TIP3    H212553   0.132   2.068   3.577
 4197TIP3   OH212554   3.483   5.270   1.483
 4197TIP3    H112555   3.491   5.185   1.526
 4197TIP3    H212556   3.503   5.252   1.391
 4198TIP3   OH212557   0.494   3.887   5.042
 4198TIP3    H112558   0.413   3.900   5.091
 4198TIP3    H212559   0.521   3.975   5.016
 4199TIP3   OH212560   5.701   0.324   0.252
 4199TIP3    H112561   5.713   0.336   0.157
 4199TIP3    H212562   5.773   0.266   0.278
 4200TIP3   OH212563   2.230   0.680   1.377
 4200TIP3    H112564   2.146   0.638   1.356
 4200TIP3    H212565   2.272   0.694   1.293
 4201TIP3   OH212566   6.293   5.256   4.908
 4201TIP3    H112567   6.295   5.349   4.931
 4201TIP3    H212568   6.385   5.229   4.909
 4202TIP3   OH212569   5.053   6.655   2.693
 4202TIP3    H112570   5.093   6.695   2.771
 4202TIP3    H212571   5.017   6.572   2.724
 4203TIP3   OH212572   0.715   3.685   0.319
 4203TIP3    H112573   0.626   3.719   0.323
 4203TIP3    H212574   0.770   3.756   0.353
 4204TIP3   OH212575   0.519   6.609   3.773
 4204TIP3    H112576   0.424   6.625   3.781
 4204TIP3    H212577   0.549   6.600   3.864
 4205TIP3   OH212578   0.140   4.021   1.577
 4205TIP3    H112579   0.227   3.987   1.556
 4205TIP3    H212580   0.123   3.992   1.667
 4206TIP3   OH212581   4.820   4.854   1.857
 4206TIP3    H112582   4.744   4.806   1.825
 4206TIP3    H212583   4.863   4.887   1.777
 4207TIP3   OH212584   4.460   6.525   1.539
 4207TIP3    H112585   4.476   6.431   1.531
 4207TIP3    H212586   4.376   6.539   1.496
 4208TIP3   OH212587   2.719   1.529   3.770
 4208TIP3    H112588   2.701   1.512   3.863
 4208TIP3    H212589   2.633   1.549   3.733
 4209TIP3   OH212590   3.796   6.005   2.611
 4209TIP3    H112591   3.859   6.040   2.674
 4209TIP3    H212592   3.831   6.030   2.526
 4210TIP3   OH212593   2.059   3.873   3.502
 4210TIP3    H112594   2.052   3.968   3.488
 4210TIP3    H212595   2.150   3.858   3.525
 4211TIP3   OH212596   3.848   5.004   4.859
 4211TIP3    H112597   3.819   5.096   4.862
 4211TIP3    H212598   3.813   4.971   4.776
 4212TIP3   OH212599   2.686   2.870   3.661
 4212TIP3    H112600   2.767   2.855   3.711
 4212TIP3    H212601   2.630   2.919   3.721
 4213TIP3   OH212602   4.261   1.208   2.595
 4213TIP3    H112603   4.183   1.251   2.560
 4213TIP3    H212604   4.249   1.211   2.690
 4214TIP3   OH212605   5.080   2.398   0.813
 4214TIP3    H112606   5.099   2.480   0.859
 4214TIP3    H212607   5.030   2.347   0.876
 4215TIP3   OH212608   0.613   2.847   0.513
 4215TIP3    H112609   0.650   2.768   0.474
 4215TIP3    H212610   0.564   2.815   0.588
 4216TIP3   OH212611   5.400   6.622   3.298
 4216TIP3    H112612   5.327   6.576   3.256
 4216TIP3    H212613   5.463   6.553   3.320
 4217TIP3   OH212614   4.765   4.038   2.765
 4217TIP3    H112615   4.694   4.056   2.703
 4217TIP3    H212616   4.835   4.000   2.711
 4218TIP3   OH212617   5.518   0.405   3.644
 4218TIP3    H112618   5.541   0.320   3.607
 4218TIP3    H212619   5.518   0.464   3.569
 4219TIP3   OH212620   6.064   4.757   2.983
 4219TIP3    H112621   5.973   4.735   2.961
 4219TIP3    H212622   6.094   4.683   3.035
 4220TIP3   OH212623   0.359   6.036   1.450
 4220TIP3    H112624   0.365   5.944   1.477
 4220TIP3    H212625   0.446   6.072   1.470
 4221TIP3   OH212626   2.513   2.278   3.395
 4221TIP3    H112627   2.562   2.236   3.324
 4221TIP3    H212628   2.485   2.361   3.359
 4222TIP3   OH212629   2.437   0.387   5.083
 4222TIP3    H112630   2.433   0.413   5.175
 4222TIP3    H212631   2.368   0.437   5.040
 4223TIP3   OH212632   6.989   0.850   3.705
 4223TIP3    H112633   7.007   0.939   3.737
 4223TIP3    H212634   7.075   0.809   3.699
 4224TIP3   OH212635   6.642   1.769   4.926
 4224TIP3    H112636   6.702   1.805   4.861
 4224TIP3    H212637   6.694   1.706   4.976
 4225TIP3   OH212638   4.629   3.378   4.417
 4225TIP3    H112639   4.621   3.302   4.475
 4225TIP3    H212640   4.546   3.424   4.428
 4226TIP3   OH212641   3.759   4.264   2.596
 4226TIP3    H112642   3.788   4.354   2.608
 4226TIP3    H212643   3.719   4.240   2.679
 4227TIP3   OH212644   4.106   3.645   5.134
 4227TIP3    H112645   4.076   3.559   5.106
 4227TIP3    H212646   4.097   3.644   5.229
 4228TIP3   OH212647   1.476   2.087   0.524
 4228TIP3    H112648   1.417   2.014   0.503
 4228TIP3    H212649   1.527   2.056   0.599
 4229TIP3   OH212650   3.328   6.105   0.673
 4229TIP3    H112651   3.260   6.045   0.642
 4229TIP3    H212652   3.394   6.104   0.604
 4230TIP3   OH212653   0.784   0.798   5.587
 4230TIP3    H112654   0.808   0.823   5.676
 4230TIP3    H212655   0.866   0.801   5.538
 4231TIP3   OH212656   3.561   1.044   3.147
 4231TIP3    H112657   3.545   0.950   3.150
 4231TIP3    H212658   3.519   1.078   3.226
 4232TIP3   OH212659   0.834   4.629   0.014
 4232TIP3    H112660   0.816   4.669   0.099
 4232TIP3    H212661   0.861   4.540   0.035
 4233TIP3   OH212662   6.607   3.013   4.484
 4233TIP3    H112663   6.613   2.925   4.522
 4233TIP3    H212664   6.513   3.029   4.476
 4234TIP3   OH212665   6.003   6.386   0.419
 4234TIP3    H112666   6.078   6.421   0.467
 4234TIP3    H212667   6.042   6.335   0.347
 4235TIP3   OH212668   3.782   3.675   3.161
 4235TIP3    H112669   3.826   3.589   3.160
 4235TIP3    H212670   3.763   3.693   3.070
 4236TIP3   OH212671   1.752   0.222   1.240
 4236TIP3    H112672   1.845   0.200   1.245
 4236TIP3    H212673   1.745   0.309   1.280
 4237TIP3   OH212674   6.422   6.065   1.060
 4237TIP3    H112675   6.488   6.128   1.088
 4237TIP3    H212676   6.366   6.052   1.136
 4238TIP3   OH212677   1.202   1.980   3.455
 4238TIP3    H112678   1.232   1.942   3.538
 4238TIP3    H212679   1.113   1.947   3.443
 4239TIP3   OH212680   0.665   3.219   2.465
 4239TIP3    H112681   0.742   3.234   2.411
 4239TIP3    H212682   0.698   3.173   2.542
 4240TIP3   OH212683   2.563   0.994   4.911
 4240TIP3    H112684   2.534   0.969   4.823
 4240TIP3    H212685   2.655   0.970   4.913
 4241TIP3   OH212686   5.935   6.042   3.381
 4241TIP3    H112687   5.846   6.008   3.375
 4241TIP3    H212688   5.927   6.123   3.432
 4242TIP3   OH212689   3.495   2.423   5.190
 4242TIP3    H112690   3.572   2.449   5.240
 4242TIP3    H212691   3.524   2.424   5.099
 4243TIP3   OH212692   6.595   2.405   1.182
 4243TIP3    H112693   6.526   2.457   1.140
 4243TIP3    H212694   6.550   2.357   1.251
 4244TIP3   OH212695   5.412   3.401   2.611
 4244TIP3    H112696   5.374   3.430   2.695
 4244TIP3    H212697   5.357   3.442   2.545
 4245TIP3   OH212698   5.549   3.145   1.919
 4245TIP3    H112699   5.514   3.214   1.975
 4245TIP3    H212700   5.472   3.094   1.893
 4246TIP3   OH212701   3.400   4.719   5.029
 4246TIP3    H112702   3.370   4.731   5.119
 4246TIP3    H212703   3.439   4.803   5.005
 4247TIP3   OH212704   2.623   3.582   2.273
 4247TIP3    H112705   2.708   3.619   2.298
 4247TIP3    H212706   2.629   3.490   2.298
 4248TIP3   OH212707   2.535   4.464   1.779
 4248TIP3    H112708   2.521   4.385   1.830
 4248TIP3    H212709   2.487   4.532   1.826
 4249TIP3   OH212710   5.338   1.028   0.777
 4249TIP3    H112711   5.282   0.953   0.796
 4249TIP3    H212712   5.299   1.069   0.700
 4250TIP3   OH212713   4.364   0.524   0.742
 4250TIP3    H112714   4.435   0.495   0.800
 4250TIP3    H212715   4.397   0.506   0.654
 4251TIP3   OH212716   3.208   2.355   4.208
 4251TIP3    H112717   3.223   2.276   4.155
 4251TIP3    H212718   3.115   2.373   4.200
 4252TIP3   OH212719   5.807   3.226   2.543
 4252TIP3    H112720   5.794   3.210   2.450
 4252TIP3    H212721   5.853   3.149   2.575
 4253TIP3   OH212722   1.382   5.555   0.910
 4253TIP3    H112723   1.295   5.591   0.894
 4253TIP3    H212724   1.380   5.525   1.001
 4254TIP3   OH212725   3.144   5.679   1.278
 4254TIP3    H112726   3.167   5.769   1.302
 4254TIP3    H212727   3.048   5.676   1.287
 4255TIP3   OH212728   3.723   3.945   3.154
 4255TIP3    H112729   3.744   3.852   3.152
 4255TIP3    H212730   3.805   3.989   3.133
 4256TIP3   OH212731   1.891   6.430   2.123
 4256TIP3    H112732   1.807   6.397   2.155
 4256TIP3    H212733   1.878   6.441   2.029
 4257TIP3   OH212734   3.369   3.148   1.665
 4257TIP3    H112735   3.319   3.216   1.620
 4257TIP3    H212736   3.304   3.082   1.688
 4258TIP3   OH212737   6.349   0.252   3.867
 4258TIP3    H112738   6.399   0.262   3.948
 4258TIP3    H212739   6.307   0.167   3.875
 4259TIP3   OH212740   1.623   1.947   0.706
 4259TIP3    H112741   1.606   1.919   0.796
 4259TIP3    H212742   1.696   2.008   0.713
 4260TIP3   OH212743   3.802   3.754   5.452
 4260TIP3    H112744   3.721   3.737   5.499
 4260TIP3    H212745   3.775   3.798   5.371
 4261TIP3   OH212746   1.179   1.830   2.225
 4261TIP3    H112747   1.210   1.773   2.154
 4261TIP3    H212748   1.207   1.786   2.305
 4262TIP3   OH212749   6.401   5.864   0.852
 4262TIP3    H112750   6.402   5.931   0.921
 4262TIP3    H212751   6.471   5.804   0.877
 4263TIP3   OH212752   2.704   2.479   0.567
 4263TIP3    H112753   2.737   2.390   0.579
 4263TIP3    H212754   2.609   2.471   0.579
 4264TIP3   OH212755   0.288   1.770   2.567
 4264TIP3    H112756   0.202   1.729   2.577
 4264TIP3    H212757   0.270   1.855   2.527
 4265TIP3   OH212758   1.447   6.434   0.831
 4265TIP3    H112759   1.417   6.468   0.916
 4265TIP3    H212760   1.533   6.397   0.850
 4266TIP3   OH212761   6.790   1.772   0.991
 4266TIP3    H112762   6.835   1.806   1.069
 4266TIP3    H212763   6.805   1.839   0.924
 4267TIP3   OH212764   0.439   2.351   5.689
 4267TIP3    H112765   0.453   2.268   5.736
 4267TIP3    H212766   0.527   2.386   5.677
 4268TIP3   OH212767   3.366   2.856   5.643
 4268TIP3    H112768   3.457   2.880   5.626
 4268TIP3    H212769   3.315   2.933   5.618
 4269TIP3   OH212770   5.364   5.382   4.459
 4269TIP3    H112771   5.312   5.457   4.487
 4269TIP3    H212772   5.428   5.368   4.529
 4270TIP3   OH212773   1.243   1.729   0.423
 4270TIP3    H112774   1.154   1.757   0.441
 4270TIP3    H212775   1.234   1.643   0.382
 4271TIP3   OH212776   1.635   0.897   4.697
 4271TIP3    H112777   1.633   0.972   4.757
 4271TIP3    H212778   1.721   0.858   4.710
 4272TIP3   OH212779   4.384   5.418   2.276
 4272TIP3    H112780   4.478   5.435   2.262
 4272TIP3    H212781   4.350   5.501   2.309
 4273TIP3   OH212782   4.752   0.452   2.753
 4273TIP3    H112783   4.800   0.412   2.681
 4273TIP3    H212784   4.813   0.449   2.827
 4274TIP3   OH212785   0.213   4.836   5.419
 4274TIP3    H112786   0.304   4.865   5.434
 4274TIP3    H212787   0.222   4.745   5.392
 4275TIP3   OH212788   5.020   0.145   0.411
 4275TIP3    H112789   4.942   0.199   0.403
 4275TIP3    H212790   5.089   0.196   0.370
 4276TIP3   OH212791   1.647   0.760   0.606
 4276TIP3    H112792   1.725   0.813   0.593
 4276TIP3    H212793   1.606   0.754   0.520
 4277TIP3   OH212794   6.376   6.409   3.280
 4277TIP3    H112795   6.346   6.468   3.350
 4277TIP3    H212796   6.469   6.395   3.299
 4278TIP3   OH212797   1.443   5.169   2.014
 4278TIP3    H112798   1.478   5.219   2.087
 4278TIP3    H212799   1.470   5.079   2.031
 4279TIP3   OH212800   0.848   1.699   1.188
 4279TIP3    H112801   0.895   1.711   1.271
 4279TIP3    H212802   0.784   1.631   1.207
 4280TIP3   OH212803   1.949   5.695   4.013
 4280TIP3    H112804   1.864   5.727   4.042
 4280TIP3    H212805   1.990   5.770   3.970
 4281TIP3   OH212806   3.757   0.638   2.260
 4281TIP3    H112807   3.827   0.678   2.208
 4281TIP3    H212808   3.716   0.576   2.201
 4282TIP3   OH212809   1.098   1.472   4.218
 4282TIP3    H112810   1.175   1.513   4.258
 4282TIP3    H212811   1.063   1.539   4.160
 4283TIP3   OH212812   2.710   4.968   0.044
 4283TIP3    H112813   2.617   4.944   0.045
 4283TIP3    H212814   2.756   4.885   0.032
 4284TIP3   OH212815   2.968   3.056   4.682
 4284TIP3    H112816   2.889   3.011   4.711
 4284TIP3    H212817   2.994   3.110   4.756
 4285TIP3   OH212818   1.966   1.820   1.537
 4285TIP3    H112819   1.950   1.841   1.445
 4285TIP3    H212820   1.964   1.905   1.582
 4286TIP3   OH212821   4.863   2.500   3.729
 4286TIP3    H112822   4.847   2.546   3.812
 4286TIP3    H212823   4.908   2.419   3.755
 4287TIP3   OH212824   6.036   2.654   0.823
 4287TIP3    H112825   5.967   2.719   0.809
 4287TIP3    H212826   6.113   2.705   0.847
 4288TIP3   OH212827   5.042   1.006   0.271
 4288TIP3    H112828   5.049   1.045   0.184
 4288TIP3    H212829   5.005   0.919   0.255
 4289TIP3   OH212830   5.256   0.868   2.326
 4289TIP3    H112831   5.334   0.818   2.351
 4289TIP3    H212832   5.289   0.955   2.304
 4290TIP3   OH212833   3.218   1.809   3.511
 4290TIP3    H112834   3.177   1.806   3.425
 4290TIP3    H212835   3.264   1.893   3.513
 4291TIP3   OH212836   3.941   1.839   4.708
 4291TIP3    H112837   4.012   1.783   4.740
 4291TIP3    H212838   3.985   1.917   4.676
 4292TIP3   OH212839   5.696   4.207   2.577
 4292TIP3    H112840   5.672   4.287   2.624
 4292TIP3    H212841   5.617   4.186   2.526
 4293TIP3   OH212842   3.293   2.099   5.596
 4293TIP3    H112843   3.289   2.179   5.648
 4293TIP3    H212844   3.386   2.077   5.594
 4294TIP3   OH212845   3.998   3.835   0.251
 4294TIP3    H112846   3.975   3.791   0.333
 4294TIP3    H212847   3.918   3.881   0.225
 4295TIP3   OH212848   1.618   6.498   2.314
 4295TIP3    H112849   1.570   6.460   2.240
 4295TIP3    H212850   1.630   6.590   2.289
 4296TIP3   OH212851   6.114   1.440   5.792
 4296TIP3    H112852   6.038   1.381   5.789
 4296TIP3    H212853   6.100   1.492   5.872
 4297TIP3   OH212854   4.343   2.042   4.488
 4297TIP3    H112855   4.434   2.014   4.474
 4297TIP3    H212856   4.314   2.072   4.402
 4298TIP3   OH212857   3.138   4.698   1.902
 4298TIP3    H112858   3.111   4.646   1.978
 4298TIP3    H212859   3.206   4.756   1.936
 4299TIP3   OH212860   0.972   1.398   1.091
 4299TIP3    H112861   1.059   1.425   1.123
 4299TIP3    H212862   0.928   1.364   1.169
 4300TIP3   OH212863   2.861   5.134   0.283
 4300TIP3    H112864   2.882   5.168   0.370
 4300TIP3    H212865   2.776   5.091   0.295
 4301TIP3   OH212866   6.839   0.014   4.319
 4301TIP3    H112867   6.780  -0.023   4.384
 4301TIP3    H212868   6.841   0.108   4.339
 4302TIP3   OH212869   5.288   6.212   0.372
 4302TIP3    H112870   5.320   6.270   0.441
 4302TIP3    H212871   5.201   6.246   0.351
 4303TIP3   OH212872   6.795   6.114   3.979
 4303TIP3    H112873   6.764   6.071   4.060
 4303TIP3    H212874   6.889   6.121   3.991
 4304TIP3   OH212875   6.136   6.716   3.098
 4304TIP3    H112876   6.180   6.639   3.062
 4304TIP3    H212877   6.065   6.680   3.151
 4305TIP3   OH212878   4.912   1.283   1.163
 4305TIP3    H112879   4.870   1.340   1.228
 4305TIP3    H212880   5.002   1.275   1.193
 4306TIP3   OH212881   1.765   5.824   5.383
 4306TIP3    H112882   1.818   5.761   5.431
 4306TIP3    H212883   1.706   5.771   5.329
 4307TIP3   OH212884   6.280   6.055   1.304
 4307TIP3    H112885   6.332   6.001   1.363
 4307TIP3    H212886   6.273   6.139   1.349
 4308TIP3   OH212887   0.718   1.042   0.464
 4308TIP3    H112888   0.792   1.039   0.403
 4308TIP3    H212889   0.700   1.135   0.477
 4309TIP3   OH212890   6.991   4.569   1.051
 4309TIP3    H112891   7.032   4.645   1.010
 4309TIP3    H212892   6.909   4.603   1.087
 4310TIP3   OH212893   1.360   3.883   5.141
 4310TIP3    H112894   1.437   3.937   5.123
 4310TIP3    H212895   1.362   3.816   5.072
 4311TIP3   OH212896   7.136   5.836   3.377
 4311TIP3    H112897   7.048   5.801   3.394
 4311TIP3    H212898   7.167   5.786   3.302
 4312TIP3   OH212899   4.112   2.960   2.006
 4312TIP3    H112900   4.088   3.007   2.087
 4312TIP3    H212901   4.178   2.897   2.034
 4313TIP3   OH212902   5.211   0.908   3.837
 4313TIP3    H112903   5.178   0.847   3.771
 4313TIP3    H212904   5.226   0.990   3.789
 4314TIP3   OH212905   5.103   3.425   0.641
 4314TIP3    H112906   5.122   3.336   0.668
 4314TIP3    H212907   5.026   3.450   0.692
 4315TIP3   OH212908   6.251   0.905   0.465
 4315TIP3    H112909   6.280   0.868   0.381
 4315TIP3    H212910   6.160   0.877   0.473
 4316TIP3   OH212911   1.669   2.894   3.996
 4316TIP3    H112912   1.594   2.839   4.018
 4316TIP3    H212913   1.638   2.948   3.923
 4317TIP3   OH212914   4.897   2.586   1.077
 4317TIP3    H112915   4.857   2.549   0.998
 4317TIP3    H212916   4.849   2.544   1.149
 4318TIP3   OH212917   3.432   2.756   1.565
 4318TIP3    H112918   3.487   2.682   1.540
 4318TIP3    H212919   3.483   2.833   1.541
 4319TIP3   OH212920   3.371   4.739   2.785
 4319TIP3    H112921   3.364   4.811   2.847
 4319TIP3    H212922   3.417   4.670   2.833
 4320TIP3   OH212923   5.786   1.180   0.432
 4320TIP3    H112924   5.696   1.177   0.401
 4320TIP3    H212925   5.828   1.247   0.378
 4321TIP3   OH212926   6.202   6.675   0.178
 4321TIP3    H112927   6.224   6.736   0.107
 4321TIP3    H212928   6.248   6.594   0.155
 4322TIP3   OH212929   3.403   1.646   2.249
 4322TIP3    H112930   3.435   1.560   2.276
 4322TIP3    H212931   3.480   1.702   2.252
 4323TIP3   OH212932   3.942   2.211   5.491
 4323TIP3    H112933   3.927   2.288   5.436
 4323TIP3    H212934   3.909   2.236   5.577
 4324TIP3   OH212935   6.774   5.132   3.009
 4324TIP3    H112936   6.715   5.061   2.986
 4324TIP3    H212937   6.860   5.090   3.016
 4325TIP3   OH212938   3.656   6.379   5.295
 4325TIP3    H112939   3.575   6.361   5.247
 4325TIP3    H212940   3.700   6.448   5.244
 4326TIP3   OH212941   7.154   4.790   3.174
 4326TIP3    H112942   7.175   4.706   3.213
 4326TIP3    H212943   7.220   4.804   3.107
 4327TIP3   OH212944   1.807   2.232   2.084
 4327TIP3    H112945   1.736   2.289   2.113
 4327TIP3    H212946   1.768   2.145   2.075
 4328TIP3   OH212947   3.568   4.522   0.973
 4328TIP3    H112948   3.615   4.438   0.978
 4328TIP3    H212949   3.531   4.523   0.885
 4329TIP3   OH212950   2.591   1.153   5.122
 4329TIP3    H112951   2.533   1.100   5.068
 4329TIP3    H212952   2.560   1.139   5.212
 4330TIP3   OH212953   3.856   6.354   4.399
 4330TIP3    H112954   3.858   6.271   4.448
 4330TIP3    H212955   3.762   6.374   4.390
 4331TIP3   OH212956   4.541   2.373   4.906
 4331TIP3    H112957   4.537   2.368   4.810
 4331TIP3    H212958   4.488   2.299   4.936
 4332TIP3   OH212959   3.636   2.536   2.240
 4332TIP3    H112960   3.708   2.598   2.230
 4332TIP3    H212961   3.680   2.451   2.247
 4333TIP3   OH212962   0.946   0.823   1.673
 4333TIP3    H112963   0.867   0.857   1.714
 4333TIP3    H212964   0.923   0.815   1.580
 4334TIP3   OH212965   3.393   5.807   0.923
 4334TIP3    H112966   3.470   5.839   0.875
 4334TIP3    H212967   3.376   5.874   0.989
 4335TIP3   OH212968   6.474   6.501   0.438
 4335TIP3    H112969   6.449   6.513   0.347
 4335TIP3    H212970   6.553   6.554   0.449
 4336TIP3   OH212971   5.767   0.861   0.240
 4336TIP3    H112972   5.726   0.832   0.320
 4336TIP3    H212973   5.848   0.810   0.234
 4337TIP3   OH212974   2.704   6.764   3.653
 4337TIP3    H112975   2.710   6.669   3.642
 4337TIP3    H212976   2.752   6.782   3.733
 4338TIP3   OH212977   4.101   3.452   3.701
 4338TIP3    H112978   4.055   3.405   3.631
 4338TIP3    H212979   4.163   3.509   3.654
 4339TIP3   OH212980   3.089   3.640   2.782
 4339TIP3    H112981   3.166   3.695   2.796
 4339TIP3    H212982   3.016   3.691   2.816
 4340TIP3   OH212983   5.397   0.349   5.742
 4340TIP3    H112984   5.375   0.260   5.769
 4340TIP3    H212985   5.460   0.379   5.807
 4341TIP3   OH212986   1.775   5.380   4.427
 4341TIP3    H112987   1.866   5.410   4.426
 4341TIP3    H212988   1.727   5.454   4.464
 4342TIP3   OH212989   2.749   1.119   1.318
 4342TIP3    H112990   2.745   1.170   1.237
 4342TIP3    H212991   2.821   1.158   1.368
 4343TIP3   OH212992   2.795   4.303   1.847
 4343TIP3    H112993   2.701   4.288   1.862
 4343TIP3    H212994   2.805   4.398   1.851
 4344TIP3   OH212995   4.435   6.623   3.101
 4344TIP3    H112996   4.493   6.593   3.171
 4344TIP3    H212997   4.421   6.716   3.120
 4345TIP3   OH212998   5.358   3.140   4.189
 4345TIP3    H112999   5.393   3.175   4.107
 4345TIP3    H213000   5.285   3.198   4.212
 4346TIP3   OH213001   3.227   0.527   5.837
 4346TIP3    H113002   3.253   0.459   5.899
 4346TIP3    H213003   3.190   0.596   5.891
 4347TIP3   OH213004   0.681   6.587   2.294
 4347TIP3    H113005   0.742   6.548   2.356
 4347TIP3    H213006   0.596   6.547   2.315
 4348TIP3   OH213007   5.006   1.729   5.460
 4348TIP3    H113008   5.070   1.687   5.402
 4348TIP3    H213009   5.054   1.800   5.500
 4349TIP3   OH213010   2.571   1.861   2.714
 4349TIP3    H113011   2.603   1.835   2.627
 4349TIP3    H213012   2.580   1.956   2.716
 4350TIP3   OH213013   3.470   2.947   0.291
 4350TIP3    H113014   3.544   2.941   0.231
 4350TIP3    H213015   3.510   2.957   0.377
 4351TIP3   OH213016   1.267   2.094   0.137
 4351TIP3    H113017   1.247   2.149   0.213
 4351TIP3    H213018   1.182   2.058   0.111
 4352TIP3   OH213019   3.442   1.256   1.174
 4352TIP3    H113020   3.366   1.213   1.136
 4352TIP3    H213021   3.413   1.346   1.191
 4353TIP3   OH213022   6.153   0.999   1.424
 4353TIP3    H113023   6.207   0.944   1.480
 4353TIP3    H213024   6.147   1.083   1.470
 4354TIP3   OH213025   1.900   4.821   0.924
 4354TIP3    H113026   1.925   4.850   0.836
 4354TIP3    H213027   1.976   4.842   0.978
 4355TIP3   OH213028   5.111   4.955   5.861
 4355TIP3    H113029   5.192   4.992   5.897
 4355TIP3    H213030   5.124   4.956   5.766
 4356TIP3   OH213031   6.579   4.696   5.101
 4356TIP3    H113032   6.521   4.623   5.080
 4356TIP3    H213033   6.522   4.761   5.141
 4357TIP3   OH213034   5.718   2.899   4.955
 4357TIP3    H113035   5.652   2.838   4.923
 4357TIP3    H213036   5.674   2.949   5.024
 4358TIP3   OH213037   3.164   4.981   3.214
 4358TIP3    H113038   3.175   4.921   3.141
 4358TIP3    H213039   3.199   4.934   3.290
 4359TIP3   OH213040   4.935   4.980   0.797
 4359TIP3    H113041   4.944   5.075   0.793
 4359TIP3    H213042   4.851   4.965   0.840
 4360TIP3   OH213043   2.925   0.716   0.654
 4360TIP3    H113044   2.981   0.645   0.623
 4360TIP3    H213045   2.836   0.683   0.642
 4361TIP3   OH213046   6.743   4.815   3.559
 4361TIP3    H113047   6.781   4.765   3.631
 4361TIP3    H213048   6.739   4.905   3.591
 4362TIP3   OH213049   3.920   1.446   3.364
 4362TIP3    H113050   3.998   1.391   3.360
 4362TIP3    H213051   3.938   1.519   3.305
 4363TIP3   OH213052   3.646   4.613   4.347
 4363TIP3    H113053   3.719   4.668   4.320
 4363TIP3    H213054   3.667   4.586   4.436
 4364TIP3   OH213055   5.370   1.036   2.078
 4364TIP3    H113056   5.403   1.105   2.020
 4364TIP3    H213057   5.381   0.955   2.029
 4365TIP3   OH213058   2.648   4.471   2.734
 4365TIP3    H113059   2.644   4.561   2.765
 4365TIP3    H213060   2.647   4.477   2.639
 4366TIP3   OH213061   6.120   0.845   3.597
 4366TIP3    H113062   6.199   0.790   3.602
 4366TIP3    H213063   6.146   0.919   3.543
 4367TIP3   OH213064   0.927   1.612   0.920
 4367TIP3    H113065   0.913   1.676   0.990
 4367TIP3    H213066   0.948   1.531   0.966
 4368TIP3   OH213067   0.127   1.885   5.194
 4368TIP3    H113068   0.086   1.808   5.233
 4368TIP3    H213069   0.208   1.897   5.243
 4369TIP3   OH213070   2.616   6.015   4.921
 4369TIP3    H113071   2.596   6.026   5.014
 4369TIP3    H213072   2.537   5.975   4.884
 4370TIP3   OH213073   2.761   3.462   3.317
 4370TIP3    H113074   2.719   3.387   3.276
 4370TIP3    H213075   2.855   3.442   3.315
 4371TIP3   OH213076   2.208   5.107   3.800
 4371TIP3    H113077   2.131   5.058   3.827
 4371TIP3    H213078   2.190   5.197   3.825
 4372TIP3   OH213079   2.263   0.213   0.399
 4372TIP3    H113080   2.168   0.216   0.384
 4372TIP3    H213081   2.278   0.131   0.446
 4373TIP3   OH213082   2.096   1.596   1.813
 4373TIP3    H113083   2.109   1.538   1.738
 4373TIP3    H213084   2.006   1.578   1.841
 4374TIP3   OH213085   5.612   0.950   2.197
 4374TIP3    H113086   5.518   0.951   2.182
 4374TIP3    H213087   5.650   0.955   2.109
 4375TIP3   OH213088   7.020   5.871   2.228
 4375TIP3    H113089   7.110   5.893   2.206
 4375TIP3    H213090   6.978   5.955   2.244
 4376TIP3   OH213091   2.303   1.966   5.233
 4376TIP3    H113092   2.342   1.958   5.320
 4376TIP3    H213093   2.326   1.884   5.189
 4377TIP3   OH213094   0.823   2.491   2.028
 4377TIP3    H113095   0.786   2.408   2.058
 4377TIP3    H213096   0.811   2.489   1.933
 4378TIP3   OH213097   5.918   4.586   2.379
 4378TIP3    H113098   5.912   4.632   2.295
 4378TIP3    H213099   6.009   4.556   2.383
 4379TIP3   OH213100   6.893   4.650   0.349
 4379TIP3    H113101   6.896   4.675   0.257
 4379TIP3    H213102   6.801   4.630   0.366
 4380TIP3   OH213103   2.831   2.063   3.597
 4380TIP3    H113104   2.865   2.152   3.608
 4380TIP3    H213105   2.886   2.009   3.653
 4381TIP3   OH213106   2.334   3.373   2.967
 4381TIP3    H113107   2.287   3.384   3.050
 4381TIP3    H213108   2.265   3.362   2.902
 4382TIP3   OH213109   5.496   1.103   4.166
 4382TIP3    H113110   5.485   1.011   4.192
 4382TIP3    H213111   5.585   1.106   4.130
 4383TIP3   OH213112   5.210   2.255   4.843
 4383TIP3    H113113   5.171   2.176   4.881
 4383TIP3    H213114   5.157   2.327   4.876
 4384TIP3   OH213115   7.005   3.454   5.394
 4384TIP3    H113116   7.057   3.390   5.346
 4384TIP3    H213117   7.028   3.538   5.355
 4385TIP3   OH213118   4.762   6.297   2.232
 4385TIP3    H113119   4.799   6.218   2.194
 4385TIP3    H213120   4.704   6.331   2.164
 4386TIP3   OH213121   2.643   0.212   1.902
 4386TIP3    H113122   2.627   0.239   1.993
 4386TIP3    H213123   2.632   0.117   1.904
 4387TIP3   OH213124   2.463   6.515   1.463
 4387TIP3    H113125   2.476   6.604   1.429
 4387TIP3    H213126   2.408   6.473   1.396
 4388TIP3   OH213127   3.429   0.068   5.275
 4388TIP3    H113128   3.377  -0.006   5.304
 4388TIP3    H213129   3.510   0.062   5.325
 4389TIP3   OH213130   1.158   0.235   0.562
 4389TIP3    H113131   1.145   0.141   0.580
 4389TIP3    H213132   1.124   0.279   0.639
 4390TIP3   OH213133   2.312   0.302   2.266
 4390TIP3    H113134   2.259   0.317   2.188
 4390TIP3    H213135   2.351   0.387   2.286
 4391TIP3   OH213136   3.405   1.364   0.797
 4391TIP3    H113137   3.359   1.436   0.841
 4391TIP3    H213138   3.441   1.404   0.718
 4392TIP3   OH213139   5.722   2.518   5.464
 4392TIP3    H113140   5.662   2.586   5.435
 4392TIP3    H213141   5.714   2.449   5.398
 4393TIP3   OH213142   6.526   6.070   1.872
 4393TIP3    H113143   6.432   6.083   1.885
 4393TIP3    H213144   6.539   5.976   1.884
 4394TIP3   OH213145   6.651   5.841   3.112
 4394TIP3    H113146   6.573   5.894   3.127
 4394TIP3    H213147   6.704   5.854   3.191
 4395TIP3   OH213148   5.890   0.305   5.249
 4395TIP3    H113149   5.936   0.306   5.165
 4395TIP3    H213150   5.947   0.255   5.307
 4396TIP3   OH213151   6.060   3.258   2.116
 4396TIP3    H113152   6.057   3.341   2.069
 4396TIP3    H213153   6.032   3.193   2.052
 4397TIP3   OH213154   6.783   1.735   4.476
 4397TIP3    H113155   6.764   1.770   4.390
 4397TIP3    H213156   6.735   1.791   4.537
 4398TIP3   OH213157   0.544   4.091   0.091
 4398TIP3    H113158   0.558   4.022   0.026
 4398TIP3    H213159   0.457   4.125   0.071
 4399TIP3   OH213160   0.597   3.580   1.850
 4399TIP3    H113161   0.643   3.516   1.795
 4399TIP3    H213162   0.530   3.528   1.895
 4400TIP3   OH213163   5.969   2.325   4.126
 4400TIP3    H113164   6.059   2.295   4.113
 4400TIP3    H213165   5.946   2.297   4.215
 4401TIP3   OH213166   2.150   3.945   0.255
 4401TIP3    H113167   2.163   4.021   0.313
 4401TIP3    H213168   2.126   3.874   0.314
 4402TIP3   OH213169   0.387   1.000   5.304
 4402TIP3    H113170   0.327   1.074   5.296
 4402TIP3    H213171   0.473   1.036   5.285
 4403TIP3   OH213172   5.184   2.571   1.844
 4403TIP3    H113173   5.116   2.602   1.904
 4403TIP3    H213174   5.153   2.487   1.812
 4404TIP3   OH213175   1.056   1.254   3.278
 4404TIP3    H113176   1.103   1.302   3.346
 4404TIP3    H213177   0.968   1.291   3.278
 4405TIP3   OH213178   0.289   5.973   2.340
 4405TIP3    H113179   0.238   5.898   2.370
 4405TIP3    H213180   0.338   5.939   2.265
 4406TIP3   OH213181   3.862   5.844   0.387
 4406TIP3    H113182   3.892   5.935   0.386
 4406TIP3    H213183   3.887   5.812   0.474
 4407TIP3   OH213184   0.054   4.726   0.492
 4407TIP3    H113185   0.088   4.654   0.544
 4407TIP3    H213186  -0.029   4.748   0.533
 4408TIP3   OH213187   0.409   2.128   1.617
 4408TIP3    H113188   0.382   2.219   1.622
 4408TIP3    H213189   0.328   2.078   1.624
 4409TIP3   OH213190   6.872   2.302   5.422
 4409TIP3    H113191   6.847   2.216   5.390
 4409TIP3    H213192   6.874   2.357   5.343
 4410TIP3   OH213193   5.811   4.451   3.855
 4410TIP3    H113194   5.743   4.393   3.890
 4410TIP3    H213195   5.882   4.447   3.919
 4411TIP3   OH213196   1.065   6.646   0.777
 4411TIP3    H113197   1.027   6.576   0.725
 4411TIP3    H213198   1.049   6.725   0.727
 4412TIP3   OH213199   4.768   1.068   0.376
 4412TIP3    H113200   4.811   1.017   0.445
 4412TIP3    H213201   4.751   1.004   0.306
 4413TIP3   OH213202   6.728   2.456   2.059
 4413TIP3    H113203   6.754   2.430   2.147
 4413TIP3    H213204   6.786   2.405   2.002
 4414TIP3   OH213205   5.485   4.875   4.114
 4414TIP3    H113206   5.435   4.862   4.033
 4414TIP3    H213207   5.520   4.788   4.134
 4415TIP3   OH213208   3.683   0.912   2.028
 4415TIP3    H113209   3.604   0.887   2.076
 4415TIP3    H213210   3.665   1.001   1.996
 4416TIP3   OH213211   0.511   3.160   0.812
 4416TIP3    H113212   0.584   3.173   0.752
 4416TIP3    H213213   0.442   3.120   0.758
 4417TIP3   OH213214   3.931   1.092   4.014
 4417TIP3    H113215   3.855   1.102   4.071
 4417TIP3    H213216   3.894   1.069   3.928
 4418TIP3   OH213217   3.025   3.658   3.180
 4418TIP3    H113218   3.013   3.746   3.145
 4418TIP3    H213219   3.002   3.665   3.273
 4419TIP3   OH213220   2.733   4.417   0.915
 4419TIP3    H113221   2.767   4.374   0.994
 4419TIP3    H213222   2.775   4.371   0.843
 4420TIP3   OH213223   3.445   3.966   1.652
 4420TIP3    H113224   3.451   3.989   1.744
 4420TIP3    H213225   3.521   3.910   1.636
 4421TIP3   OH213226   3.077   4.013   1.916
 4421TIP3    H113227   3.132   4.082   1.952
 4421TIP3    H213228   3.085   4.024   1.821
 4422TIP3   OH213229   5.841   3.954   3.510
 4422TIP3    H113230   5.838   3.997   3.595
 4422TIP3    H213231   5.845   4.026   3.447
 4423TIP3   OH213232   3.994   5.085   2.180
 4423TIP3    H113233   3.950   5.097   2.264
 4423TIP3    H213234   3.926   5.096   2.114
 4424TIP3   OH213235   4.612   1.486   0.629
 4424TIP3    H113236   4.625   1.396   0.659
 4424TIP3    H213237   4.626   1.481   0.534
 4425TIP3   OH213238   5.912   3.160   3.245
 4425TIP3    H113239   5.951   3.240   3.210
 4425TIP3    H213240   5.821   3.183   3.263
 4426TIP3   OH213241   0.107   1.671   2.214
 4426TIP3    H113242   0.154   1.745   2.251
 4426TIP3    H213243   0.031   1.659   2.271
 4427TIP3   OH213244   2.056   5.335   2.686
 4427TIP3    H113245   2.067   5.255   2.635
 4427TIP3    H213246   1.991   5.386   2.637
 4428TIP3   OH213247   4.673   4.387   4.839
 4428TIP3    H113248   4.752   4.403   4.787
 4428TIP3    H213249   4.638   4.474   4.857
 4429TIP3   OH213250   4.657   4.480   2.422
 4429TIP3    H113251   4.630   4.545   2.487
 4429TIP3    H213252   4.737   4.516   2.383
 4430TIP3   OH213253   0.947   5.558   4.810
 4430TIP3    H113254   0.924   5.552   4.717
 4430TIP3    H213255   1.021   5.498   4.820
 4431TIP3   OH213256   2.894   2.570   0.208
 4431TIP3    H113257   2.804   2.537   0.207
 4431TIP3    H213258   2.885   2.664   0.198
 4432TIP3   OH213259   3.245   4.054   4.391
 4432TIP3    H113260   3.193   3.997   4.448
 4432TIP3    H213261   3.197   4.136   4.390
 4433TIP3   OH213262   4.149   1.902   0.328
 4433TIP3    H113263   4.182   1.846   0.258
 4433TIP3    H213264   4.173   1.856   0.409
 4434TIP3   OH213265   4.956   5.370   3.183
 4434TIP3    H113266   4.866   5.389   3.209
 4434TIP3    H213267   4.947   5.316   3.104
 4435TIP3   OH213268   1.953   0.812   3.199
 4435TIP3    H113269   1.955   0.903   3.169
 4435TIP3    H213270   1.876   0.808   3.256
 4436TIP3   OH213271   4.986   0.498   5.756
 4436TIP3    H113272   4.994   0.406   5.784
 4436TIP3    H213273   4.893   0.509   5.737
 4437TIP3   OH213274   3.814   5.846   5.096
 4437TIP3    H113275   3.754   5.840   5.170
 4437TIP3    H213276   3.774   5.912   5.039
 4438TIP3   OH213277   6.974   4.394   0.423
 4438TIP3    H113278   6.897   4.353   0.463
 4438TIP3    H213279   6.940   4.477   0.388
 4439TIP3   OH213280   5.223   0.647   3.361
 4439TIP3    H113281   5.221   0.712   3.290
 4439TIP3    H213282   5.142   0.598   3.351
 4440TIP3   OH213283   3.377   5.999   1.557
 4440TIP3    H113284   3.444   5.961   1.500
 4440TIP3    H213285   3.391   6.094   1.551
 4441TIP3   OH213286   0.672   4.997   4.674
 4441TIP3    H113287   0.689   5.015   4.582
 4441TIP3    H213288   0.705   4.909   4.688
 4442TIP3   OH213289   1.122   3.760   3.186
 4442TIP3    H113290   1.121   3.721   3.099
 4442TIP3    H213291   1.137   3.687   3.245
 4443TIP3   OH213292   6.239   5.176   4.296
 4443TIP3    H113293   6.332   5.157   4.289
 4443TIP3    H213294   6.197   5.117   4.234
 4444TIP3   OH213295   5.619   6.506   3.778
 4444TIP3    H113296   5.564   6.448   3.725
 4444TIP3    H213297   5.633   6.583   3.723
 4445TIP3   OH213298   1.094   6.645   3.074
 4445TIP3    H113299   1.096   6.713   3.141
 4445TIP3    H213300   1.146   6.573   3.111
 4446TIP3   OH213301   3.544   0.268   2.596
 4446TIP3    H113302   3.487   0.273   2.673
 4446TIP3    H213303   3.602   0.344   2.604
 4447TIP3   OH213304   6.627   5.422   3.820
 4447TIP3    H113305   6.576   5.398   3.897
 4447TIP3    H213306   6.623   5.518   3.818
 4448TIP3   OH213307   2.416   3.958   2.837
 4448TIP3    H113308   2.385   4.049   2.839
 4448TIP3    H213309   2.400   3.930   2.747
 4449TIP3   OH213310   1.671   6.565   2.711
 4449TIP3    H113311   1.588   6.601   2.681
 4449TIP3    H213312   1.687   6.490   2.654
 4450TIP3   OH213313   0.845   3.909   0.382
 4450TIP3    H113314   0.926   3.921   0.431
 4450TIP3    H213315   0.820   3.997   0.355
 4451TIP3   OH213316   1.626   2.976   0.244
 4451TIP3    H113317   1.660   2.927   0.169
 4451TIP3    H213318   1.565   2.916   0.287
 4452TIP3   OH213319   5.864   3.613   4.872
 4452TIP3    H113320   5.939   3.653   4.828
 4452TIP3    H213321   5.900   3.577   4.953
 4453TIP3   OH213322   3.798   3.418   4.583
 4453TIP3    H113323   3.758   3.337   4.550
 4453TIP3    H213324   3.892   3.406   4.568
 4454TIP3   OH213325   0.150   0.140   4.593
 4454TIP3    H113326   0.182   0.050   4.591
 4454TIP3    H213327   0.110   0.153   4.507
 4455TIP3   OH213328   2.467   5.500   0.027
 4455TIP3    H113329   2.555   5.489   0.065
 4455TIP3    H213330   2.408   5.479   0.099
 4456TIP3   OH213331   5.211   2.651   5.388
 4456TIP3    H113332   5.150   2.621   5.321
 4456TIP3    H213333   5.184   2.741   5.406
 4457TIP3   OH213334   5.444   0.783   3.824
 4457TIP3    H113335   5.423   0.693   3.847
 4457TIP3    H213336   5.364   0.832   3.842
 4458TIP3   OH213337   0.794   0.679   3.619
 4458TIP3    H113338   0.870   0.673   3.677
 4458TIP3    H213339   0.812   0.756   3.564
 4459TIP3   OH213340   6.443   0.437   5.352
 4459TIP3    H113341   6.518   0.495   5.341
 4459TIP3    H213342   6.480   0.349   5.352
 4460TIP3   OH213343   1.176   2.232   2.508
 4460TIP3    H113344   1.228   2.185   2.442
 4460TIP3    H213345   1.117   2.166   2.543
 4461TIP3   OH213346   0.458   3.564   5.627
 4461TIP3    H113347   0.482   3.595   5.715
 4461TIP3    H213348   0.467   3.469   5.632
 4462TIP3   OH213349   6.845   4.933   4.938
 4462TIP3    H113350   6.763   4.912   4.892
 4462TIP3    H213351   6.852   4.867   5.006
 4463TIP3   OH213352   4.528   5.174   5.137
 4463TIP3    H113353   4.486   5.247   5.090
 4463TIP3    H213354   4.503   5.188   5.229
 4464TIP3   OH213355   7.057   6.564   4.640
 4464TIP3    H113356   7.125   6.572   4.573
 4464TIP3    H213357   7.094   6.606   4.718
 4465TIP3   OH213358   0.303   4.666   0.097
 4465TIP3    H113359   0.270   4.751   0.069
 4465TIP3    H213360   0.298   4.668   0.192
 4466TIP3   OH213361   4.543   2.534   4.257
 4466TIP3    H113362   4.550   2.540   4.162
 4466TIP3    H213363   4.617   2.586   4.289
 4467TIP3   OH213364   5.752   5.448   1.049
 4467TIP3    H113365   5.761   5.423   1.140
 4467TIP3    H213366   5.701   5.377   1.009
 4468TIP3   OH213367   1.526   4.324   4.344
 4468TIP3    H113368   1.476   4.402   4.372
 4468TIP3    H213369   1.558   4.286   4.425
 4469TIP3   OH213370   2.100   0.493   5.780
 4469TIP3    H113371   2.039   0.468   5.850
 4469TIP3    H213372   2.050   0.553   5.725
 4470TIP3   OH213373   3.365   1.235   3.373
 4470TIP3    H113374   3.330   1.223   3.461
 4470TIP3    H213375   3.460   1.224   3.382
 4471TIP3   OH213376   0.204   5.837   4.099
 4471TIP3    H113377   0.269   5.874   4.039
 4471TIP3    H213378   0.256   5.801   4.171
 4472TIP3   OH213379   4.519   2.695   4.941
 4472TIP3    H113380   4.456   2.698   5.013
 4472TIP3    H213381   4.509   2.608   4.903
 4473TIP3   OH213382   3.194   2.322   5.399
 4473TIP3    H113383   3.100   2.302   5.397
 4473TIP3    H213384   3.231   2.274   5.326
 4474TIP3   OH213385   2.429   4.305   2.345
 4474TIP3    H113386   2.477   4.369   2.292
 4474TIP3    H213387   2.494   4.272   2.407
 4475TIP3   OH213388   5.423   0.928   4.706
 4475TIP3    H113389   5.356   0.996   4.711
 4475TIP3    H213390   5.428   0.893   4.795
 4476TIP3   OH213391   4.777   4.334   4.094
 4476TIP3    H113392   4.793   4.249   4.133
 4476TIP3    H213393   4.681   4.342   4.093
 4477TIP3   OH213394   3.899   0.510   1.564
 4477TIP3    H113395   3.871   0.475   1.649
 4477TIP3    H213396   3.983   0.469   1.547
 4478TIP3   OH213397   3.422   1.437   4.855
 4478TIP3    H113398   3.397   1.527   4.835
 4478TIP3    H213399   3.426   1.434   4.951
 4479TIP3   OH213400   4.277   1.979   2.449
 4479TIP3    H113401   4.241   1.934   2.373
 4479TIP3    H213402   4.328   1.912   2.495
 4480TIP3   OH213403   4.225   3.766   0.743
 4480TIP3    H113404   4.149   3.819   0.767
 4480TIP3    H213405   4.233   3.703   0.815
 4481TIP3   OH213406   6.271   2.938   5.268
 4481TIP3    H113407   6.328   2.905   5.199
 4481TIP3    H213408   6.253   3.029   5.243
 4482TIP3   OH213409   3.709   2.915   0.542
 4482TIP3    H113410   3.773   2.966   0.493
 4482TIP3    H213411   3.738   2.920   0.633
 4483TIP3   OH213412   2.348   5.094   0.733
 4483TIP3    H113413   2.314   5.048   0.656
 4483TIP3    H213414   2.305   5.179   0.732
 4484TIP3   OH213415   6.187   5.470   0.256
 4484TIP3    H113416   6.227   5.553   0.232
 4484TIP3    H213417   6.097   5.492   0.279
 4485TIP3   OH213418   4.669   4.484   1.683
 4485TIP3    H113419   4.747   4.431   1.703
 4485TIP3    H213420   4.600   4.420   1.666
 4486TIP3   OH213421   7.022   0.617   1.174
 4486TIP3    H113422   6.975   0.588   1.096
 4486TIP3    H213423   6.958   0.667   1.224
 4487TIP3   OH213424   1.547   4.440   0.997
 4487TIP3    H113425   1.621   4.428   1.056
 4487TIP3    H213426   1.530   4.534   0.998
 4488TIP3   OH213427   4.639   4.712   1.414
 4488TIP3    H113428   4.585   4.723   1.492
 4488TIP3    H213429   4.641   4.798   1.373
 4489TIP3   OH213430   4.251   3.291   4.908
 4489TIP3    H113431   4.206   3.246   4.980
 4489TIP3    H213432   4.183   3.341   4.864
 4490TIP3   OH213433   1.469   2.027   5.206
 4490TIP3    H113434   1.508   2.101   5.159
 4490TIP3    H213435   1.412   2.068   5.272
 4491TIP3   OH213436   1.199   3.690   1.585
 4491TIP3    H113437   1.210   3.691   1.490
 4491TIP3    H213438   1.110   3.657   1.598
 4492TIP3   OH213439   2.089   5.385   1.814
 4492TIP3    H113440   2.101   5.464   1.867
 4492TIP3    H213441   1.994   5.374   1.810
 4493TIP3   OH213442   4.866   3.697   2.882
 4493TIP3    H113443   4.833   3.740   2.961
 4493TIP3    H213444   4.960   3.690   2.897
 4494TIP3   OH213445   5.918   6.711   0.176
 4494TIP3    H113446   5.911   6.679   0.266
 4494TIP3    H213447   6.007   6.687   0.149
 4495TIP3   OH213448   1.864   0.451   1.767
 4495TIP3    H113449   1.797   0.485   1.825
 4495TIP3    H213450   1.866   0.513   1.694
 4496TIP3   OH213451   4.545   6.049   3.250
 4496TIP3    H113452   4.531   6.122   3.191
 4496TIP3    H213453   4.573   5.977   3.193
 4497TIP3   OH213454   5.613   4.944   1.616
 4497TIP3    H113455   5.675   4.935   1.544
 4497TIP3    H213456   5.549   4.874   1.602
 4498TIP3   OH213457   1.488   6.456   3.941
 4498TIP3    H113458   1.440   6.378   3.914
 4498TIP3    H213459   1.434   6.529   3.911
 4499TIP3   OH213460   3.403   4.311   3.941
 4499TIP3    H113461   3.472   4.295   3.877
 4499TIP3    H213462   3.429   4.392   3.985
 4500TIP3   OH213463   4.237   0.052   3.964
 4500TIP3    H113464   4.155   0.095   3.990
 4500TIP3    H213465   4.211  -0.037   3.942
 4501TIP3   OH213466   1.100   1.511   5.146
 4501TIP3    H113467   1.099   1.426   5.101
 4501TIP3    H213468   1.009   1.527   5.169
 4502TIP3   OH213469   2.057   5.146   3.543
 4502TIP3    H113470   2.079   5.085   3.472
 4502TIP3    H213471   2.133   5.145   3.600
 4503TIP3   OH213472   7.071   1.225   2.597
 4503TIP3    H113473   7.140   1.271   2.646
 4503TIP3    H213474   7.111   1.142   2.572
 4504TIP3   OH213475   3.262   3.697   0.525
 4504TIP3    H113476   3.192   3.633   0.515
 4504TIP3    H213477   3.219   3.782   0.515
 4505TIP3   OH213478   6.206   1.012   0.123
 4505TIP3    H113479   6.231   1.061   0.045
 4505TIP3    H213480   6.110   1.004   0.117
 4506TIP3   OH213481   2.099   2.964   4.571
 4506TIP3    H113482   2.006   2.976   4.552
 4506TIP3    H213483   2.116   2.872   4.552
 4507TIP3   OH213484   6.496   6.313   2.851
 4507TIP3    H113485   6.547   6.258   2.911
 4507TIP3    H213486   6.448   6.251   2.796
 4508TIP3   OH213487   4.214   0.363   2.398
 4508TIP3    H113488   4.211   0.450   2.439
 4508TIP3    H213489   4.184   0.378   2.308
 4509TIP3   OH213490   5.678   3.466   5.810
 4509TIP3    H113491   5.629   3.517   5.875
 4509TIP3    H213492   5.711   3.390   5.858
 4510TIP3   OH213493   7.190   3.275   1.301
 4510TIP3    H113494   7.206   3.332   1.225
 4510TIP3    H213495   7.170   3.190   1.263
 4511TIP3   OH213496   5.809   0.328   2.349
 4511TIP3    H113497   5.744   0.389   2.313
 4511TIP3    H213498   5.872   0.316   2.278
 4512TIP3   OH213499   1.438   5.667   0.579
 4512TIP3    H113500   1.458   5.574   0.569
 4512TIP3    H213501   1.479   5.693   0.661
 4513TIP3   OH213502   5.668   1.515   2.226
 4513TIP3    H113503   5.654   1.497   2.133
 4513TIP3    H213504   5.704   1.604   2.227
 4514TIP3   OH213505   7.069   3.121   3.761
 4514TIP3    H113506   7.080   3.092   3.852
 4514TIP3    H213507   6.991   3.075   3.731
 4515TIP3   OH213508   3.822   4.129   2.962
 4515TIP3    H113509   3.742   4.146   2.912
 4515TIP3    H213510   3.865   4.214   2.969
 4516TIP3   OH213511   3.581   2.370   4.945
 4516TIP3    H113512   3.584   2.363   4.850
 4516TIP3    H213513   3.565   2.281   4.975
 4517TIP3   OH213514   1.106   5.295   4.258
 4517TIP3    H113515   1.117   5.335   4.344
 4517TIP3    H213516   1.039   5.228   4.272
 4518TIP3   OH213517   4.306   6.689   0.759
 4518TIP3    H113518   4.274   6.751   0.694
 4518TIP3    H213519   4.280   6.603   0.725
 4519TIP3   OH213520   1.912   3.794   4.161
 4519TIP3    H113521   1.919   3.698   4.164
 4519TIP3    H213522   1.853   3.815   4.234
 4520TIP3   OH213523   2.418   0.466   1.435
 4520TIP3    H113524   2.506   0.502   1.438
 4520TIP3    H213525   2.363   0.540   1.407
 4521TIP3   OH213526   6.406   1.444   2.200
 4521TIP3    H113527   6.440   1.473   2.116
 4521TIP3    H213528   6.464   1.372   2.226
 4522TIP3   OH213529   3.034   3.867   4.463
 4522TIP3    H113530   3.039   3.885   4.369
 4522TIP3    H213531   2.972   3.794   4.470
 4523TIP3   OH213532   4.042   5.967   5.174
 4523TIP3    H113533   3.957   5.937   5.144
 4523TIP3    H213534   4.104   5.903   5.140
 4524TIP3   OH213535   6.248   1.043   2.309
 4524TIP3    H113536   6.318   0.978   2.306
 4524TIP3    H213537   6.177   1.005   2.257
 4525TIP3   OH213538   2.539   3.488   3.524
 4525TIP3    H113539   2.631   3.503   3.502
 4525TIP3    H213540   2.515   3.410   3.474
 4526TIP3   OH213541   4.835   4.585   4.209
 4526TIP3    H113542   4.784   4.509   4.236
 4526TIP3    H213543   4.772   4.658   4.211
 4527TIP3   OH213544   3.218   4.670   3.994
 4527TIP3    H113545   3.170   4.588   4.006
 4527TIP3    H213546   3.230   4.678   3.900
 4528TIP3   OH213547   4.798   4.709   3.455
 4528TIP3    H113548   4.706   4.711   3.480
 4528TIP3    H213549   4.845   4.714   3.539
 4529TIP3   OH213550   4.417   1.473   1.556
 4529TIP3    H113551   4.403   1.394   1.503
 4529TIP3    H213552   4.340   1.478   1.612
 4530TIP3   OH213553   6.050   3.720   3.881
 4530TIP3    H113554   6.103   3.644   3.907
 4530TIP3    H213555   6.108   3.770   3.824
 4531TIP3   OH213556   4.440   3.053   2.829
 4531TIP3    H113557   4.446   3.129   2.887
 4531TIP3    H213558   4.509   2.995   2.861
 4532TIP3   OH213559   0.676   3.522   4.040
 4532TIP3    H113560   0.662   3.614   4.061
 4532TIP3    H213561   0.611   3.502   3.973
 4533TIP3   OH213562   3.060   1.300   0.535
 4533TIP3    H113563   2.995   1.246   0.579
 4533TIP3    H213564   3.042   1.389   0.565
 4534TIP3   OH213565   2.369   1.593   3.013
 4534TIP3    H113566   2.313   1.548   3.076
 4534TIP3    H213567   2.452   1.545   3.016
 4535TIP3   OH213568   3.034   5.740   1.834
 4535TIP3    H113569   2.940   5.736   1.821
 4535TIP3    H213570   3.071   5.698   1.756
 4536TIP3   OH213571   2.212   5.177   3.189
 4536TIP3    H113572   2.188   5.269   3.183
 4536TIP3    H213573   2.232   5.152   3.099
 4537TIP3   OH213574   3.813   1.975   5.479
 4537TIP3    H113575   3.860   1.913   5.535
 4537TIP3    H213576   3.873   2.049   5.469
 4538TIP3   OH213577   4.251   5.628   2.387
 4538TIP3    H113578   4.165   5.591   2.367
 4538TIP3    H213579   4.254   5.631   2.483
 4539TIP3   OH213580   5.232   4.939   4.249
 4539TIP3    H113581   5.228   5.032   4.270
 4539TIP3    H213582   5.316   4.928   4.205
 4540TIP3   OH213583   2.728   1.891   4.947
 4540TIP3    H113584   2.638   1.902   4.918
 4540TIP3    H213585   2.756   1.979   4.973
 4541TIP3   OH213586   0.981   3.612   0.354
 4541TIP3    H113587   0.888   3.634   0.342
 4541TIP3    H213588   1.002   3.556   0.279
 4542TIP3   OH213589   4.956   3.274   5.704
 4542TIP3    H113590   4.976   3.314   5.788
 4542TIP3    H213591   4.971   3.343   5.639
 4543TIP3   OH213592   2.849   1.359   0.238
 4543TIP3    H113593   2.792   1.413   0.293
 4543TIP3    H213594   2.790   1.321   0.173
 4544TIP3   OH213595   1.772   3.587   3.377
 4544TIP3    H113596   1.866   3.568   3.376
 4544TIP3    H213597   1.745   3.569   3.468
 4545TIP3   OH213598   2.587   3.786   0.116
 4545TIP3    H113599   2.600   3.880   0.105
 4545TIP3    H213600   2.607   3.749   0.030
 4546TIP3   OH213601   1.537   3.113   4.642
 4546TIP3    H113602   1.513   3.130   4.551
 4546TIP3    H213603   1.517   3.020   4.655
 4547TIP3   OH213604   1.406   3.220   3.681
 4547TIP3    H113605   1.408   3.294   3.742
 4547TIP3    H213606   1.358   3.253   3.605
 4548TIP3   OH213607   2.706   2.069   5.362
 4548TIP3    H113608   2.713   2.125   5.285
 4548TIP3    H213609   2.660   1.991   5.331
 4549TIP3   OH213610   2.084   4.908   1.146
 4549TIP3    H113611   2.136   4.958   1.083
 4549TIP3    H213612   2.078   4.966   1.222
 4550TIP3   OH213613   0.606   4.319   2.609
 4550TIP3    H113614   0.523   4.334   2.563
 4550TIP3    H213615   0.648   4.405   2.611
 4551TIP3   OH213616   3.125   6.269   1.828
 4551TIP3    H113617   3.147   6.362   1.822
 4551TIP3    H213618   3.112   6.254   1.922
 4552TIP3   OH213619   5.733   4.197   1.438
 4552TIP3    H113620   5.746   4.141   1.361
 4552TIP3    H213621   5.658   4.252   1.415
 4553TIP3   OH213622   4.220   6.089   3.055
 4553TIP3    H113623   4.157   6.161   3.055
 4553TIP3    H213624   4.225   6.061   3.146
 4554TIP3   OH213625   4.256   4.956   4.596
 4554TIP3    H113626   4.343   4.960   4.637
 4554TIP3    H213627   4.273   4.974   4.504
 4555TIP3   OH213628   6.385   6.647   3.467
 4555TIP3    H113629   6.371   6.742   3.460
 4555TIP3    H213630   6.477   6.635   3.447
 4556TIP3   OH213631   5.121   1.782   2.685
 4556TIP3    H113632   5.094   1.786   2.593
 4556TIP3    H213633   5.039   1.790   2.734
 4557TIP3   OH213634   4.941   2.727   2.021
 4557TIP3    H113635   4.870   2.782   2.054
 4557TIP3    H213636   4.913   2.637   2.041
 4558TIP3   OH213637   3.660   3.603   5.650
 4558TIP3    H113638   3.579   3.554   5.662
 4558TIP3    H213639   3.715   3.546   5.597
 4559TIP3   OH213640   4.662   3.953   0.836
 4559TIP3    H113641   4.676   4.011   0.761
 4559TIP3    H213642   4.667   4.012   0.912
 4560TIP3   OH213643   6.661   3.657   5.353
 4560TIP3    H113644   6.710   3.731   5.317
 4560TIP3    H213645   6.685   3.583   5.297
 4561TIP3   OH213646   6.288   6.170   0.108
 4561TIP3    H113647   6.242   6.095   0.070
 4561TIP3    H213648   6.289   6.153   0.202
 4562TIP3   OH213649   1.934   2.438   5.852
 4562TIP3    H113650   2.024   2.447   5.823
 4562TIP3    H213651   1.911   2.347   5.834
 4563TIP3   OH213652   7.136   3.685   2.558
 4563TIP3    H113653   7.225   3.681   2.523
 4563TIP3    H213654   7.130   3.770   2.600
 4564TIP3   OH213655   0.183   0.297   1.363
 4564TIP3    H113656   0.251   0.320   1.299
 4564TIP3    H213657   0.102   0.333   1.327
 4565TIP3   OH213658   6.887   0.543   0.457
 4565TIP3    H113659   6.832   0.622   0.451
 4565TIP3    H213660   6.844   0.480   0.400
 4566TIP3   OH213661   0.347   0.496   0.506
 4566TIP3    H113662   0.392   0.579   0.489
 4566TIP3    H213663   0.402   0.430   0.466
 4567TIP3   OH213664   5.923   0.191   0.998
 4567TIP3    H113665   5.929   0.287   1.006
 4567TIP3    H213666   5.845   0.177   0.944
 4568TIP3   OH213667   3.487   4.511   4.146
 4568TIP3    H113668   3.548   4.505   4.072
 4568TIP3    H213669   3.541   4.541   4.219
 4569TIP3   OH213670   5.683   5.552   2.846
 4569TIP3    H113671   5.664   5.464   2.876
 4569TIP3    H213672   5.677   5.547   2.750
 4570TIP3   OH213673   0.814   2.102   3.680
 4570TIP3    H113674   0.785   2.078   3.592
 4570TIP3    H213675   0.735   2.129   3.726
 4571TIP3   OH213676   3.867   1.671   5.417
 4571TIP3    H113677   3.816   1.746   5.448
 4571TIP3    H213678   3.913   1.703   5.340
 4572TIP3   OH213679   6.007   1.957   3.581
 4572TIP3    H113680   5.967   1.895   3.641
 4572TIP3    H213681   6.068   2.007   3.635
 4573TIP3   OH213682   3.060   4.279   4.215
 4573TIP3    H113683   2.988   4.320   4.168
 4573TIP3    H213684   3.120   4.351   4.235
 4574TIP3   OH213685   4.886   5.186   2.968
 4574TIP3    H113686   4.833   5.107   2.966
 4574TIP3    H213687   4.952   5.173   2.900
 4575TIP3   OH213688   5.741   1.653   0.297
 4575TIP3    H113689   5.788   1.735   0.313
 4575TIP3    H213690   5.650   1.680   0.288
 4576TIP3   OH213691   6.492   0.457   5.691
 4576TIP3    H113692   6.407   0.432   5.655
 4576TIP3    H213693   6.486   0.435   5.784
 4577TIP3   OH213694   1.378   3.184   0.402
 4577TIP3    H113695   1.372   3.173   0.497
 4577TIP3    H213696   1.360   3.277   0.387
 4578TIP3   OH213697   1.866   4.162   0.458
 4578TIP3    H113698   1.813   4.211   0.520
 4578TIP3    H213699   1.888   4.081   0.504
 4579TIP3   OH213700   1.501   2.302   3.126
 4579TIP3    H113701   1.585   2.346   3.112
 4579TIP3    H213702   1.438   2.353   3.076
 4580TIP3   OH213703   7.168   4.705   4.493
 4580TIP3    H113704   7.188   4.689   4.585
 4580TIP3    H213705   7.235   4.657   4.445
 4581TIP3   OH213706   2.585   0.514   1.750
 4581TIP3    H113707   2.523   0.562   1.805
 4581TIP3    H213708   2.578   0.423   1.781
 4582TIP3   OH213709   3.985   1.798   2.575
 4582TIP3    H113710   3.963   1.774   2.665
 4582TIP3    H213711   4.068   1.754   2.558
 4583TIP3   OH213712   1.603   1.834   2.296
 4583TIP3    H113713   1.693   1.820   2.323
 4583TIP3    H213714   1.568   1.896   2.360
 4584TIP3   OH213715   5.300   3.718   2.763
 4584TIP3    H113716   5.294   3.699   2.670
 4584TIP3    H213717   5.322   3.634   2.803
 4585TIP3   OH213718   0.361   6.244   4.982
 4585TIP3    H113719   0.419   6.319   4.993
 4585TIP3    H213720   0.295   6.255   5.052
 4586TIP3   OH213721   4.497   5.666   4.344
 4586TIP3    H113722   4.413   5.688   4.304
 4586TIP3    H213723   4.520   5.581   4.305
 4587TIP3   OH213724   6.734   4.277   1.868
 4587TIP3    H113725   6.755   4.196   1.914
 4587TIP3    H213726   6.708   4.249   1.781
 4588TIP3   OH213727   2.230   4.885   4.135
 4588TIP3    H113728   2.304   4.914   4.081
 4588TIP3    H213729   2.156   4.881   4.075
 4589TIP3   OH213730   1.778   3.247   1.748
 4589TIP3    H113731   1.707   3.284   1.696
 4589TIP3    H213732   1.762   3.153   1.746
 4590TIP3   OH213733   4.092   5.176   0.081
 4590TIP3    H113734   4.048   5.247   0.035
 4590TIP3    H213735   4.174   5.214   0.111
 4591TIP3   OH213736   4.802   2.561   2.206
 4591TIP3    H113737   4.712   2.564   2.173
 4591TIP3    H213738   4.804   2.484   2.263
 4592TIP3   OH213739   3.365   6.661   5.620
 4592TIP3    H113740   3.276   6.667   5.654
 4592TIP3    H213741   3.392   6.571   5.636
 4593TIP3   OH213742   4.499   2.476   1.193
 4593TIP3    H113743   4.539   2.436   1.116
 4593TIP3    H213744   4.464   2.559   1.161
 4594TIP3   OH213745   1.928   2.754   3.337
 4594TIP3    H113746   1.963   2.756   3.426
 4594TIP3    H213747   1.833   2.751   3.348
 4595TIP3   OH213748   0.888   2.489   0.337
 4595TIP3    H113749   0.854   2.417   0.283
 4595TIP3    H213750   0.828   2.494   0.411
 4596TIP3   OH213751   4.411   4.009   3.074
 4596TIP3    H113752   4.434   3.947   3.005
 4596TIP3    H213753   4.417   4.095   3.032
 4597TIP3   OH213754   2.915   0.471   5.565
 4597TIP3    H113755   2.926   0.520   5.484
 4597TIP3    H213756   2.839   0.511   5.607
 4598TIP3   OH213757   4.507   3.291   5.703
 4598TIP3    H113758   4.470   3.365   5.655
 4598TIP3    H213759   4.558   3.243   5.638
 4599TIP3   OH213760   3.973   4.250   1.063
 4599TIP3    H113761   3.910   4.228   0.994
 4599TIP3    H213762   4.028   4.171   1.070
 4600TIP3   OH213763   4.549   4.704   4.441
 4600TIP3    H113764   4.544   4.609   4.436
 4600TIP3    H213765   4.548   4.724   4.535
 4601TIP3   OH213766   4.947   3.641   2.346
 4601TIP3    H113767   4.876   3.577   2.338
 4601TIP3    H213768   4.922   3.696   2.420
 4602TIP3   OH213769   5.469   5.007   5.449
 4602TIP3    H113770   5.457   4.979   5.540
 4602TIP3    H213771   5.538   4.951   5.415
 4603TIP3   OH213772   0.145   0.181   1.087
 4603TIP3    H113773   0.187   0.101   1.057
 4603TIP3    H213774   0.204   0.252   1.060
 4604TIP3   OH213775   3.185   5.109   1.310
 4604TIP3    H113776   3.169   5.194   1.268
 4604TIP3    H213777   3.220   5.054   1.241
 4605TIP3   OH213778   2.161   1.908   5.597
 4605TIP3    H113779   2.243   1.862   5.611
 4605TIP3    H213780   2.119   1.861   5.524
 4606TIP3   OH213781   3.793   0.704   2.933
 4606TIP3    H113782   3.752   0.758   2.866
 4606TIP3    H213783   3.879   0.744   2.948
 4607TIP3   OH213784   3.437   4.026   1.332
 4607TIP3    H113785   3.429   4.008   1.426
 4607TIP3    H213786   3.512   4.085   1.325
 4608TIP3   OH213787   6.529   3.218   0.723
 4608TIP3    H113788   6.608   3.238   0.674
 4608TIP3    H213789   6.533   3.276   0.800
 4609TIP3   OH213790   3.516   5.076   5.858
 4609TIP3    H113791   3.550   5.067   5.769
 4609TIP3    H213792   3.586   5.041   5.913
 4610TIP3   OH213793   1.638   4.267   0.546
 4610TIP3    H113794   1.579   4.289   0.619
 4610TIP3    H213795   1.652   4.350   0.501
 4611TIP3   OH213796   1.894   1.854   3.941
 4611TIP3    H113797   1.952   1.847   4.017
 4611TIP3    H213798   1.900   1.769   3.899
 4612TIP3   OH213799   0.081   5.321   1.230
 4612TIP3    H113800   0.171   5.328   1.263
 4612TIP3    H213801   0.088   5.348   1.138
 4613TIP3   OH213802   3.714   4.014   4.943
 4613TIP3    H113803   3.766   3.982   4.870
 4613TIP3    H213804   3.633   4.046   4.904
 4614TIP3   OH213805   0.957   3.542   4.164
 4614TIP3    H113806   0.951   3.609   4.232
 4614TIP3    H213807   0.866   3.521   4.143
 4615TIP3   OH213808   2.733   5.788   1.825
 4615TIP3    H113809   2.644   5.789   1.861
 4615TIP3    H213810   2.761   5.879   1.827
 4616TIP3   OH213811   6.280   4.643   2.075
 4616TIP3    H113812   6.303   4.569   2.131
 4616TIP3    H213813   6.360   4.661   2.026
 4617TIP3   OH213814   7.098   5.727   4.349
 4617TIP3    H113815   7.099   5.823   4.350
 4617TIP3    H213816   7.113   5.704   4.258
 4618TIP3   OH213817   1.573   0.005   3.933
 4618TIP3    H113818   1.581   0.101   3.933
 4618TIP3    H213819   1.601  -0.021   4.020
 4619TIP3   OH213820   5.821   0.568   5.307
 4619TIP3    H113821   5.809   0.571   5.402
 4619TIP3    H213822   5.833   0.476   5.286
 4620TIP3   OH213823   0.927   3.332   0.882
 4620TIP3    H113824   0.835   3.347   0.902
 4620TIP3    H213825   0.963   3.420   0.872
 4621TIP3   OH213826   3.670   4.265   1.032
 4621TIP3    H113827   3.691   4.188   0.979
 4621TIP3    H213828   3.574   4.263   1.041
 4622TIP3   OH213829   2.308   2.635   1.650
 4622TIP3    H113830   2.320   2.556   1.702
 4622TIP3    H213831   2.214   2.653   1.652
 4623TIP3   OH213832   0.426   5.438   2.574
 4623TIP3    H113833   0.373   5.379   2.520
 4623TIP3    H213834   0.512   5.397   2.578
 4624TIP3   OH213835   4.366   2.091   4.227
 4624TIP3    H113836   4.355   2.013   4.172
 4624TIP3    H213837   4.437   2.140   4.186
 4625TIP3   OH213838   2.052   6.362   4.148
 4625TIP3    H113839   2.015   6.313   4.074
 4625TIP3    H213840   1.980   6.418   4.177
 4626TIP3   OH213841   2.540   1.876   4.286
 4626TIP3    H113842   2.535   1.942   4.217
 4626TIP3    H213843   2.622   1.895   4.331
 4627TIP3   OH213844   4.370   6.623   3.691
 4627TIP3    H113845   4.456   6.627   3.731
 4627TIP3    H213846   4.315   6.677   3.748
 4628TIP3   OH213847   7.230   5.711   1.870
 4628TIP3    H113848   7.187   5.781   1.919
 4628TIP3    H213849   7.190   5.714   1.784
 4629TIP3   OH213850   4.686   0.117   1.256
 4629TIP3    H113851   4.618   0.133   1.322
 4629TIP3    H213852   4.644   0.058   1.193
 4630TIP3   OH213853   2.230   6.207   5.077
 4630TIP3    H113854   2.189   6.271   5.135
 4630TIP3    H213855   2.175   6.129   5.083
 4631TIP3   OH213856   6.657   5.333   4.766
 4631TIP3    H113857   6.584   5.317   4.826
 4631TIP3    H213858   6.688   5.246   4.742
 4632TIP3   OH213859   1.776   4.840   2.132
 4632TIP3    H113860   1.757   4.867   2.222
 4632TIP3    H213861   1.843   4.901   2.101
 4633TIP3   OH213862   0.133   0.028   2.356
 4633TIP3    H113863   0.227   0.036   2.376
 4633TIP3    H213864   0.130  -0.039   2.287
 4634TIP3   OH213865   4.544   0.983   3.737
 4634TIP3    H113866   4.517   0.892   3.730
 4634TIP3    H213867   4.639   0.981   3.724
 4635TIP3   OH213868   4.544   4.892   2.801
 4635TIP3    H113869   4.476   4.830   2.827
 4635TIP3    H213870   4.496   4.969   2.770
 4636TIP3   OH213871   1.461   2.232   3.386
 4636TIP3    H113872   1.484   2.262   3.298
 4636TIP3    H213873   1.428   2.143   3.373
 4637TIP3   OH213874   3.278   5.052   3.785
 4637TIP3    H113875   3.334   5.008   3.720
 4637TIP3    H213876   3.189   5.037   3.754
 4638TIP3   OH213877   1.492   5.453   2.397
 4638TIP3    H113878   1.401   5.429   2.414
 4638TIP3    H213879   1.517   5.505   2.474
 4639TIP3   OH213880   6.857   2.389   0.416
 4639TIP3    H113881   6.839   2.453   0.347
 4639TIP3    H213882   6.900   2.316   0.370
 4640TIP3   OH213883   2.633   3.840   0.955
 4640TIP3    H113884   2.568   3.778   0.923
 4640TIP3    H213885   2.624   3.916   0.898
 4641TIP3   OH213886   4.816   2.991   4.444
 4641TIP3    H113887   4.842   2.985   4.352
 4641TIP3    H213888   4.740   3.048   4.444
 4642TIP3   OH213889   5.837   2.437   0.776
 4642TIP3    H113890   5.743   2.449   0.788
 4642TIP3    H213891   5.876   2.513   0.819
 4643TIP3   OH213892   5.114   5.213   2.422
 4643TIP3    H113893   5.135   5.129   2.464
 4643TIP3    H213894   5.023   5.203   2.394
 4644TIP3   OH213895   3.276   2.992   5.908
 4644TIP3    H113896   3.271   2.943   5.826
 4644TIP3    H213897   3.327   3.070   5.887
 4645TIP3   OH213898   7.153   3.905   5.024
 4645TIP3    H113899   7.081   3.897   4.961
 4645TIP3    H213900   7.109   3.928   5.106
 4646TIP3   OH213901   6.650   1.623   2.274
 4646TIP3    H113902   6.576   1.683   2.287
 4646TIP3    H213903   6.636   1.588   2.186
 4647TIP3   OH213904   0.544   0.085   3.023
 4647TIP3    H113905   0.628   0.102   2.980
 4647TIP3    H213906   0.561   0.097   3.116
 4648TIP3   OH213907   6.872   3.160   3.054
 4648TIP3    H113908   6.790   3.166   3.103
 4648TIP3    H213909   6.849   3.191   2.966
 4649TIP3   OH213910   6.543   5.533   2.128
 4649TIP3    H113911   6.606   5.489   2.186
 4649TIP3    H213912   6.516   5.465   2.066
 4650TIP3   OH213913   0.442   0.738   0.415
 4650TIP3    H113914   0.508   0.764   0.351
 4650TIP3    H213915   0.469   0.782   0.496
 4651TIP3   OH213916   4.701   4.097   1.970
 4651TIP3    H113917   4.704   4.172   2.030
 4651TIP3    H213918   4.662   4.132   1.891
 4652TIP3   OH213919   6.619   6.328   3.977
 4652TIP3    H113920   6.688   6.263   3.985
 4652TIP3    H213921   6.640   6.376   3.897
 4653TIP3   OH213922   2.328   4.626   2.315
 4653TIP3    H113923   2.405   4.594   2.268
 4653TIP3    H213924   2.259   4.631   2.248
 4654TIP3   OH213925   5.990   0.392   1.235
 4654TIP3    H113926   5.979   0.409   1.329
 4654TIP3    H213927   5.985   0.297   1.227
 4655TIP3   OH213928   3.840   2.970   4.222
 4655TIP3    H113929   3.874   2.885   4.250
 4655TIP3    H213930   3.913   3.030   4.234
 4656TIP3   OH213931   3.105   6.586   5.791
 4656TIP3    H113932   3.117   6.492   5.782
 4656TIP3    H213933   3.114   6.602   5.885
 4657TIP3   OH213934   3.749   1.036   4.932
 4657TIP3    H113935   3.742   1.003   5.022
 4657TIP3    H213936   3.773   1.128   4.942
 4658TIP3   OH213937   1.459   4.012   4.383
 4658TIP3    H113938   1.459   4.043   4.293
 4658TIP3    H213939   1.548   4.029   4.414
 4659TIP3   OH213940   3.679   0.502   2.750
 4659TIP3    H113941   3.715   0.534   2.668
 4659TIP3    H213942   3.756   0.480   2.803
 4660TIP3   OH213943   6.970   4.646   1.654
 4660TIP3    H113944   6.912   4.709   1.612
 4660TIP3    H213945   6.911   4.588   1.702
 4661TIP3   OH213946   0.741   3.177   2.043
 4661TIP3    H113947   0.690   3.244   1.999
 4661TIP3    H213948   0.788   3.224   2.112
 4662TIP3   OH213949   4.960   0.531   1.538
 4662TIP3    H113950   4.881   0.485   1.567
 4662TIP3    H213951   4.930   0.588   1.468
 4663TIP3   OH213952   1.011   0.825   4.051
 4663TIP3    H113953   1.036   0.907   4.009
 4663TIP3    H213954   1.080   0.809   4.116
 4664TIP3   OH213955   1.809   1.777   5.615
 4664TIP3    H113956   1.777   1.863   5.587
 4664TIP3    H213957   1.872   1.752   5.547
 4665TIP3   OH213958   1.203   4.838   4.460
 4665TIP3    H113959   1.132   4.775   4.458
 4665TIP3    H213960   1.207   4.873   4.371
 4666TIP3   OH213961   4.138   5.709   2.061
 4666TIP3    H113962   4.116   5.700   2.154
 4666TIP3    H213963   4.232   5.728   2.060
 4667TIP3   OH213964   5.086   6.329   1.429
 4667TIP3    H113965   5.048   6.261   1.373
 4667TIP3    H213966   5.029   6.405   1.416
 4668TIP3   OH213967   3.737   3.512   2.159
 4668TIP3    H113968   3.760   3.421   2.139
 4668TIP3    H213969   3.745   3.519   2.254
 4669TIP3   OH213970   4.922   6.095   3.219
 4669TIP3    H113971   4.881   6.055   3.295
 4669TIP3    H213972   4.852   6.145   3.177
 4670TIP3   OH213973   0.110   1.267   0.071
 4670TIP3    H113974   0.028   1.237   0.032
 4670TIP3    H213975   0.087   1.291   0.161
 4671TIP3   OH213976   5.257   0.876   5.043
 4671TIP3    H113977   5.221   0.932   5.112
 4671TIP3    H213978   5.350   0.868   5.065
 4672TIP3   OH213979   6.904   1.455   3.179
 4672TIP3    H113980   6.948   1.378   3.216
 4672TIP3    H213981   6.864   1.498   3.255
 4673TIP3   OH213982   5.016   5.721   2.086
 4673TIP3    H113983   5.074   5.795   2.107
 4673TIP3    H213984   4.944   5.760   2.037
 4674TIP3   OH213985   5.473   3.811   1.380
 4674TIP3    H113986   5.519   3.805   1.464
 4674TIP3    H213987   5.538   3.845   1.319
 4675TIP3   OH213988   1.155   6.237   3.580
 4675TIP3    H113989   1.106   6.174   3.527
 4675TIP3    H213990   1.233   6.256   3.530
 4676TIP3   OH213991   6.901   0.242   1.531
 4676TIP3    H113992   6.924   0.282   1.447
 4676TIP3    H213993   6.914   0.148   1.517
 4677TIP3   OH213994   2.814   6.191   2.560
 4677TIP3    H113995   2.863   6.178   2.479
 4677TIP3    H213996   2.734   6.235   2.533
 4678TIP3   OH213997   3.445   2.413   0.242
 4678TIP3    H113998   3.389   2.369   0.306
 4678TIP3    H213999   3.400   2.399   0.158
 4679TIP3   OH214000   0.663   1.906   2.020
 4679TIP3    H114001   0.586   1.853   2.042
 4679TIP3    H214002   0.641   1.947   1.936
 4680TIP3   OH214003   4.493   3.918   1.385
 4680TIP3    H114004   4.470   3.884   1.471
 4680TIP3    H214005   4.544   3.848   1.344
 4681TIP3   OH214006   3.053   5.999   4.721
 4681TIP3    H114007   3.080   5.908   4.731
 4681TIP3    H214008   2.958   5.997   4.728
 4682TIP3   OH214009   6.501   2.206   3.432
 4682TIP3    H114010   6.422   2.155   3.416
 4682TIP3    H214011   6.572   2.143   3.423
 4683TIP3   OH214012   5.551   1.542   4.747
 4683TIP3    H114013   5.571   1.634   4.764
 4683TIP3    H214014   5.555   1.533   4.652
 4684TIP3   OH214015   2.114   2.282   3.429
 4684TIP3    H114016   2.039   2.341   3.416
 4684TIP3    H214017   2.176   2.333   3.479
 4685TIP3   OH214018   5.806   5.058   4.369
 4685TIP3    H114019   5.719   5.065   4.330
 4685TIP3    H214020   5.831   5.149   4.387
 4686TIP3   OH214021   0.097   3.789   5.503
 4686TIP3    H114022   0.191   3.797   5.516
 4686TIP3    H214023   0.088   3.752   5.415
 4687TIP3   OH214024  -0.001   1.201   0.923
 4687TIP3    H114025   0.089   1.233   0.932
 4687TIP3    H214026  -0.038   1.253   0.852
 4688TIP3   OH214027   6.008   0.047   0.677
 4688TIP3    H114028   6.056  -0.027   0.714
 4688TIP3    H214029   6.000   0.026   0.584
 4689TIP3   OH214030   0.168   3.561   2.418
 4689TIP3    H114031   0.201   3.482   2.376
 4689TIP3    H214032   0.209   3.633   2.370
 4690TIP3   OH214033   4.265   4.290   3.149
 4690TIP3    H114034   4.265   4.365   3.090
 4690TIP3    H214035   4.247   4.215   3.092
 4691TIP3   OH214036   5.101   3.368   3.275
 4691TIP3    H114037   5.055   3.451   3.287
 4691TIP3    H214038   5.052   3.322   3.206
 4692TIP3   OH214039   4.188   6.527   3.084
 4692TIP3    H114040   4.145   6.590   3.027
 4692TIP3    H214041   4.281   6.551   3.081
 4693TIP3   OH214042   1.963   5.962   1.121
 4693TIP3    H114043   2.011   5.893   1.076
 4693TIP3    H214044   1.871   5.946   1.099
 4694TIP3   OH214045   6.336   5.233   5.614
 4694TIP3    H114046   6.260   5.274   5.573
 4694TIP3    H214047   6.356   5.290   5.689
 4695TIP3   OH214048   1.619   2.844   4.357
 4695TIP3    H114049   1.581   2.767   4.399
 4695TIP3    H214050   1.549   2.909   4.358
 4696TIP3   OH214051   4.519   3.159   4.294
 4696TIP3    H114052   4.534   3.247   4.260
 4696TIP3    H214053   4.519   3.170   4.389
 4697TIP3   OH214054   3.588   4.508   2.710
 4697TIP3    H114055   3.614   4.532   2.798
 4697TIP3    H214056   3.569   4.414   2.714
 4698TIP3   OH214057   3.018   3.737   4.854
 4698TIP3    H114058   2.952   3.701   4.795
 4698TIP3    H214059   3.091   3.760   4.796
 4699TIP3   OH214060   1.120   0.782   1.198
 4699TIP3    H114061   1.033   0.781   1.239
 4699TIP3    H214062   1.136   0.692   1.172
 4700TIP3   OH214063   6.403   2.954   1.723
 4700TIP3    H114064   6.463   3.009   1.674
 4700TIP3    H214065   6.370   2.891   1.659
 4701TIP3   OH214066   3.839   5.235   1.738
 4701TIP3    H114067   3.888   5.252   1.819
 4701TIP3    H214068   3.831   5.320   1.697
 4702TIP3   OH214069   1.986   1.748   3.106
 4702TIP3    H114070   1.922   1.707   3.164
 4702TIP3    H214071   2.059   1.773   3.164
 4703TIP3   OH214072   2.415   4.436   2.892
 4703TIP3    H114073   2.353   4.509   2.900
 4703TIP3    H214074   2.466   4.457   2.814
 4704TIP3   OH214075   2.898   2.747   1.890
 4704TIP3    H114076   2.857   2.685   1.951
 4704TIP3    H214077   2.840   2.747   1.814
 4705TIP3   OH214078   2.197   4.977   3.368
 4705TIP3    H114079   2.252   4.901   3.348
 4705TIP3    H214080   2.211   5.037   3.295
 4706TIP3   OH214081   2.075   3.891   5.762
 4706TIP3    H114082   2.049   3.808   5.802
 4706TIP3    H214083   2.148   3.922   5.816
 4707TIP3   OH214084   1.082   6.364   2.831
 4707TIP3    H114085   1.026   6.371   2.908
 4707TIP3    H214086   1.155   6.310   2.860
 4708TIP3   OH214087   7.088   1.110   3.725
 4708TIP3    H114088   7.032   1.151   3.660
 4708TIP3    H214089   7.147   1.181   3.754
 4709TIP3   OH214090   1.391   1.002   0.092
 4709TIP3    H114091   1.373   1.085   0.136
 4709TIP3    H214092   1.310   0.953   0.098
 4710TIP3   OH214093   3.532   5.192   2.798
 4710TIP3    H114094   3.444   5.229   2.806
 4710TIP3    H214095   3.561   5.180   2.889
 4711TIP3   OH214096   4.593   5.198   3.965
 4711TIP3    H114097   4.643   5.240   4.035
 4711TIP3    H214098   4.586   5.266   3.897
 4712TIP3   OH214099   2.529   6.539   2.587
 4712TIP3    H114100   2.516   6.577   2.500
 4712TIP3    H214101   2.616   6.570   2.613
 4713TIP3   OH214102   0.425   0.846   1.655
 4713TIP3    H114103   0.407   0.808   1.569
 4713TIP3    H214104   0.407   0.775   1.717
 4714TIP3   OH214105   4.625   2.272   0.861
 4714TIP3    H114106   4.677   2.316   0.929
 4714TIP3    H214107   4.648   2.317   0.780
 4715TIP3   OH214108   1.364   3.788   1.754
 4715TIP3    H114109   1.344   3.790   1.848
 4715TIP3    H214110   1.294   3.736   1.715
 4716TIP3   OH214111   6.427   4.789   4.126
 4716TIP3    H114112   6.391   4.705   4.098
 4716TIP3    H214113   6.389   4.853   4.066
 4717TIP3   OH214114   4.305   5.183   2.708
 4717TIP3    H114115   4.338   5.204   2.621
 4717TIP3    H214116   4.210   5.188   2.700
 4718TIP3   OH214117   5.229   3.718   5.821
 4718TIP3    H114118   5.156   3.779   5.816
 4718TIP3    H214119   5.306   3.771   5.802
 4719TIP3   OH214120   6.060   6.736   3.911
 4719TIP3    H114121   6.056   6.756   4.005
 4719TIP3    H214122   5.981   6.686   3.893
 4720TIP3   OH214123   3.619   0.597   4.992
 4720TIP3    H114124   3.703   0.622   4.951
 4720TIP3    H214125   3.553   0.620   4.926
 4721TIP3   OH214126   5.232   2.814   1.605
 4721TIP3    H114127   5.274   2.747   1.658
 4721TIP3    H214128   5.286   2.822   1.527
 4722TIP3   OH214129   6.816   0.246   0.002
 4722TIP3    H114130   6.901   0.207   0.024
 4722TIP3    H214131   6.759   0.171  -0.014
 4723TIP3   OH214132   5.755   0.748   2.333
 4723TIP3    H114133   5.790   0.758   2.421
 4723TIP3    H214134   5.677   0.803   2.331
 4724TIP3   OH214135   5.146   5.653   0.157
 4724TIP3    H114136   5.110   5.661   0.246
 4724TIP3    H214137   5.069   5.654   0.100
 4725TIP3   OH214138   2.284   5.147   2.900
 4725TIP3    H114139   2.194   5.131   2.870
 4725TIP3    H214140   2.306   5.234   2.865
 4726TIP3   OH214141   2.100   3.436   4.529
 4726TIP3    H114142   2.183   3.416   4.487
 4726TIP3    H214143   2.041   3.367   4.500
 4727TIP3   OH214144   5.379   5.515   4.873
 4727TIP3    H114145   5.400   5.608   4.888
 4727TIP3    H214146   5.290   5.517   4.838
 4728TIP3   OH214147   6.847   0.866   1.298
 4728TIP3    H114148   6.901   0.846   1.375
 4728TIP3    H214149   6.868   0.957   1.278
 4729TIP3   OH214150   1.217   6.415   2.591
 4729TIP3    H114151   1.146   6.366   2.550
 4729TIP3    H214152   1.184   6.435   2.679
 4730TIP3   OH214153   4.127   2.254   1.115
 4730TIP3    H114154   4.114   2.183   1.178
 4730TIP3    H214155   4.093   2.220   1.032
 4731TIP3   OH214156   6.876   0.923   3.470
 4731TIP3    H114157   6.856   1.014   3.492
 4731TIP3    H214158   6.911   0.886   3.551
 4732TIP3   OH214159   1.936   4.361   5.271
 4732TIP3    H114160   1.863   4.372   5.211
 4732TIP3    H214161   1.979   4.446   5.273
 4733TIP3   OH214162   6.301   4.942   0.598
 4733TIP3    H114163   6.277   5.020   0.649
 4733TIP3    H214164   6.350   4.977   0.523
 4734TIP3   OH214165   6.557   3.809   5.050
 4734TIP3    H114166   6.632   3.839   4.998
 4734TIP3    H214167   6.577   3.836   5.140
 4735TIP3   OH214168   6.267   6.125   1.903
 4735TIP3    H114169   6.259   6.096   1.994
 4735TIP3    H214170   6.223   6.211   1.901
 4736TIP3   OH214171   5.293   6.573   1.494
 4736TIP3    H114172   5.234   6.637   1.533
 4736TIP3    H214173   5.333   6.620   1.420
 4737TIP3   OH214174   1.204   3.947   3.437
 4737TIP3    H114175   1.298   3.959   3.426
 4737TIP3    H214176   1.173   3.923   3.350
 4738TIP3   OH214177   4.626   5.713   4.741
 4738TIP3    H114178   4.620   5.767   4.662
 4738TIP3    H214179   4.713   5.730   4.776
 4739TIP3   OH214180   5.651   3.325   1.748
 4739TIP3    H114181   5.598   3.250   1.776
 4739TIP3    H214182   5.640   3.327   1.653
 4740TIP3   OH214183   6.400   6.467   4.004
 4740TIP3    H114184   6.393   6.536   4.070
 4740TIP3    H214185   6.488   6.431   4.017
 4741TIP3   OH214186   6.245   0.812   1.974
 4741TIP3    H114187   6.266   0.760   1.897
 4741TIP3    H214188   6.326   0.859   1.995
 4742TIP3   OH214189   5.339   4.211   4.581
 4742TIP3    H114190   5.377   4.296   4.561
 4742TIP3    H214191   5.398   4.172   4.646
 4743TIP3   OH214192   1.219   1.909   0.892
 4743TIP3    H114193   1.135   1.945   0.923
 4743TIP3    H214194   1.198   1.870   0.807
 4744TIP3   OH214195   4.119   4.920   0.346
 4744TIP3    H114196   4.088   4.906   0.435
 4744TIP3    H214197   4.187   4.988   0.354
 4745TIP3   OH214198   0.376   5.062   4.339
 4745TIP3    H114199   0.313   5.056   4.267
 4745TIP3    H214200   0.378   5.155   4.361
 4746TIP3   OH214201   0.764   6.198   4.957
 4746TIP3    H114202   0.779   6.265   5.024
 4746TIP3    H214203   0.786   6.115   5.000
 4747TIP3   OH214204   0.542   5.249   0.449
 4747TIP3    H114205   0.504   5.251   0.537
 4747TIP3    H214206   0.503   5.324   0.404
 4748TIP3   OH214207   2.307   0.756   2.275
 4748TIP3    H114208   2.301   0.670   2.317
 4748TIP3    H214209   2.400   0.767   2.256
 4749TIP3   OH214210   2.628   5.397   2.273
 4749TIP3    H114211   2.599   5.419   2.185
 4749TIP3    H214212   2.550   5.409   2.327
 4750TIP3   OH214213   2.202   4.240   2.233
 4750TIP3    H114214   2.212   4.147   2.214
 4750TIP3    H214215   2.288   4.268   2.264
 4751TIP3   OH214216   1.851   3.529   5.005
 4751TIP3    H114217   1.762   3.510   5.035
 4751TIP3    H214218   1.894   3.570   5.080
 4752TIP3   OH214219   4.142   2.493   1.856
 4752TIP3    H114220   4.113   2.412   1.897
 4752TIP3    H214221   4.076   2.558   1.881
 4753TIP3   OH214222   7.161   6.377   2.822
 4753TIP3    H114223   7.183   6.459   2.867
 4753TIP3    H214224   7.123   6.405   2.739
 4754TIP3   OH214225   4.328   1.113   0.518
 4754TIP3    H114226   4.296   1.180   0.579
 4754TIP3    H214227   4.399   1.156   0.471
 4755TIP3   OH214228   3.744   4.256   4.338
 4755TIP3    H114229   3.794   4.203   4.399
 4755TIP3    H214230   3.724   4.197   4.266
 4756TIP3   OH214231   1.893   3.286   2.001
 4756TIP3    H114232   1.824   3.347   2.025
 4756TIP3    H214233   1.877   3.267   1.909
 4757TIP3   OH214234   7.063   1.289   5.731
 4757TIP3    H114235   7.042   1.257   5.643
 4757TIP3    H214236   7.146   1.335   5.721
 4758TIP3   OH214237   4.172   0.423   0.271
 4758TIP3    H114238   4.140   0.360   0.207
 4758TIP3    H214239   4.190   0.371   0.349
 4759TIP3   OH214240   0.260   6.373   3.155
 4759TIP3    H114241   0.306   6.379   3.071
 4759TIP3    H214242   0.329   6.364   3.220
 4760TIP3   OH214243   2.474   0.976   2.658
 4760TIP3    H114244   2.395   0.992   2.607
 4760TIP3    H214245   2.505   1.064   2.682
 4761TIP3   OH214246   1.973   2.261   0.187
 4761TIP3    H114247   1.956   2.355   0.195
 4761TIP3    H214248   2.051   2.247   0.240
 4762TIP3   OH214249   6.360   6.110   1.596
 4762TIP3    H114250   6.294   6.164   1.552
 4762TIP3    H214251   6.382   6.158   1.675
 4763TIP3   OH214252   5.776   0.104   2.614
 4763TIP3    H114253   5.867   0.129   2.631
 4763TIP3    H214254   5.726   0.145   2.684
 4764TIP3   OH214255   5.893   3.635   1.250
 4764TIP3    H114256   5.888   3.697   1.176
 4764TIP3    H214257   5.879   3.549   1.210
 4765TIP3   OH214258   6.479   3.549   4.413
 4765TIP3    H114259   6.432   3.481   4.460
 4765TIP3    H214260   6.567   3.549   4.451
 4766TIP3   OH214261   0.375   4.139   2.567
 4766TIP3    H114262   0.375   4.053   2.610
 4766TIP3    H214263   0.365   4.118   2.474
 4767TIP3   OH214264   6.775   1.543   3.408
 4767TIP3    H114265   6.814   1.458   3.431
 4767TIP3    H214266   6.775   1.593   3.489
 4768TIP3   OH214267   0.185   1.204   1.246
 4768TIP3    H114268   0.274   1.209   1.281
 4768TIP3    H214269   0.189   1.252   1.163
 4769TIP3   OH214270   6.674   2.285   4.928
 4769TIP3    H114271   6.759   2.326   4.941
 4769TIP3    H214272   6.626   2.301   5.009
 4770TIP3   OH214273   6.548   2.948   5.532
 4770TIP3    H114274   6.554   2.879   5.466
 4770TIP3    H214275   6.455   2.967   5.538
 4771TIP3   OH214276   3.710   0.759   5.391
 4771TIP3    H114277   3.760   0.725   5.465
 4771TIP3    H214278   3.633   0.800   5.430
 4772TIP3   OH214279   6.127   2.161   1.000
 4772TIP3    H114280   6.164   2.182   1.086
 4772TIP3    H214281   6.033   2.152   1.016
 4773TIP3   OH214282   2.865   4.678   3.791
 4773TIP3    H114283   2.794   4.738   3.768
 4773TIP3    H214284   2.931   4.691   3.722
 4774TIP3   OH214285   1.760   4.161   2.309
 4774TIP3    H114286   1.767   4.081   2.362
 4774TIP3    H214287   1.674   4.196   2.330
 4775TIP3   OH214288   1.424   5.119   4.349
 4775TIP3    H114289   1.498   5.174   4.324
 4775TIP3    H214290   1.380   5.099   4.266
 4776TIP3   OH214291   5.570   5.457   0.640
 4776TIP3    H114292   5.654   5.418   0.617
 4776TIP3    H214293   5.528   5.476   0.556
 4777TIP3   OH214294   7.086   0.039   5.071
 4777TIP3    H114295   7.134   0.055   5.153
 4777TIP3    H214296   7.068  -0.055   5.072
 4778TIP3   OH214297   0.924   5.034   1.829
 4778TIP3    H114298   0.872   5.052   1.907
 4778TIP3    H214299   0.862   4.993   1.768
 4779TIP3   OH214300   5.897   5.357   5.252
 4779TIP3    H114301   5.837   5.282   5.245
 4779TIP3    H214302   5.971   5.324   5.301
 4780TIP3   OH214303   1.127   1.739   4.649
 4780TIP3    H114304   1.091   1.658   4.612
 4780TIP3    H214305   1.079   1.750   4.731
 4781TIP3   OH214306   3.230   6.230   1.229
 4781TIP3    H114307   3.183   6.310   1.204
 4781TIP3    H214308   3.206   6.214   1.320
 4782TIP3   OH214309   6.924   0.086   3.530
 4782TIP3    H114310   6.924   0.088   3.626
 4782TIP3    H214311   6.863   0.156   3.505
 4783TIP3   OH214312   1.524   6.414   5.601
 4783TIP3    H114313   1.573   6.338   5.631
 4783TIP3    H214314   1.444   6.378   5.561
 4784TIP3   OH214315   0.269   3.073   2.805
 4784TIP3    H114316   0.290   3.034   2.720
 4784TIP3    H214317   0.174   3.083   2.804
 4785TIP3   OH214318   6.453   1.842   2.335
 4785TIP3    H114319   6.387   1.776   2.355
 4785TIP3    H214320   6.427   1.875   2.249
 4786TIP3   OH214321   0.284   6.727   1.861
 4786TIP3    H114322   0.243   6.640   1.870
 4786TIP3    H214323   0.377   6.709   1.854
 4787TIP3   OH214324   2.098   5.341   0.075
 4787TIP3    H114325   2.172   5.336   0.136
 4787TIP3    H214326   2.136   5.322  -0.010
 4788TIP3   OH214327   5.408   0.564   2.598
 4788TIP3    H114328   5.438   0.473   2.604
 4788TIP3    H214329   5.322   0.559   2.558
 4789TIP3   OH214330   6.083   6.006   4.162
 4789TIP3    H114331   6.042   5.996   4.076
 4789TIP3    H214332   6.111   6.097   4.165
 4790TIP3   OH214333   1.457   6.095   0.707
 4790TIP3    H114334   1.388   6.140   0.756
 4790TIP3    H214335   1.536   6.109   0.759
 4791TIP3   OH214336   0.970   2.910   1.424
 4791TIP3    H114337   0.881   2.931   1.450
 4791TIP3    H214338   1.019   2.992   1.433
 4792TIP3   OH214339   1.946   1.455   2.957
 4792TIP3    H114340   1.889   1.401   2.903
 4792TIP3    H214341   2.018   1.479   2.899
 4793TIP3   OH214342   3.226   5.567   4.259
 4793TIP3    H114343   3.306   5.542   4.305
 4793TIP3    H214344   3.255   5.592   4.172
 4794TIP3   OH214345   4.639   2.307   2.098
 4794TIP3    H114346   4.650   2.217   2.068
 4794TIP3    H214347   4.709   2.319   2.163
 4795TIP3   OH214348   4.972   1.936   0.406
 4795TIP3    H114349   4.942   2.005   0.347
 4795TIP3    H214350   4.964   1.975   0.493
 4796TIP3   OH214351   1.061   3.990   1.532
 4796TIP3    H114352   0.970   3.963   1.536
 4796TIP3    H214353   1.091   3.964   1.445
 4797TIP3   OH214354   5.816   0.591   2.112
 4797TIP3    H114355   5.840   0.649   2.184
 4797TIP3    H214356   5.792   0.650   2.040
 4798TIP3   OH214357   0.007   4.471   2.925
 4798TIP3    H114358   0.063   4.428   2.861
 4798TIP3    H214359  -0.045   4.533   2.874
 4799TIP3   OH214360   4.728   1.278   4.538
 4799TIP3    H114361   4.768   1.360   4.569
 4799TIP3    H214362   4.756   1.272   4.447
 4800TIP3   OH214363   0.422   2.147   3.344
 4800TIP3    H114364   0.426   2.078   3.279
 4800TIP3    H214365   0.500   2.135   3.398
 4801TIP3   OH214366   1.993   6.141   2.729
 4801TIP3    H114367   1.942   6.215   2.762
 4801TIP3    H214368   2.084   6.170   2.736
 4802TIP3   OH214369   2.186   6.580   3.654
 4802TIP3    H114370   2.273   6.597   3.618
 4802TIP3    H214371   2.155   6.503   3.607
 4803TIP3   OH214372   4.064   0.755   1.702
 4803TIP3    H114373   4.122   0.783   1.631
 4803TIP3    H214374   4.044   0.664   1.681
 4804TIP3   OH214375   6.380   0.557   2.303
 4804TIP3    H114376   6.452   0.599   2.257
 4804TIP3    H214377   6.360   0.480   2.250
 4805TIP3   OH214378   3.249   5.173   0.377
 4805TIP3    H114379   3.338   5.207   0.387
 4805TIP3    H214380   3.199   5.214   0.448
 4806TIP3   OH214381   3.455   4.614   2.370
 4806TIP3    H114382   3.521   4.557   2.331
 4806TIP3    H214383   3.502   4.661   2.438
 4807TIP3   OH214384   6.683   0.606   0.956
 4807TIP3    H114385   6.774   0.581   0.941
 4807TIP3    H214386   6.631   0.544   0.905
 4808TIP3   OH214387   0.952   3.578   1.564
 4808TIP3    H114388   0.881   3.546   1.508
 4808TIP3    H214389   0.909   3.637   1.625
 4809TIP3   OH214390   4.028   3.104   4.770
 4809TIP3    H114391   4.010   3.143   4.684
 4809TIP3    H214392   4.121   3.122   4.785
 4810TIP3   OH214393   1.724   5.811   2.387
 4810TIP3    H114394   1.674   5.888   2.414
 4810TIP3    H214395   1.704   5.800   2.294
 4811TIP3   OH214396   0.635   3.061   1.781
 4811TIP3    H114397   0.602   2.983   1.826
 4811TIP3    H214398   0.592   3.134   1.826
 4812TIP3   OH214399   2.508   0.974   0.103
 4812TIP3    H114400   2.548   1.022   0.176
 4812TIP3    H214401   2.441   1.034   0.070
 4813TIP3   OH214402   2.150   0.799   4.450
 4813TIP3    H114403   2.054   0.796   4.444
 4813TIP3    H214404   2.178   0.714   4.416
 4814TIP3   OH214405   6.680   0.053   3.788
 4814TIP3    H114406   6.709   0.129   3.838
 4814TIP3    H214407   6.677   0.083   3.697
 4815TIP3   OH214408   5.464   6.221   5.203
 4815TIP3    H114409   5.417   6.199   5.283
 4815TIP3    H214410   5.456   6.316   5.195
 4816TIP3   OH214411   2.070   5.153   1.658
 4816TIP3    H114412   2.060   5.083   1.723
 4816TIP3    H214413   2.139   5.209   1.693
 4817TIP3   OH214414   2.439   0.989   1.680
 4817TIP3    H114415   2.401   0.968   1.594
 4817TIP3    H214416   2.364   1.010   1.735
 4818TIP3   OH214417   5.986   4.792   5.635
 4818TIP3    H114418   5.915   4.856   5.642
 4818TIP3    H214419   6.059   4.842   5.597
 4819TIP3   OH214420   1.524   3.141   2.297
 4819TIP3    H114421   1.569   3.141   2.212
 4819TIP3    H214422   1.501   3.050   2.312
 4820TIP3   OH214423   0.467   5.112   3.068
 4820TIP3    H114424   0.435   5.161   2.992
 4820TIP3    H214425   0.533   5.170   3.108
 4821TIP3   OH214426   6.117   2.809   4.102
 4821TIP3    H114427   6.047   2.824   4.166
 4821TIP3    H214428   6.121   2.889   4.051
 4822TIP3   OH214429   6.391   0.896   3.296
 4822TIP3    H114430   6.343   0.948   3.360
 4822TIP3    H214431   6.448   0.840   3.349
 4823TIP3   OH214432   4.070   1.393   1.321
 4823TIP3    H114433   4.051   1.349   1.404
 4823TIP3    H214434   3.989   1.385   1.271
 4824TIP3   OH214435   5.452   4.456   1.799
 4824TIP3    H114436   5.533   4.500   1.823
 4824TIP3    H214437   5.393   4.472   1.873
 4825TIP3   OH214438   4.282   1.273   1.904
 4825TIP3    H114439   4.245   1.333   1.840
 4825TIP3    H214440   4.211   1.258   1.967
 4826TIP3   OH214441   7.114   1.434   5.009
 4826TIP3    H114442   7.073   1.465   5.089
 4826TIP3    H214443   7.101   1.504   4.946
 4827TIP3   OH214444   2.639   4.090   0.780
 4827TIP3    H114445   2.729   4.117   0.765
 4827TIP3    H214446   2.593   4.112   0.699
 4828TIP3   OH214447   2.894   2.010   2.334
 4828TIP3    H114448   2.989   2.012   2.321
 4828TIP3    H214449   2.857   2.027   2.247
 4829TIP3   OH214450   5.480   1.436   0.428
 4829TIP3    H114451   5.481   1.531   0.417
 4829TIP3    H214452   5.524   1.421   0.512
 4830TIP3   OH214453   6.224   3.281   4.000
 4830TIP3    H114454   6.214   3.255   4.092
 4830TIP3    H214455   6.220   3.377   4.003
 4831TIP3   OH214456   3.073   4.419   5.834
 4831TIP3    H114457   2.996   4.362   5.838
 4831TIP3    H214458   3.063   4.478   5.909
 4832TIP3   OH214459   0.943   4.804   3.552
 4832TIP3    H114460   0.870   4.858   3.522
 4832TIP3    H214461   0.962   4.746   3.478
 4833TIP3   OH214462   3.858   2.538   1.207
 4833TIP3    H114463   3.885   2.486   1.283
 4833TIP3    H214464   3.940   2.563   1.165
 4834TIP3   OH214465   1.704   1.970   1.962
 4834TIP3    H114466   1.727   1.927   1.880
 4834TIP3    H214467   1.758   1.927   2.028
 4835TIP3   OH214468   4.652   4.626   0.525
 4835TIP3    H114469   4.636   4.693   0.591
 4835TIP3    H214470   4.686   4.674   0.449
 4836TIP3   OH214471   1.320   2.072   2.346
 4836TIP3    H114472   1.333   2.036   2.258
 4836TIP3    H214473   1.346   2.001   2.405
 4837TIP3   OH214474   2.353   5.220   3.440
 4837TIP3    H114475   2.313   5.206   3.354
 4837TIP3    H214476   2.397   5.137   3.459
 4838TIP3   OH214477   1.928   4.246   2.132
 4838TIP3    H114478   1.856   4.214   2.186
 4838TIP3    H214479   2.007   4.215   2.175
 4839TIP3   OH214480   5.329   2.257   3.048
 4839TIP3    H114481   5.405   2.300   3.087
 4839TIP3    H214482   5.266   2.250   3.120
 4840TIP3   OH214483   0.713   3.654   2.842
 4840TIP3    H114484   0.657   3.681   2.914
 4840TIP3    H214485   0.687   3.710   2.769
 4841TIP3   OH214486   6.538   2.205   1.671
 4841TIP3    H114487   6.599   2.203   1.744
 4841TIP3    H214488   6.453   2.227   1.710
 4842TIP3   OH214489   3.422   1.086   0.872
 4842TIP3    H114490   3.346   1.062   0.924
 4842TIP3    H214491   3.399   1.171   0.834
 4843TIP3   OH214492   2.877   0.792   1.172
 4843TIP3    H114493   2.835   0.763   1.253
 4843TIP3    H214494   2.830   0.871   1.147
 4844TIP3   OH214495   6.317   2.210   0.609
 4844TIP3    H114496   6.412   2.194   0.605
 4844TIP3    H214497   6.294   2.200   0.701
 4845TIP3   OH214498   1.219   6.494   4.288
 4845TIP3    H114499   1.202   6.423   4.226
 4845TIP3    H214500   1.150   6.558   4.271
 4846TIP3   OH214501   6.808   1.408   5.850
 4846TIP3    H114502   6.740   1.427   5.914
 4846TIP3    H214503   6.890   1.423   5.897
 4847TIP3   OH214504   2.338   0.176   3.417
 4847TIP3    H114505   2.243   0.169   3.414
 4847TIP3    H214506   2.357   0.267   3.397
 4848TIP3   OH214507   0.636   3.858   1.325
 4848TIP3    H114508   0.659   3.830   1.236
 4848TIP3    H214509   0.578   3.788   1.357
 4849TIP3   OH214510   2.517   4.243   1.948
 4849TIP3    H114511   2.479   4.227   2.035
 4849TIP3    H214512   2.499   4.163   1.900
 4850TIP3   OH214513   0.974   6.049   3.494
 4850TIP3    H114514   0.892   6.055   3.543
 4850TIP3    H214515   1.018   5.972   3.531
 4851TIP3   OH214516   0.846   0.282   2.480
 4851TIP3    H114517   0.864   0.351   2.543
 4851TIP3    H214518   0.924   0.278   2.425
 4852TIP3   OH214519   2.954   1.280   2.462
 4852TIP3    H114520   2.940   1.257   2.370
 4852TIP3    H214521   2.930   1.201   2.510
 4853TIP3   OH214522   2.462   0.499   5.346
 4853TIP3    H114523   2.500   0.465   5.428
 4853TIP3    H214524   2.492   0.589   5.342
 4854TIP3   OH214525   5.542   1.874   5.469
 4854TIP3    H114526   5.465   1.861   5.414
 4854TIP3    H214527   5.518   1.946   5.528
 4855TIP3   OH214528   5.143   2.740   0.108
 4855TIP3    H114529   5.088   2.668   0.137
 4855TIP3    H214530   5.230   2.719   0.142
 4856TIP3   OH214531   4.461   3.622   0.296
 4856TIP3    H114532   4.556   3.612   0.288
 4856TIP3    H214533   4.445   3.619   0.390
 4857TIP3   OH214534   2.642   5.861   3.377
 4857TIP3    H114535   2.694   5.854   3.297
 4857TIP3    H214536   2.572   5.922   3.355
 4858TIP3   OH214537   1.573   4.968   4.576
 4858TIP3    H114538   1.522   4.893   4.607
 4858TIP3    H214539   1.512   5.018   4.522
 4859TIP3   OH214540   0.057   0.363   0.120
 4859TIP3    H114541  -0.031   0.327   0.135
 4859TIP3    H214542   0.113   0.316   0.182
 4860TIP3   OH214543   7.183   5.364   5.320
 4860TIP3    H114544   7.179   5.457   5.343
 4860TIP3    H214545   7.276   5.342   5.328
 4861TIP3   OH214546   5.939   4.542   2.678
 4861TIP3    H114547   5.940   4.534   2.583
 4861TIP3    H214548   5.896   4.626   2.695
 4862TIP3   OH214549   5.052   1.241   1.567
 4862TIP3    H114550   5.084   1.231   1.477
 4862TIP3    H214551   5.132   1.255   1.619
 4863TIP3   OH214552   2.879   5.235   5.663
 4863TIP3    H114553   2.915   5.311   5.618
 4863TIP3    H214554   2.942   5.165   5.647
 4864TIP3   OH214555   2.830   4.022   0.433
 4864TIP3    H114556   2.792   4.079   0.500
 4864TIP3    H214557   2.830   4.076   0.353
 4865TIP3   OH214558   5.647   4.841   0.080
 4865TIP3    H114559   5.598   4.922   0.095
 4865TIP3    H214560   5.644   4.828  -0.015
 4866TIP3   OH214561   3.579   1.442   0.185
 4866TIP3    H114562   3.535   1.434   0.270
 4866TIP3    H214563   3.645   1.373   0.185
 4867TIP3   OH214564   1.588   6.410   2.053
 4867TIP3    H114565   1.650   6.429   1.983
 4867TIP3    H214566   1.504   6.442   2.020
 4868TIP3   OH214567   3.813   5.499   2.103
 4868TIP3    H114568   3.796   5.542   2.187
 4868TIP3    H214569   3.730   5.460   2.079
 4869TIP3   OH214570   5.076   3.884   3.907
 4869TIP3    H114571   5.086   3.916   3.997
 4869TIP3    H214572   4.987   3.909   3.883
 4870TIP3   OH214573   0.734   2.645   4.510
 4870TIP3    H114574   0.677   2.667   4.435
 4870TIP3    H214575   0.679   2.660   4.587
 4871TIP3   OH214576   3.613   1.148   2.674
 4871TIP3    H114577   3.570   1.122   2.755
 4871TIP3    H214578   3.703   1.169   2.700
 4872TIP3   OH214579   7.148   6.539   1.580
 4872TIP3    H114580   7.159   6.513   1.488
 4872TIP3    H214581   7.178   6.630   1.582
 4873TIP3   OH214582   5.332   5.395   2.391
 4873TIP3    H114583   5.272   5.322   2.407
 4873TIP3    H214584   5.275   5.470   2.375
 4874TIP3   OH214585   4.935   1.292   0.356
 4874TIP3    H114586   5.024   1.286   0.391
 4874TIP3    H214587   4.902   1.202   0.361
 4875TIP3   OH214588   4.580   5.413   4.984
 4875TIP3    H114589   4.571   5.508   4.981
 4875TIP3    H214590   4.653   5.398   5.044
 4876TIP3   OH214591   6.052   4.810   0.671
 4876TIP3    H114592   5.970   4.857   0.652
 4876TIP3    H214593   6.120   4.877   0.664
 4877TIP3   OH214594   5.321   5.882   0.074
 4877TIP3    H114595   5.267   5.959   0.055
 4877TIP3    H214596   5.259   5.819   0.112
 4878TIP3   OH214597   4.366   6.272   3.663
 4878TIP3    H114598   4.461   6.273   3.654
 4878TIP3    H214599   4.333   6.286   3.574
 4879TIP3   OH214600   3.929   0.702   3.995
 4879TIP3    H114601   4.021   0.724   3.977
 4879TIP3    H214602   3.934   0.633   4.061
 4880TIP3   OH214603   1.862   3.943   1.587
 4880TIP3    H114604   1.827   3.903   1.507
 4880TIP3    H214605   1.955   3.955   1.569
 4881TIP3   OH214606   2.490   2.861   4.900
 4881TIP3    H114607   2.538   2.908   4.832
 4881TIP3    H214608   2.523   2.895   4.983
 4882TIP3   OH214609   3.821   6.231   5.061
 4882TIP3    H114610   3.747   6.171   5.062
 4882TIP3    H214611   3.815   6.277   5.144
 4883TIP3   OH214612   6.737   6.514   5.415
 4883TIP3    H114613   6.772   6.570   5.484
 4883TIP3    H214614   6.710   6.575   5.346
 4884TIP3   OH214615   6.390   0.915   1.203
 4884TIP3    H114616   6.354   0.844   1.255
 4884TIP3    H214617   6.442   0.966   1.265
 4885TIP3   OH214618   4.803   1.529   4.411
 4885TIP3    H114619   4.872   1.596   4.411
 4885TIP3    H214620   4.733   1.566   4.464
 4886TIP3   OH214621   6.647   4.444   2.770
 4886TIP3    H114622   6.706   4.499   2.823
 4886TIP3    H214623   6.627   4.369   2.827
 4887TIP3   OH214624   1.461   5.708   4.997
 4887TIP3    H114625   1.530   5.714   4.931
 4887TIP3    H214626   1.422   5.622   4.983
 4888TIP3   OH214627   5.474   2.909   2.799
 4888TIP3    H114628   5.452   2.897   2.892
 4888TIP3    H214629   5.506   2.999   2.793
 4889TIP3   OH214630   2.375   1.855   2.982
 4889TIP3    H114631   2.355   1.764   2.961
 4889TIP3    H214632   2.469   1.855   3.003
 4890TIP3   OH214633   1.432   5.250   0.861
 4890TIP3    H114634   1.387   5.327   0.895
 4890TIP3    H214635   1.511   5.243   0.915
 4891TIP3   OH214636   2.768   6.026   2.795
 4891TIP3    H114637   2.739   6.087   2.727
 4891TIP3    H214638   2.861   6.014   2.778
 4892TIP3   OH214639   1.746   0.454   1.384
 4892TIP3    H114640   1.704   0.536   1.410
 4892TIP3    H214641   1.751   0.403   1.465
 4893TIP3   OH214642   2.128   5.025   2.599
 4893TIP3    H114643   2.103   4.981   2.680
 4893TIP3    H214644   2.142   4.954   2.536
 4894TIP3   OH214645   1.729   6.076   0.704
 4894TIP3    H114646   1.720   6.047   0.613
 4894TIP3    H214647   1.754   5.998   0.752
 4895TIP3   OH214648   6.239   5.951   5.841
 4895TIP3    H114649   6.177   6.017   5.809
 4895TIP3    H214650   6.236   5.960   5.936
 4896TIP3   OH214651   4.033   2.813   5.458
 4896TIP3    H114652   4.022   2.908   5.465
 4896TIP3    H214653   4.049   2.785   5.548
 4897TIP3   OH214654   2.543   5.630   0.882
 4897TIP3    H114655   2.572   5.539   0.876
 4897TIP3    H214656   2.511   5.639   0.972
 4898TIP3   OH214657   2.123   5.428   4.427
 4898TIP3    H114658   2.100   5.448   4.337
 4898TIP3    H214659   2.180   5.500   4.454
 4899TIP3   OH214660   1.537   2.040   0.051
 4899TIP3    H114661   1.534   1.976  -0.020
 4899TIP3    H214662   1.462   2.098   0.035
 4900TIP3   OH214663   3.558   5.858   5.241
 4900TIP3    H114664   3.487   5.794   5.233
 4900TIP3    H214665   3.559   5.881   5.333
 4901TIP3   OH214666   2.313   1.675   5.119
 4901TIP3    H114667   2.362   1.593   5.131
 4901TIP3    H214668   2.273   1.667   5.033
 4902TIP3   OH214669   5.430   4.747   4.377
 4902TIP3    H114670   5.352   4.800   4.362
 4902TIP3    H214671   5.398   4.657   4.379
 4903TIP3   OH214672   6.650   5.057   1.269
 4903TIP3    H114673   6.613   5.047   1.181
 4903TIP3    H214674   6.676   4.969   1.295
 4904TIP3   OH214675   6.284   0.473   0.827
 4904TIP3    H114676   6.361   0.416   0.831
 4904TIP3    H214677   6.212   0.414   0.802
 4905TIP3   OH214678   0.849   0.404   3.927
 4905TIP3    H114679   0.862   0.499   3.938
 4905TIP3    H214680   0.757   0.390   3.949
 4906TIP3   OH214681   0.752   4.235   4.263
 4906TIP3    H114682   0.802   4.212   4.185
 4906TIP3    H214683   0.767   4.162   4.324
 4907TIP3   OH214684   2.299   5.453   1.455
 4907TIP3    H114685   2.297   5.548   1.454
 4907TIP3    H214686   2.309   5.428   1.363
 4908TIP3   OH214687   6.487   2.397   3.790
 4908TIP3    H114688   6.527   2.311   3.802
 4908TIP3    H214689   6.403   2.379   3.748
 4909TIP3   OH214690   1.225   2.357   3.808
 4909TIP3    H114691   1.174   2.386   3.732
 4909TIP3    H214692   1.203   2.419   3.877
 4910TIP3   OH214693   4.262   5.948   1.008
 4910TIP3    H114694   4.306   6.029   0.983
 4910TIP3    H214695   4.229   5.965   1.096
 4911TIP3   OH214696   1.537   3.248   5.321
 4911TIP3    H114697   1.592   3.169   5.325
 4911TIP3    H214698   1.560   3.288   5.237
 4912TIP3   OH214699   5.141   4.392   2.423
 4912TIP3    H114700   5.207   4.440   2.474
 4912TIP3    H214701   5.058   4.420   2.461
 4913TIP3   OH214702   2.890   5.280   4.301
 4913TIP3    H114703   2.897   5.213   4.233
 4913TIP3    H214704   2.861   5.233   4.378
 4914TIP3   OH214705   5.912   0.090   5.636
 4914TIP3    H114706   5.860   0.010   5.622
 4914TIP3    H214707   5.848   0.156   5.662
 4915TIP3   OH214708   3.032   5.477   4.429
 4915TIP3    H114709   2.979   5.426   4.368
 4915TIP3    H214710   3.102   5.514   4.374
 4916TIP3   OH214711   6.996   3.698   3.842
 4916TIP3    H114712   6.993   3.735   3.929
 4916TIP3    H214713   6.991   3.603   3.856
 4917TIP3   OH214714   2.993   1.223   2.193
 4917TIP3    H114715   2.937   1.229   2.116
 4917TIP3    H214716   3.047   1.146   2.177
 4918TIP3   OH214717   6.929   4.907   1.226
 4918TIP3    H114718   7.009   4.960   1.222
 4918TIP3    H214719   6.889   4.917   1.140
 4919TIP3   OH214720   6.190   5.091   0.063
 4919TIP3    H114721   6.240   5.170   0.084
 4919TIP3    H214722   6.232   5.022   0.114
 4920TIP3   OH214723   1.580   1.752   4.877
 4920TIP3    H114724   1.631   1.773   4.955
 4920TIP3    H214725   1.531   1.831   4.858
 4921TIP3   OH214726   6.122   6.754   0.452
 4921TIP3    H114727   6.155   6.840   0.478
 4921TIP3    H214728   6.154   6.742   0.362
 4922TIP3   OH214729   0.850   1.334   4.708
 4922TIP3    H114730   0.801   1.314   4.788
 4922TIP3    H214731   0.882   1.248   4.678
 4923TIP3   OH214732   3.660   2.278   2.048
 4923TIP3    H114733   3.570   2.299   2.024
 4923TIP3    H214734   3.709   2.359   2.031
 4924TIP3   OH214735   2.675   3.035   2.370
 4924TIP3    H114736   2.674   3.039   2.466
 4924TIP3    H214737   2.651   2.945   2.350
 4925TIP3   OH214738   6.170   1.265   1.948
 4925TIP3    H114739   6.113   1.200   1.990
 4925TIP3    H214740   6.225   1.213   1.889
 4926TIP3   OH214741   0.037   2.711   5.648
 4926TIP3    H114742   0.034   2.796   5.692
 4926TIP3    H214743   0.007   2.649   5.715
 4927TIP3   OH214744   6.363   2.413   0.282
 4927TIP3    H114745   6.358   2.332   0.334
 4927TIP3    H214746   6.293   2.468   0.317
 4928TIP3   OH214747   6.302   2.491   2.819
 4928TIP3    H114748   6.219   2.444   2.812
 4928TIP3    H214749   6.323   2.517   2.729
 4929TIP3   OH214750   6.151   2.371   1.637
 4929TIP3    H114751   6.105   2.391   1.555
 4929TIP3    H214752   6.148   2.452   1.687
 4930TIP3   OH214753   0.540   2.649   3.416
 4930TIP3    H114754   0.586   2.570   3.387
 4930TIP3    H214755   0.555   2.712   3.346
 4931TIP3   OH214756   2.934   2.349   4.168
 4931TIP3    H114757   2.901   2.282   4.108
 4931TIP3    H214758   2.888   2.429   4.142
 4932TIP3   OH214759   2.579   2.012   3.529
 4932TIP3    H114760   2.536   2.096   3.511
 4932TIP3    H214761   2.672   2.030   3.522
 4933TIP3   OH214762   5.732   0.577   4.589
 4933TIP3    H114763   5.681   0.624   4.655
 4933TIP3    H214764   5.775   0.507   4.638
 4934TIP3   OH214765   1.329   0.988   4.576
 4934TIP3    H114766   1.325   1.062   4.636
 4934TIP3    H214767   1.281   0.918   4.621
 4935TIP3   OH214768   2.217   5.398   0.930
 4935TIP3    H114769   2.227   5.476   0.984
 4935TIP3    H214770   2.128   5.405   0.894
 4936TIP3   OH214771   4.875   0.695   1.340
 4936TIP3    H114772   4.807   0.759   1.360
 4936TIP3    H214773   4.864   0.675   1.247
 4937TIP3   OH214774   3.602   0.004   1.355
 4937TIP3    H114775   3.676  -0.056   1.366
 4937TIP3    H214776   3.634   0.073   1.297
 4938TIP3   OH214777   1.322   1.226   1.109
 4938TIP3    H114778   1.410   1.190   1.112
 4938TIP3    H214779   1.307   1.262   1.197
 4939TIP3   OH214780   5.029   3.057   5.279
 4939TIP3    H114781   5.022   3.035   5.186
 4939TIP3    H214782   4.963   3.002   5.321
 4940TIP3   OH214783   5.819   3.975   4.311
 4940TIP3    H114784   5.807   3.890   4.354
 4940TIP3    H214785   5.909   3.971   4.278
 4941TIP3   OH214786   2.392   0.896   3.192
 4941TIP3    H114787   2.326   0.926   3.254
 4941TIP3    H214788   2.342   0.870   3.115
 4942TIP3   OH214789   6.318   0.091   5.185
 4942TIP3    H114790   6.345   0.084   5.093
 4942TIP3    H214791   6.280   0.179   5.192
 4943TIP3   OH214792   4.801   0.281   0.920
 4943TIP3    H114793   4.895   0.288   0.932
 4943TIP3    H214794   4.784   0.187   0.915
 4944TIP3   OH214795   3.603   6.572   2.085
 4944TIP3    H114796   3.685   6.531   2.114
 4944TIP3    H214797   3.549   6.499   2.054
 4945TIP3   OH214798   2.233   1.338   3.898
 4945TIP3    H114799   2.151   1.368   3.938
 4945TIP3    H214800   2.265   1.271   3.957
 4946TIP3   OH214801   3.313   0.870   2.659
 4946TIP3    H114802   3.304   0.963   2.680
 4946TIP3    H214803   3.399   0.846   2.695
 4947TIP3   OH214804   4.945   0.436   2.156
 4947TIP3    H114805   4.878   0.375   2.186
 4947TIP3    H214806   4.918   0.521   2.192
 4948TIP3   OH214807   1.294   0.371   5.294
 4948TIP3    H114808   1.305   0.289   5.343
 4948TIP3    H214809   1.362   0.429   5.328
 4949TIP3   OH214810   6.594   2.817   2.624
 4949TIP3    H114811   6.615   2.770   2.705
 4949TIP3    H214812   6.500   2.833   2.629
 4950TIP3   OH214813   4.592   1.797   3.725
 4950TIP3    H114814   4.499   1.778   3.732
 4950TIP3    H214815   4.625   1.789   3.815
 4951TIP3   OH214816   7.146   3.397   2.986
 4951TIP3    H114817   7.130   3.311   2.947
 4951TIP3    H214818   7.059   3.430   3.008
 4952TIP3   OH214819   6.500   2.197   5.157
 4952TIP3    H114820   6.519   2.216   5.248
 4952TIP3    H214821   6.425   2.253   5.136
 4953TIP3   OH214822   5.121   3.607   0.417
 4953TIP3    H114823   5.204   3.607   0.369
 4953TIP3    H214824   5.131   3.538   0.482
 4954TIP3   OH214825   4.105   4.771   2.960
 4954TIP3    H114826   4.080   4.840   3.021
 4954TIP3    H214827   4.062   4.794   2.878
 4955TIP3   OH214828   0.937   2.108   3.952
 4955TIP3    H114829   0.974   2.021   3.962
 4955TIP3    H214830   0.933   2.122   3.857
 4956TIP3   OH214831   2.434   6.099   3.874
 4956TIP3    H114832   2.397   6.056   3.798
 4956TIP3    H214833   2.373   6.080   3.945
 4957TIP3   OH214834   1.355   1.605   0.154
 4957TIP3    H114835   1.384   1.644   0.236
 4957TIP3    H214836   1.432   1.608   0.097
 4958TIP3   OH214837   5.498   2.858   3.923
 4958TIP3    H114838   5.477   2.765   3.933
 4958TIP3    H214839   5.420   2.903   3.958
 4959TIP3   OH214840   2.472   5.923   2.580
 4959TIP3    H114841   2.546   5.862   2.585
 4959TIP3    H214842   2.424   5.897   2.501
 4960TIP3   OH214843   5.610   1.781   2.976
 4960TIP3    H114844   5.671   1.827   2.918
 4960TIP3    H214845   5.660   1.767   3.057
 4961TIP3   OH214846   2.545   0.038   5.221
 4961TIP3    H114847   2.556   0.077   5.134
 4961TIP3    H214848   2.625  -0.013   5.235
 4962TIP3   OH214849   3.435   0.542   1.924
 4962TIP3    H114850   3.422   0.492   1.844
 4962TIP3    H214851   3.425   0.633   1.897
 4963TIP3   OH214852   4.557   3.949   2.323
 4963TIP3    H114853   4.633   3.958   2.265
 4963TIP3    H214854   4.515   3.869   2.294
 4964TIP3   OH214855   0.904   3.960   2.417
 4964TIP3    H114856   0.888   4.048   2.451
 4964TIP3    H214857   0.834   3.906   2.453
 4965TIP3   OH214858   1.119   2.998   3.964
 4965TIP3    H114859   1.086   2.968   4.049
 4965TIP3    H214860   1.056   2.964   3.901
 4966TIP3   OH214861   0.811   2.933   1.011
 4966TIP3    H114862   0.737   2.987   1.038
 4966TIP3    H214863   0.777   2.877   0.941
 4967TIP3   OH214864   3.944   1.947   0.680
 4967TIP3    H114865   3.891   1.921   0.755
 4967TIP3    H214866   4.031   1.965   0.717
 4968TIP3   OH214867   4.808   3.538   3.558
 4968TIP3    H114868   4.843   3.542   3.469
 4968TIP3    H214869   4.858   3.604   3.606
 4969TIP3   OH214870   1.219   0.139   0.926
 4969TIP3    H114871   1.157   0.072   0.897
 4969TIP3    H214872   1.305   0.097   0.921
 4970TIP3   OH214873   0.044   4.438   3.451
 4970TIP3    H114874   0.048   4.479   3.364
 4970TIP3    H214875  -0.048   4.417   3.464
 4971TIP3   OH214876   4.045   4.651   0.832
 4971TIP3    H114877   3.981   4.700   0.883
 4971TIP3    H214878   4.014   4.658   0.742
 4972TIP3   OH214879   4.648   6.152   2.743
 4972TIP3    H114880   4.640   6.067   2.787
 4972TIP3    H214881   4.582   6.149   2.674
 4973TIP3   OH214882   1.769   0.491   3.974
 4973TIP3    H114883   1.798   0.487   3.883
 4973TIP3    H214884   1.675   0.508   3.970
 4974TIP3   OH214885   7.181   0.962   4.701
 4974TIP3    H114886   7.089   0.988   4.706
 4974TIP3    H214887   7.219   1.021   4.636
 4975TIP3   OH214888   6.059   5.598   2.338
 4975TIP3    H114889   6.087   5.515   2.375
 4975TIP3    H214890   5.967   5.606   2.363
 4976TIP3   OH214891   7.015   0.704   3.358
 4976TIP3    H114892   7.004   0.653   3.438
 4976TIP3    H214893   6.944   0.767   3.359
 4977TIP3   OH214894   7.154   5.778   0.199
 4977TIP3    H114895   7.082   5.840   0.201
 4977TIP3    H214896   7.217   5.816   0.137
 4978TIP3   OH214897   3.699   3.286   0.349
 4978TIP3    H114898   3.641   3.297   0.274
 4978TIP3    H214899   3.758   3.214   0.323
 4979TIP3   OH214900   3.485   6.430   1.300
 4979TIP3    H114901   3.409   6.430   1.357
 4979TIP3    H214902   3.466   6.364   1.234
 4980TIP3   OH214903   3.043   4.116   4.573
 4980TIP3    H114904   2.959   4.161   4.563
 4980TIP3    H214905   3.023   4.024   4.555
 4981TIP3   OH214906   7.046   5.111   0.900
 4981TIP3    H114907   6.974   5.046   0.902
 4981TIP3    H214908   7.113   5.069   0.846
 4982TIP3   OH214909   2.087   2.629   0.047
 4982TIP3    H114910   2.061   2.647  -0.043
 4982TIP3    H214911   2.017   2.574   0.082
 4983TIP3   OH214912   3.736   5.528   4.047
 4983TIP3    H114913   3.682   5.510   3.971
 4983TIP3    H214914   3.806   5.585   4.015
 4984TIP3   OH214915   5.202   6.070   5.133
 4984TIP3    H114916   5.265   6.098   5.067
 4984TIP3    H214917   5.147   6.147   5.149
 4985TIP3   OH214918   3.023   1.825   3.684
 4985TIP3    H114919   3.086   1.847   3.615
 4985TIP3    H214920   3.072   1.769   3.744
 4986TIP3   OH214921   6.488   6.777   5.310
 4986TIP3    H114922   6.508   6.686   5.332
 4986TIP3    H214923   6.493   6.823   5.394
 4987TIP3   OH214924   3.996   5.093   1.495
 4987TIP3    H114925   3.954   5.134   1.570
 4987TIP3    H214926   4.088   5.084   1.520
 4988TIP3   OH214927   2.890   2.961   3.059
 4988TIP3    H114928   2.914   3.006   2.977
 4988TIP3    H214929   2.973   2.929   3.094
 4989TIP3   OH214930   1.387   0.523   1.342
 4989TIP3    H114931   1.416   0.443   1.385
 4989TIP3    H214932   1.340   0.571   1.411
 4990TIP3   OH214933   3.334   2.588   3.455
 4990TIP3    H114934   3.254   2.636   3.474
 4990TIP3    H214935   3.386   2.593   3.535
 4991TIP3   OH214936   1.075   1.071   5.695
 4991TIP3    H114937   1.044   1.161   5.700
 4991TIP3    H214938   1.106   1.062   5.605
 4992TIP3   OH214939   6.635   2.763   5.334
 4992TIP3    H114940   6.618   2.803   5.249
 4992TIP3    H214941   6.569   2.695   5.343
 4993TIP3   OH214942   5.557   4.104   0.141
 4993TIP3    H114943   5.612   4.179   0.160
 4993TIP3    H214944   5.484   4.110   0.204
 4994TIP3   OH214945   4.361   3.754   2.159
 4994TIP3    H114946   4.276   3.786   2.190
 4994TIP3    H214947   4.375   3.798   2.076
 4995TIP3   OH214948   0.402   3.411   3.270
 4995TIP3    H114949   0.477   3.460   3.304
 4995TIP3    H214950   0.422   3.397   3.178
 4996TIP3   OH214951   3.801   3.892   5.131
 4996TIP3    H114952   3.758   3.946   5.065
 4996TIP3    H214953   3.872   3.848   5.084
 4997TIP3   OH214954   3.237   5.217   5.630
 4997TIP3    H114955   3.224   5.157   5.704
 4997TIP3    H214956   3.247   5.159   5.555
 4998TIP3   OH214957   2.460   4.700   3.522
 4998TIP3    H114958   2.470   4.795   3.530
 4998TIP3    H214959   2.441   4.685   3.430
 4999TIP3   OH214960   5.485   6.289   1.851
 4999TIP3    H114961   5.416   6.347   1.883
 4999TIP3    H214962   5.564   6.344   1.851
 5000TIP3   OH214963   4.667   4.850   3.936
 5000TIP3    H114964   4.724   4.897   3.997
 5000TIP3    H214965   4.703   4.870   3.850
 5001TIP3   OH214966   5.778   0.241   2.009
 5001TIP3    H114967   5.842   0.279   2.069
 5001TIP3    H214968   5.765   0.152   2.042
 5002TIP3   OH214969   3.563   5.359   2.080
 5002TIP3    H114970   3.514   5.368   2.161
 5002TIP3    H214971   3.503   5.389   2.011
 5003TIP3   OH214972   2.939   6.211   2.319
 5003TIP3    H114973   2.888   6.240   2.243
 5003TIP3    H214974   2.947   6.289   2.373
 5004TIP3   OH214975   6.059   1.459   0.963
 5004TIP3    H114976   6.130   1.513   0.926
 5004TIP3    H214977   5.979   1.503   0.933
 5005TIP3   OH214978   3.558   0.524   4.585
 5005TIP3    H114979   3.520   0.604   4.622
 5005TIP3    H214980   3.483   0.469   4.564
 5006TIP3   OH214981   4.927   1.822   0.705
 5006TIP3    H114982   4.841   1.854   0.677
 5006TIP3    H214983   4.985   1.897   0.695
 5007TIP3   OH214984   3.074   5.556   2.699
 5007TIP3    H114985   3.136   5.628   2.701
 5007TIP3    H214986   2.992   5.594   2.668
 5008TIP3   OH214987   3.614   3.317   4.277
 5008TIP3    H114988   3.660   3.246   4.324
 5008TIP3    H214989   3.569   3.366   4.346
 5009TIP3   OH214990   3.105   3.235   1.557
 5009TIP3    H114991   3.044   3.287   1.609
 5009TIP3    H214992   3.131   3.294   1.486
 5010TIP3   OH214993   0.706   3.027   4.671
 5010TIP3    H114994   0.641   2.984   4.727
 5010TIP3    H214995   0.654   3.071   4.603
 5011TIP3   OH214996   4.212   3.602   1.513
 5011TIP3    H114997   4.228   3.507   1.515
 5011TIP3    H214998   4.134   3.612   1.459
 5012TIP3   OH214999   2.240   3.003   4.987
 5012TIP3    H115000   2.305   3.008   4.917
 5012TIP3    H215001   2.234   2.910   5.008
 5013TIP3   OH215002   7.040   2.303   4.168
 5013TIP3    H115003   7.128   2.265   4.172
 5013TIP3    H215004   7.050   2.389   4.208
 5014TIP3   OH215005   4.830   0.727   3.372
 5014TIP3    H115006   4.883   0.744   3.295
 5014TIP3    H215007   4.798   0.638   3.361
 5015TIP3   OH215008   3.324   3.021   0.646
 5015TIP3    H115009   3.401   3.044   0.698
 5015TIP3    H215010   3.354   2.951   0.588
 5016TIP3   OH215011   4.858   4.600   2.309
 5016TIP3    H115012   4.915   4.672   2.336
 5016TIP3    H215013   4.790   4.641   2.257
 5017TIP3   OH215014   5.971   0.491   3.744
 5017TIP3    H115015   5.896   0.445   3.782
 5017TIP3    H215016   5.960   0.582   3.772
 5018TIP3   OH215017   7.131   2.259   3.920
 5018TIP3    H115018   7.081   2.281   3.999
 5018TIP3    H215019   7.118   2.334   3.862
 5019TIP3   OH215020   2.449   5.090   2.357
 5019TIP3    H115021   2.502   5.013   2.338
 5019TIP3    H215022   2.394   5.101   2.280
 5020TIP3   OH215023   2.985   4.285   3.235
 5020TIP3    H115024   2.910   4.279   3.295
 5020TIP3    H215025   3.050   4.226   3.273
 5021TIP3   OH215026   4.566   3.112   3.774
 5021TIP3    H115027   4.479   3.147   3.792
 5021TIP3    H215028   4.598   3.163   3.700
 5022TIP3   OH215029   0.298   6.811   0.235
 5022TIP3    H115030   0.280   6.815   0.141
 5022TIP3    H215031   0.386   6.773   0.241
 5023TIP3   OH215032   5.302   4.486   4.350
 5023TIP3    H115033   5.234   4.423   4.376
 5023TIP3    H215034   5.365   4.434   4.301
 5024TIP3   OH215035   4.009   5.310   3.513
 5024TIP3    H115036   4.010   5.271   3.600
 5024TIP3    H215037   4.094   5.287   3.475
 5025TIP3   OH215038   5.928   0.986   1.257
 5025TIP3    H115039   5.994   1.015   1.320
 5025TIP3    H215040   5.978   0.940   1.189
 5026TIP3   OH215041   1.305   4.756   2.763
 5026TIP3    H115042   1.252   4.703   2.823
 5026TIP3    H215043   1.285   4.720   2.676
 5027TIP3   OH215044   3.453   5.601   4.426
 5027TIP3    H115045   3.498   5.548   4.360
 5027TIP3    H215046   3.494   5.688   4.419
 5028TIP3   OH215047   0.801   3.742   1.110
 5028TIP3    H115048   0.833   3.653   1.124
 5028TIP3    H215049   0.859   3.778   1.044
 5029TIP3   OH215050   5.208   4.266   4.106
 5029TIP3    H115051   5.125   4.301   4.138
 5029TIP3    H215052   5.234   4.201   4.171
 5030TIP3   OH215053   2.267   5.625   1.071
 5030TIP3    H115054   2.213   5.678   1.012
 5030TIP3    H215055   2.313   5.690   1.125
 5031TIP3   OH215056   3.587   4.962   2.649
 5031TIP3    H115057   3.547   5.040   2.688
 5031TIP3    H215058   3.681   4.982   2.648
 5032TIP3   OH215059   3.143   0.284   2.388
 5032TIP3    H115060   3.102   0.257   2.306
 5032TIP3    H215061   3.073   0.278   2.453
 5033TIP3   OH215062   6.018   0.206   3.379
 5033TIP3    H115063   5.986   0.231   3.292
 5033TIP3    H215064   6.112   0.222   3.375
 5034TIP3   OH215065   6.561   1.180   5.545
 5034TIP3    H115066   6.499   1.249   5.522
 5034TIP3    H215067   6.644   1.226   5.559
 5035TIP3   OH215068   1.859   2.321   0.974
 5035TIP3    H115069   1.909   2.291   1.050
 5035TIP3    H215070   1.768   2.313   1.001
 5036TIP3   OH215071   3.947   2.204   3.695
 5036TIP3    H115072   4.017   2.145   3.666
 5036TIP3    H215073   3.992   2.275   3.740
 5037TIP3   OH215074   4.400   1.952   4.802
 5037TIP3    H115075   4.359   1.993   4.879
 5037TIP3    H215076   4.411   2.024   4.740
 5038TIP3   OH215077   0.942   4.793   2.658
 5038TIP3    H115078   0.878   4.856   2.691
 5038TIP3    H215079   1.017   4.803   2.715
 5039TIP3   OH215080   2.207   2.090   1.849
 5039TIP3    H115081   2.123   2.091   1.802
 5039TIP3    H215082   2.244   2.004   1.830
 5040TIP3   OH215083   0.107   4.285   3.681
 5040TIP3    H115084   0.074   4.365   3.640
 5040TIP3    H215085   0.056   4.215   3.641
 5041TIP3   OH215086   3.626   6.494   0.978
 5041TIP3    H115087   3.620   6.588   0.997
 5041TIP3    H215088   3.573   6.482   0.899
 5042TIP3   OH215089   6.604   2.707   1.975
 5042TIP3    H115090   6.690   2.731   1.939
 5042TIP3    H215091   6.577   2.784   2.026
 5043TIP3   OH215092   0.852   4.268   1.342
 5043TIP3    H115093   0.937   4.310   1.329
 5043TIP3    H215094   0.860   4.183   1.298
 5044TIP3   OH215095   5.716   3.644   0.692
 5044TIP3    H115096   5.709   3.637   0.787
 5044TIP3    H215097   5.787   3.707   0.677
 5045TIP3   OH215098   3.556   3.172   1.146
 5045TIP3    H115099   3.518   3.205   1.065
 5045TIP3    H215100   3.640   3.134   1.119
 5046TIP3   OH215101   0.784   0.469   4.441
 5046TIP3    H115102   0.716   0.534   4.425
 5046TIP3    H215103   0.849   0.485   4.373
 5047TIP3   OH215104   1.395   1.797   5.663
 5047TIP3    H115105   1.451   1.795   5.585
 5047TIP3    H215106   1.358   1.708   5.667
 5048TIP3   OH215107   3.364   3.169   3.811
 5048TIP3    H115108   3.274   3.200   3.825
 5048TIP3    H215109   3.409   3.189   3.893
 5049TIP3   OH215110   6.564   2.000   1.480
 5049TIP3    H115111   6.517   1.918   1.495
 5049TIP3    H215112   6.548   2.052   1.559
 5050TIP3   OH215113   6.545   3.859   1.299
 5050TIP3    H115114   6.570   3.911   1.375
 5050TIP3    H215115   6.453   3.840   1.312
 5051TIP3   OH215116   5.383   0.126   2.652
 5051TIP3    H115117   5.403   0.050   2.708
 5051TIP3    H215118   5.452   0.124   2.585
 5052TIP3   OH215119   6.571   0.302   0.527
 5052TIP3    H115120   6.504   0.370   0.522
 5052TIP3    H215121   6.648   0.348   0.562
 5053TIP3   OH215122   2.266   1.840   1.180
 5053TIP3    H115123   2.343   1.868   1.130
 5053TIP3    H215124   2.260   1.904   1.251
 5054TIP3   OH215125   3.005   5.040   3.667
 5054TIP3    H115126   3.015   4.950   3.638
 5054TIP3    H215127   2.928   5.039   3.724
 5055TIP3   OH215128   2.737   5.224   1.262
 5055TIP3    H115129   2.758   5.308   1.303
 5055TIP3    H215130   2.651   5.201   1.298
 5056TIP3   OH215131   4.889   1.747   3.365
 5056TIP3    H115132   4.965   1.778   3.415
 5056TIP3    H215133   4.918   1.664   3.326
 5057TIP3   OH215134   5.702   6.535   4.780
 5057TIP3    H115135   5.700   6.598   4.708
 5057TIP3    H215136   5.749   6.459   4.744
 5058TIP3   OH215137   2.013   4.596   1.790
 5058TIP3    H115138   2.007   4.506   1.822
 5058TIP3    H215139   1.948   4.600   1.720
 5059TIP3   OH215140   1.521   2.370   0.686
 5059TIP3    H115141   1.429   2.391   0.702
 5059TIP3    H215142   1.522   2.330   0.599
 5060TIP3   OH215143   6.279   6.453   4.607
 5060TIP3    H115144   6.184   6.452   4.620
 5060TIP3    H215145   6.312   6.393   4.673
 5061TIP3   OH215146   0.610   6.446   4.461
 5061TIP3    H115147   0.639   6.526   4.503
 5061TIP3    H215148   0.526   6.469   4.421
 5062TIP3   OH215149   6.121   3.015   3.925
 5062TIP3    H115150   6.058   3.033   3.854
 5062TIP3    H215151   6.144   3.102   3.958
 5063TIP3   OH215152   6.116   3.572   0.701
 5063TIP3    H115153   6.093   3.482   0.723
 5063TIP3    H215154   6.157   3.567   0.615
 5064TIP3   OH215155   2.625   1.808   3.359
 5064TIP3    H115156   2.554   1.758   3.399
 5064TIP3    H215157   2.628   1.890   3.409
 5065TIP3   OH215158   1.204   5.363   5.177
 5065TIP3    H115159   1.141   5.393   5.242
 5065TIP3    H215160   1.194   5.268   5.176
 5066TIP3   OH215161   4.117   1.849   3.062
 5066TIP3    H115162   4.091   1.940   3.053
 5066TIP3    H215163   4.204   1.844   3.023
 5067TIP3   OH215164   3.560   3.093   2.305
 5067TIP3    H115165   3.473   3.087   2.345
 5067TIP3    H215166   3.544   3.085   2.211
 5068TIP3   OH215167   6.466   4.849   2.612
 5068TIP3    H115168   6.467   4.797   2.531
 5068TIP3    H215169   6.374   4.867   2.628
 5069TIP3   OH215170   1.130   0.776   5.143
 5069TIP3    H115171   1.140   0.685   5.114
 5069TIP3    H215172   1.198   0.787   5.210
 5070TIP3   OH215173   5.808   4.839   3.571
 5070TIP3    H115174   5.852   4.763   3.610
 5070TIP3    H215175   5.725   4.804   3.539
 5071TIP3   OH215176   2.568   4.516   0.711
 5071TIP3    H115177   2.479   4.539   0.737
 5071TIP3    H215178   2.615   4.505   0.794
 5072TIP3   OH215179   1.625   6.738   0.276
 5072TIP3    H115180   1.571   6.740   0.355
 5072TIP3    H215181   1.561   6.737   0.204
 5073TIP3   OH215182   5.870   5.621   5.194
 5073TIP3    H115183   5.796   5.657   5.243
 5073TIP3    H215184   5.880   5.532   5.228
 5074TIP3   OH215185   0.937   2.957   3.692
 5074TIP3    H115186   1.002   2.998   3.635
 5074TIP3    H215187   0.899   2.887   3.638
 5075TIP3   OH215188   2.346   6.505   5.064
 5075TIP3    H115189   2.437   6.521   5.089
 5075TIP3    H215190   2.352   6.453   4.984
 5076TIP3   OH215191   3.418   4.833   5.404
 5076TIP3    H115192   3.487   4.787   5.452
 5076TIP3    H215193   3.360   4.764   5.373
 5077TIP3   OH215194   0.838   5.654   5.143
 5077TIP3    H115195   0.846   5.744   5.111
 5077TIP3    H215196   0.927   5.621   5.147
 5078TIP3   OH215197   3.080   6.618   1.595
 5078TIP3    H115198   2.988   6.641   1.601
 5078TIP3    H215199   3.116   6.677   1.529
 5079TIP3   OH215200   5.969   0.263   3.099
 5079TIP3    H115201   5.966   0.353   3.066
 5079TIP3    H215202   6.046   0.224   3.058
 5080TIP3   OH215203   1.703   6.245   4.845
 5080TIP3    H115204   1.626   6.302   4.846
 5080TIP3    H215205   1.673   6.164   4.888
 5081TIP3   OH215206   0.239   3.343   3.899
 5081TIP3    H115207   0.255   3.256   3.863
 5081TIP3    H215208   0.144   3.353   3.895
 5082TIP3   OH215209   4.556   3.392   3.884
 5082TIP3    H115210   4.479   3.338   3.904
 5082TIP3    H215211   4.524   3.482   3.888
 5083TIP3   OH215212   5.158   3.780   3.221
 5083TIP3    H115213   5.237   3.818   3.260
 5083TIP3    H215214   5.102   3.856   3.203
 5084TIP3   OH215215   1.087   4.138   3.030
 5084TIP3    H115216   1.019   4.093   3.081
 5084TIP3    H215217   1.085   4.228   3.062
 5085TIP3   OH215218   2.641   0.469   4.894
 5085TIP3    H115219   2.687   0.548   4.924
 5085TIP3    H215220   2.582   0.447   4.965
 5086TIP3   OH215221   0.502   1.460   2.694
 5086TIP3    H115222   0.426   1.416   2.657
 5086TIP3    H215223   0.490   1.552   2.671
 5087TIP3   OH215224   0.590   2.294   4.167
 5087TIP3    H115225   0.629   2.315   4.252
 5087TIP3    H215226   0.577   2.379   4.125
 5088TIP3   OH215227   4.718   3.154   5.231
 5088TIP3    H115228   4.778   3.221   5.199
 5088TIP3    H215229   4.749   3.073   5.191
 5089TIP3   OH215230   6.628   4.813   2.853
 5089TIP3    H115231   6.556   4.750   2.857
 5089TIP3    H215232   6.661   4.806   2.763
 5090TIP3   OH215233   4.096   4.551   2.026
 5090TIP3    H115234   4.059   4.582   1.943
 5090TIP3    H215235   4.029   4.574   2.091
 5091TIP3   OH215236   5.125   6.043   0.783
 5091TIP3    H115237   5.123   6.139   0.786
 5091TIP3    H215238   5.215   6.022   0.761
 5092TIP3   OH215239   4.485   5.918   5.373
 5092TIP3    H115240   4.486   5.882   5.285
 5092TIP3    H215241   4.503   6.011   5.361
 5093TIP3   OH215242   0.351   2.051   0.951
 5093TIP3    H115243   0.317   2.024   0.865
 5093TIP3    H215244   0.443   2.024   0.950
 5094TIP3   OH215245   2.537   6.763   1.024
 5094TIP3    H115246   2.485   6.684   1.036
 5094TIP3    H215247   2.479   6.824   0.978
 5095TIP3   OH215248   6.033   3.255   1.339
 5095TIP3    H115249   5.938   3.264   1.344
 5095TIP3    H215250   6.057   3.215   1.423
 5096TIP3   OH215251   5.144   5.322   5.705
 5096TIP3    H115252   5.148   5.342   5.799
 5096TIP3    H215253   5.227   5.353   5.671
 5097TIP3   OH215254   3.439   2.490   3.953
 5097TIP3    H115255   3.358   2.510   4.000
 5097TIP3    H215256   3.470   2.409   3.994
 5098TIP3   OH215257   5.590   4.209   4.971
 5098TIP3    H115258   5.514   4.218   5.028
 5098TIP3    H215259   5.650   4.278   5.001
 5099TIP3   OH215260   2.796   2.434   5.127
 5099TIP3    H115261   2.815   2.343   5.102
 5099TIP3    H215262   2.750   2.470   5.051
 5100TIP3   OH215263   6.566   2.591   2.831
 5100TIP3    H115264   6.478   2.553   2.835
 5100TIP3    H215265   6.608   2.547   2.758
 5101TIP3   OH215266   5.747   0.337   3.822
 5101TIP3    H115267   5.759   0.290   3.904
 5101TIP3    H215268   5.709   0.273   3.763
 5102TIP3   OH215269   0.823   3.688   5.861
 5102TIP3    H115270   0.871   3.729   5.788
 5102TIP3    H215271   0.829   3.594   5.844
 5103TIP3   OH215272   1.146   3.805   5.849
 5103TIP3    H115273   1.239   3.804   5.872
 5103TIP3    H215274   1.110   3.879   5.897
 5104TIP3   OH215275   3.764   1.662   4.019
 5104TIP3    H115276   3.760   1.689   4.110
 5104TIP3    H215277   3.674   1.643   3.995
 5105TIP3   OH215278   2.062   2.507   3.201
 5105TIP3    H115279   2.018   2.586   3.232
 5105TIP3    H215280   1.996   2.461   3.149
 5106TIP3   OH215281   4.051   4.551   3.107
 5106TIP3    H115282   4.057   4.626   3.048
 5106TIP3    H215283   4.084   4.583   3.191
 5107TIP3   OH215284   2.741   2.371   5.614
 5107TIP3    H115285   2.768   2.444   5.669
 5107TIP3    H215286   2.800   2.373   5.539
 5108TIP3   OH215287   5.463   5.200   1.635
 5108TIP3    H115288   5.526   5.264   1.668
 5108TIP3    H215289   5.513   5.118   1.630
 5109TIP3   OH215290   2.116   5.658   4.786
 5109TIP3    H115291   2.196   5.706   4.809
 5109TIP3    H215292   2.082   5.704   4.709
 5110TIP3   OH215293   3.442   6.215   0.371
 5110TIP3    H115294   3.373   6.201   0.306
 5110TIP3    H215295   3.481   6.128   0.384
 5111TIP3   OH215296   1.759   4.064   0.218
 5111TIP3    H115297   1.785   4.115   0.295
 5111TIP3    H215298   1.737   4.130   0.152
 5112TIP3   OH215299   6.282   4.811   3.518
 5112TIP3    H115300   6.256   4.832   3.428
 5112TIP3    H215301   6.350   4.875   3.539
 5113TIP3   OH215302   3.601   6.459   0.144
 5113TIP3    H115303   3.542   6.459   0.220
 5113TIP3    H215304   3.677   6.508   0.173
 5114TIP3   OH215305   5.455   2.596   3.973
 5114TIP3    H115306   5.484   2.570   4.060
 5114TIP3    H215307   5.370   2.554   3.962
 5115TIP3   OH215308   1.441   6.769   0.488
 5115TIP3    H115309   1.367   6.826   0.469
 5115TIP3    H215310   1.401   6.683   0.501
 5116TIP3   OH215311   1.461   6.251   1.507
 5116TIP3    H115312   1.406   6.174   1.493
 5116TIP3    H215313   1.408   6.308   1.563
 5117TIP3   OH215314   2.317   2.499   3.291
 5117TIP3    H115315   2.226   2.505   3.264
 5117TIP3    H215316   2.315   2.512   3.386
 5118TIP3   OH215317   2.832   0.234   4.873
 5118TIP3    H115318   2.818   0.141   4.892
 5118TIP3    H215319   2.744   0.272   4.876
 5119TIP3   OH215320   7.174   0.980   2.787
 5119TIP3    H115321   7.090   0.952   2.750
 5119TIP3    H215322   7.240   0.945   2.727
 5120TIP3   OH215323   5.693   0.179   0.828
 5120TIP3    H115324   5.688   0.084   0.836
 5120TIP3    H215325   5.713   0.194   0.735
 5121TIP3   OH215326   5.432   1.807   1.397
 5121TIP3    H115327   5.400   1.719   1.418
 5121TIP3    H215328   5.421   1.857   1.478
 5122TIP3   OH215329   4.784   0.882   3.059
 5122TIP3    H115330   4.748   0.900   3.146
 5122TIP3    H215331   4.708   0.890   3.000
 5123TIP3   OH215332   3.463   6.467   3.339
 5123TIP3    H115333   3.547   6.511   3.334
 5123TIP3    H215334   3.419   6.487   3.257
 5124TIP3   OH215335   0.897   5.031   4.063
 5124TIP3    H115336   0.813   5.060   4.029
 5124TIP3    H215337   0.899   5.061   4.153
 5125TIP3   OH215338   3.233   2.546   5.155
 5125TIP3    H115339   3.236   2.608   5.082
 5125TIP3    H215340   3.324   2.522   5.171
 5126TIP3   OH215341   0.457   3.893   4.405
 5126TIP3    H115342   0.476   3.976   4.362
 5126TIP3    H215343   0.433   3.834   4.333
 5127TIP3   OH215344   7.197   5.636   4.775
 5127TIP3    H115345   7.224   5.600   4.860
 5127TIP3    H215346   7.139   5.709   4.798
 5128TIP3   OH215347   6.653   1.966   5.197
 5128TIP3    H115348   6.707   1.968   5.118
 5128TIP3    H215349   6.602   2.047   5.193
 5129TIP3   OH215350   3.390   6.118   4.501
 5129TIP3    H115351   3.298   6.122   4.478
 5129TIP3    H215352   3.436   6.113   4.417
 5130TIP3   OH215353   2.217   2.548   1.309
 5130TIP3    H115354   2.292   2.572   1.362
 5130TIP3    H215355   2.251   2.541   1.220
 5131TIP3   OH215356   3.833   6.552   1.939
 5131TIP3    H115357   3.920   6.517   1.921
 5131TIP3    H215358   3.844   6.602   2.020
 5132TIP3   OH215359   4.880   4.286   1.690
 5132TIP3    H115360   4.866   4.234   1.611
 5132TIP3    H215361   4.910   4.223   1.755
 5133TIP3   OH215362   4.924   0.472   4.312
 5133TIP3    H115363   4.932   0.388   4.358
 5133TIP3    H215364   5.012   0.509   4.316
 5134TIP3   OH215365   1.584   4.470   0.214
 5134TIP3    H115366   1.602   4.527   0.289
 5134TIP3    H215367   1.547   4.529   0.148
 5135TIP3   OH215368   4.191   1.190   4.076
 5135TIP3    H115369   4.160   1.264   4.022
 5135TIP3    H215370   4.112   1.137   4.089
 5136TIP3   OH215371   0.609   2.278   0.517
 5136TIP3    H115372   0.592   2.287   0.424
 5136TIP3    H215373   0.553   2.206   0.546
 5137TIP3   OH215374   2.648   5.543   2.965
 5137TIP3    H115375   2.706   5.619   2.961
 5137TIP3    H215376   2.698   5.473   2.923
 5138TIP3   OH215377   5.410   2.621   1.668
 5138TIP3    H115378   5.370   2.556   1.611
 5138TIP3    H215379   5.377   2.600   1.755
 5139TIP3   OH215380   4.638   6.659   3.787
 5139TIP3    H115381   4.698   6.585   3.797
 5139TIP3    H215382   4.629   6.695   3.875
 5140TIP3   OH215383   6.714   2.526   3.889
 5140TIP3    H115384   6.632   2.486   3.860
 5140TIP3    H215385   6.699   2.549   3.981
 5141TIP3   OH215386   5.675   3.885   3.225
 5141TIP3    H115387   5.698   3.867   3.134
 5141TIP3    H215388   5.744   3.844   3.276
 5142TIP3   OH215389   4.701   3.336   1.595
 5142TIP3    H115390   4.749   3.415   1.618
 5142TIP3    H215391   4.611   3.352   1.623
 5143TIP3   OH215392   0.855   2.822   4.760
 5143TIP3    H115393   0.807   2.876   4.697
 5143TIP3    H215394   0.888   2.884   4.825
 5144TIP3   OH215395   2.794   4.560   3.244
 5144TIP3    H115396   2.751   4.487   3.200
 5144TIP3    H215397   2.863   4.519   3.297
 5145TIP3   OH215398   2.768   0.734   2.977
 5145TIP3    H115399   2.721   0.716   3.058
 5145TIP3    H215400   2.748   0.826   2.958
 5146TIP3   OH215401   4.556   2.829   4.530
 5146TIP3    H115402   4.647   2.857   4.516
 5146TIP3    H215403   4.533   2.865   4.615
 5147TIP3   OH215404   4.342   6.138   3.394
 5147TIP3    H115405   4.419   6.128   3.338
 5147TIP3    H215406   4.291   6.207   3.352
 5148TIP3   OH215407   4.303   3.450   5.277
 5148TIP3    H115408   4.376   3.413   5.327
 5148TIP3    H215409   4.337   3.457   5.188
 5149TIP3   OH215410   6.263   4.145   5.592
 5149TIP3    H115411   6.321   4.207   5.637
 5149TIP3    H215412   6.201   4.201   5.546
 5150TIP3   OH215413   3.361   6.438   3.941
 5150TIP3    H115414   3.270   6.466   3.931
 5150TIP3    H215415   3.405   6.513   3.983
 5151TIP3   OH215416   6.444   2.382   1.944
 5151TIP3    H115417   6.352   2.409   1.943
 5151TIP3    H215418   6.443   2.290   1.918
 5152TIP3   OH215419   6.769   6.723   2.068
 5152TIP3    H115420   6.760   6.795   2.130
 5152TIP3    H215421   6.729   6.755   1.987
 5153TIP3   OH215422   6.661   0.083   1.331
 5153TIP3    H115423   6.705   0.101   1.248
 5153TIP3    H215424   6.729   0.042   1.385
 5154TIP3   OH215425   1.110   2.981   2.611
 5154TIP3    H115426   1.078   2.898   2.647
 5154TIP3    H215427   1.091   2.975   2.517
 5155TIP3   OH215428   2.321   0.583   3.675
 5155TIP3    H115429   2.326   0.672   3.639
 5155TIP3    H215430   2.297   0.596   3.766
 5156TIP3   OH215431   3.813   2.883   4.746
 5156TIP3    H115432   3.830   2.976   4.758
 5156TIP3    H215433   3.759   2.879   4.666
 5157TIP3   OH215434   6.760   2.812   1.345
 5157TIP3    H115435   6.678   2.778   1.380
 5157TIP3    H215436   6.806   2.846   1.422
 5158TIP3   OH215437   1.987   0.580   0.630
 5158TIP3    H115438   1.943   0.551   0.710
 5158TIP3    H215439   2.061   0.632   0.660
 5159TIP3   OH215440   2.672   3.524   2.765
 5159TIP3    H115441   2.706   3.443   2.727
 5159TIP3    H215442   2.713   3.529   2.851
 5160TIP3   OH215443   3.766   6.173   0.224
 5160TIP3    H115444   3.844   6.136   0.182
 5160TIP3    H215445   3.784   6.167   0.317
 5161TIP3   OH215446   7.047   4.480   4.202
 5161TIP3    H115447   7.028   4.457   4.111
 5161TIP3    H215448   7.132   4.440   4.220
 5162TIP3   OH215449   6.239   1.905   5.667
 5162TIP3    H115450   6.153   1.864   5.671
 5162TIP3    H215451   6.246   1.954   5.749
 5163TIP3   OH215452   6.861   3.077   4.820
 5163TIP3    H115453   6.862   3.141   4.891
 5163TIP3    H215454   6.822   3.122   4.746
 5164TIP3   OH215455   1.665   0.125   4.543
 5164TIP3    H115456   1.631   0.039   4.568
 5164TIP3    H215457   1.660   0.126   4.447
 5165TIP3   OH215458   1.167   4.357   3.633
 5165TIP3    H115459   1.104   4.287   3.616
 5165TIP3    H215460   1.117   4.423   3.681
 5166TIP3   OH215461   1.467   0.200   4.965
 5166TIP3    H115462   1.500   0.125   4.916
 5166TIP3    H215463   1.536   0.220   5.028
 5167TIP3   OH215464   3.403   0.888   3.934
 5167TIP3    H115465   3.435   0.918   3.848
 5167TIP3    H215466   3.483   0.865   3.981
 5168TIP3   OH215467   5.017   2.158   0.923
 5168TIP3    H115468   5.054   2.076   0.955
 5168TIP3    H215469   5.017   2.215   1.000
 5169TIP3   OH215470   5.786   6.272   5.228
 5169TIP3    H115471   5.820   6.309   5.146
 5169TIP3    H215472   5.691   6.278   5.220
 5170TIP3   OH215473   2.735   6.609   4.772
 5170TIP3    H115474   2.742   6.519   4.740
 5170TIP3    H215475   2.753   6.602   4.866
 5171TIP3   OH215476   2.912   5.397   4.020
 5171TIP3    H115477   2.933   5.347   3.941
 5171TIP3    H215478   2.963   5.355   4.090
 5172TIP3   OH215479   0.313   4.594   3.153
 5172TIP3    H115480   0.343   4.648   3.080
 5172TIP3    H215481   0.311   4.654   3.228
 5173TIP3   OH215482   4.280   5.408   0.204
 5173TIP3    H115483   4.338   5.402   0.127
 5173TIP3    H215484   4.334   5.450   0.271
 5174TIP3   OH215485   1.231   4.615   1.756
 5174TIP3    H115486   1.253   4.543   1.814
 5174TIP3    H215487   1.316   4.655   1.735
 5175TIP3   OH215488   6.625   4.979   4.044
 5175TIP3    H115489   6.603   4.906   4.103
 5175TIP3    H215490   6.717   4.998   4.064
 5176TIP3   OH215491   3.217   2.903   3.971
 5176TIP3    H115492   3.272   2.860   4.036
 5176TIP3    H215493   3.275   2.918   3.896
 5177TIP3   OH215494   2.645   0.622   0.688
 5177TIP3    H115495   2.682   0.534   0.693
 5177TIP3    H215496   2.591   0.621   0.609
 5178TIP3   OH215497   2.942   2.331   3.684
 5178TIP3    H115498   2.958   2.418   3.648
 5178TIP3    H215499   2.860   2.341   3.733
 5179TIP3   OH215500   0.257   1.922   2.281
 5179TIP3    H115501   0.199   1.968   2.221
 5179TIP3    H215502   0.258   1.976   2.360
 5180TIP3   OH215503   3.253   4.779   3.408
 5180TIP3    H115504   3.316   4.846   3.435
 5180TIP3    H215505   3.304   4.699   3.401
 5181TIP3   OH215506   3.632   5.716   5.878
 5181TIP3    H115507   3.713   5.712   5.827
 5181TIP3    H215508   3.614   5.626   5.903
 5182TIP3   OH215509   5.604   0.910   2.814
 5182TIP3    H115510   5.581   0.817   2.812
 5182TIP3    H215511   5.534   0.953   2.765
 5183TIP3   OH215512   1.632   4.832   5.503
 5183TIP3    H115513   1.627   4.737   5.506
 5183TIP3    H215514   1.580   4.857   5.427
 5184TIP3   OH215515   4.812   3.571   5.764
 5184TIP3    H115516   4.730   3.553   5.718
 5184TIP3    H215517   4.851   3.645   5.716
 5185TIP3   OH215518   6.516   6.225   0.541
 5185TIP3    H115519   6.520   6.312   0.500
 5185TIP3    H215520   6.463   6.238   0.620
 5186TIP3   OH215521   5.763   2.726   3.856
 5186TIP3    H115522   5.682   2.720   3.907
 5186TIP3    H215523   5.832   2.705   3.919
 5187TIP3   OH215524   6.801   4.012   4.358
 5187TIP3    H115525   6.798   3.917   4.349
 5187TIP3    H215526   6.781   4.045   4.270
 5188TIP3   OH215527   1.551   2.020   5.882
 5188TIP3    H115528   1.463   2.035   5.916
 5188TIP3    H215529   1.538   2.013   5.787
 5189TIP3   OH215530   5.559   4.118   5.263
 5189TIP3    H115531   5.603   4.137   5.346
 5189TIP3    H215532   5.536   4.203   5.227
 5190TIP3   OH215533   5.602   1.586   3.920
 5190TIP3    H115534   5.693   1.574   3.896
 5190TIP3    H215535   5.552   1.541   3.852
 5191TIP3   OH215536   6.817   2.561   0.618
 5191TIP3    H115537   6.803   2.561   0.524
 5191TIP3    H215538   6.908   2.588   0.630
 5192TIP3   OH215539   0.284   5.162   3.594
 5192TIP3    H115540   0.282   5.079   3.641
 5192TIP3    H215541   0.193   5.193   3.597
 5193TIP3   OH215542   1.220   1.418   5.397
 5193TIP3    H115543   1.183   1.457   5.317
 5193TIP3    H215544   1.178   1.332   5.403
 5194TIP3   OH215545   0.310   6.569   0.451
 5194TIP3    H115546   0.234   6.622   0.476
 5194TIP3    H215547   0.383   6.608   0.498
 5195TIP3   OH215548   6.048   3.862   2.294
 5195TIP3    H115549   6.018   3.791   2.237
 5195TIP3    H215550   5.969   3.888   2.342
 5196TIP3   OH215551   2.647   0.159   3.942
 5196TIP3    H115552   2.611   0.166   4.031
 5196TIP3    H215553   2.742   0.158   3.954
 5197TIP3   OH215554   6.766   2.597   4.684
 5197TIP3    H115555   6.783   2.527   4.621
 5197TIP3    H215556   6.848   2.647   4.686
 5198TIP3   OH215557  -0.001   2.006   2.981
 5198TIP3    H115558  -0.014   1.924   2.934
 5198TIP3    H215559   0.016   1.979   3.072
 5199TIP3   OH215560   5.427   1.940   4.979
 5199TIP3    H115561   5.502   1.997   4.963
 5199TIP3    H215562   5.387   1.929   4.893
 5200TIP3   OH215563   4.656   6.642   0.666
 5200TIP3    H115564   4.698   6.607   0.587
 5200TIP3    H215565   4.719   6.707   0.699
 5201TIP3   OH215566   4.379   2.232   0.763
 5201TIP3    H115567   4.453   2.245   0.823
 5201TIP3    H215568   4.353   2.320   0.738
 5202TIP3   OH215569   5.517   5.100   4.295
 5202TIP3    H115570   5.562   5.176   4.258
 5202TIP3    H215571   5.516   5.036   4.224
 5203TIP3   OH215572   5.410   4.444   2.946
 5203TIP3    H115573   5.334   4.434   2.888
 5203TIP3    H215574   5.382   4.403   3.028
 5204TIP3   OH215575   2.418   2.865   0.511
 5204TIP3    H115576   2.507   2.862   0.477
 5204TIP3    H215577   2.365   2.896   0.437
 5205TIP3   OH215578   2.575   5.781   0.668
 5205TIP3    H115579   2.572   5.710   0.605
 5205TIP3    H215580   2.593   5.739   0.752
 5206TIP3   OH215581   7.166   6.704   4.131
 5206TIP3    H115582   7.200   6.788   4.160
 5206TIP3    H215583   7.089   6.726   4.078
 5207TIP3   OH215584   6.822   2.905   5.659
 5207TIP3    H115585   6.731   2.934   5.654
 5207TIP3    H215586   6.820   2.813   5.631
 5208TIP3   OH215587   2.604   0.580   0.264
 5208TIP3    H115588   2.698   0.582   0.249
 5208TIP3    H215589   2.574   0.498   0.225
 5209TIP3   OH215590   7.179   4.437   5.677
 5209TIP3    H115591   7.230   4.427   5.596
 5209TIP3    H215592   7.196   4.527   5.704
 5210TIP3   OH215593   0.156   3.332   4.851
 5210TIP3    H115594   0.252   3.334   4.847
 5210TIP3    H215595   0.134   3.387   4.926
 5211TIP3   OH215596   3.975   5.814   2.869
 5211TIP3    H115597   4.058   5.795   2.913
 5211TIP3    H215598   3.977   5.908   2.854
 5212TIP3   OH215599   2.781   4.959   3.464
 5212TIP3    H115600   2.859   5.014   3.466
 5212TIP3    H215601   2.811   4.875   3.430
 5213TIP3   OH215602   7.168   0.069   0.795
 5213TIP3    H115603   7.244   0.127   0.796
 5213TIP3    H215604   7.126   0.081   0.881
 5214TIP3   OH215605   6.737   4.756   3.118
 5214TIP3    H115606   6.765   4.808   3.041
 5214TIP3    H215607   6.778   4.801   3.192
 5215TIP3   OH215608   0.948   6.335   5.788
 5215TIP3    H115609   0.982   6.387   5.860
 5215TIP3    H215610   0.859   6.311   5.816
 5216TIP3   OH215611   0.456   4.086   3.797
 5216TIP3    H115612   0.497   4.154   3.852
 5216TIP3    H215613   0.422   4.133   3.722
 5217TIP3   OH215614   1.558   2.816   2.008
 5217TIP3    H115615   1.617   2.742   1.994
 5217TIP3    H215616   1.603   2.871   2.072
 5218TIP3   OH215617   5.224   5.598   5.200
 5218TIP3    H115618   5.316   5.573   5.208
 5218TIP3    H215619   5.216   5.677   5.254
 5219TIP3   OH215620   4.890   6.211   1.768
 5219TIP3    H115621   4.844   6.291   1.744
 5219TIP3    H215622   4.835   6.141   1.732
 5220TIP3   OH215623   6.906   2.722   4.375
 5220TIP3    H115624   6.923   2.716   4.281
 5220TIP3    H215625   6.854   2.645   4.395
 5221TIP3   OH215626   0.104   3.592   0.219
 5221TIP3    H115627   0.041   3.521   0.235
 5221TIP3    H215628   0.055   3.657   0.168
 5222TIP3   OH215629   0.339   5.402   1.361
 5222TIP3    H115630   0.337   5.465   1.289
 5222TIP3    H215631   0.433   5.388   1.378
 5223TIP3   OH215632   4.838   3.977   2.243
 5223TIP3    H115633   4.893   4.030   2.185
 5223TIP3    H215634   4.815   3.900   2.191
 5224TIP3   OH215635   2.978   0.912   4.850
 5224TIP3    H115636   3.045   0.864   4.802
 5224TIP3    H215637   3.021   0.992   4.878
 5225TIP3   OH215638   5.607   1.848   3.910
 5225TIP3    H115639   5.596   1.762   3.950
 5225TIP3    H215640   5.575   1.910   3.976
 5226TIP3   OH215641   0.912   6.033   0.451
 5226TIP3    H115642   0.840   6.091   0.476
 5226TIP3    H215643   0.977   6.092   0.410
 5227TIP3   OH215644   3.908   1.781   2.833
 5227TIP3    H115645   3.839   1.722   2.860
 5227TIP3    H215646   3.989   1.740   2.864
 5228TIP3   OH215647   7.146   6.506   5.617
 5228TIP3    H115648   7.151   6.430   5.559
 5228TIP3    H215649   7.236   6.527   5.639
 5229TIP3   OH215650   6.833   6.682   3.527
 5229TIP3    H115651   6.762   6.713   3.585
 5229TIP3    H215652   6.903   6.655   3.587
 5230TIP3   OH215653   4.230   1.320   2.265
 5230TIP3    H115654   4.263   1.235   2.235
 5230TIP3    H215655   4.307   1.366   2.298
 5231TIP3   OH215656   0.944   3.800   2.725
 5231TIP3    H115657   0.918   3.731   2.786
 5231TIP3    H215658   0.863   3.821   2.678
 5232TIP3   OH215659   4.074   6.423   4.030
 5232TIP3    H115660   4.143   6.360   4.051
 5232TIP3    H215661   4.120   6.497   3.992
 5233TIP3   OH215662   2.750   2.238   2.955
 5233TIP3    H115663   2.808   2.228   2.880
 5233TIP3    H215664   2.709   2.324   2.942
 5234TIP3   OH215665   6.758   1.102   2.597
 5234TIP3    H115666   6.793   1.171   2.654
 5234TIP3    H215667   6.668   1.088   2.628
 5235TIP3   OH215668   4.430   2.016   0.622
 5235TIP3    H115669   4.479   2.053   0.548
 5235TIP3    H215670   4.411   2.092   0.678
 5236TIP3   OH215671   2.829   0.662   3.393
 5236TIP3    H115672   2.800   0.747   3.357
 5236TIP3    H215673   2.779   0.597   3.343
 5237TIP3   OH215674   7.094   1.804   0.668
 5237TIP3    H115675   7.068   1.719   0.633
 5237TIP3    H215676   7.073   1.800   0.761
 5238TIP3   OH215677   0.504   5.527   4.001
 5238TIP3    H115678   0.488   5.582   3.925
 5238TIP3    H215679   0.418   5.509   4.037
 5239TIP3   OH215680   3.147   4.885   4.635
 5239TIP3    H115681   3.206   4.823   4.678
 5239TIP3    H215682   3.188   4.971   4.650
 5240TIP3   OH215683   6.594   3.554   1.866
 5240TIP3    H115684   6.568   3.509   1.786
 5240TIP3    H215685   6.560   3.499   1.937
 5241TIP3   OH215686   7.047   2.633   1.125
 5241TIP3    H115687   6.966   2.582   1.135
 5241TIP3    H215688   7.017   2.724   1.126
 5242TIP3   OH215689   5.881   2.900   3.080
 5242TIP3    H115690   5.827   2.977   3.062
 5242TIP3    H215691   5.901   2.907   3.174
 5243TIP3   OH215692   5.558   3.265   0.000
 5243TIP3    H115693   5.621   3.206   0.043
 5243TIP3    H215694   5.473   3.226   0.018
 5244TIP3   OH215695   2.392   0.983   0.906
 5244TIP3    H115696   2.359   1.021   0.825
 5244TIP3    H215697   2.353   1.036   0.975
 5245TIP3   OH215698   3.121   3.523   0.138
 5245TIP3    H115699   3.098   3.434   0.110
 5245TIP3    H215700   3.216   3.525   0.135
 5246TIP3   OH215701   3.051   4.223   2.738
 5246TIP3    H115702   3.001   4.246   2.816
 5246TIP3    H215703   2.988   4.180   2.680
 5247TIP3   OH215704   4.186   0.149   5.644
 5247TIP3    H115705   4.224   0.065   5.619
 5247TIP3    H215706   4.147   0.182   5.563
 5248TIP3   OH215707   4.169   5.294   0.928
 5248TIP3    H115708   4.252   5.301   0.880
 5248TIP3    H215709   4.195   5.285   1.019
 5249TIP3   OH215710   1.200   4.237   0.527
 5249TIP3    H115711   1.267   4.234   0.459
 5249TIP3    H215712   1.138   4.305   0.497
 5250TIP3   OH215713   5.095   6.495   5.084
 5250TIP3    H115714   5.137   6.521   5.166
 5250TIP3    H215715   5.091   6.575   5.033
 5251TIP3   OH215716   1.186   4.122   0.158
 5251TIP3    H115717   1.254   4.170   0.205
 5251TIP3    H215718   1.181   4.038   0.203
 5252TIP3   OH215719   2.090   1.193   1.161
 5252TIP3    H115720   2.024   1.262   1.168
 5252TIP3    H215721   2.068   1.132   1.231
 5253TIP3   OH215722   0.184   1.216   5.854
 5253TIP3    H115723   0.230   1.282   5.802
 5253TIP3    H215724   0.206   1.133   5.812
 5254TIP3   OH215725   1.021   4.691   5.507
 5254TIP3    H115726   1.116   4.706   5.505
 5254TIP3    H215727   0.990   4.747   5.579
 5255TIP3   OH215728   0.272   0.688   4.134
 5255TIP3    H115729   0.367   0.689   4.130
 5255TIP3    H215730   0.249   0.773   4.173
 5256TIP3   OH215731   0.964   6.807   2.878
 5256TIP3    H115732   1.012   6.750   2.937
 5256TIP3    H215733   0.900   6.750   2.836
 5257TIP3   OH215734   4.138   3.288   1.469
 5257TIP3    H115735   4.047   3.276   1.444
 5257TIP3    H215736   4.135   3.304   1.564
 5258TIP3   OH215737   1.546   1.476   2.773
 5258TIP3    H115738   1.575   1.495   2.684
 5258TIP3    H215739   1.482   1.405   2.762
 5259TIP3   OH215740   4.719   5.066   4.602
 5259TIP3    H115741   4.786   5.081   4.535
 5259TIP3    H215742   4.646   5.120   4.574
 5260TIP3   OH215743   6.781   3.823   1.174
 5260TIP3    H115744   6.835   3.889   1.215
 5260TIP3    H215745   6.692   3.841   1.205
 5261TIP3   OH215746   1.057   0.558   4.147
 5261TIP3    H115747   1.130   0.552   4.086
 5261TIP3    H215748   1.094   0.604   4.223
 5262TIP3   OH215749   6.176   4.289   2.523
 5262TIP3    H115750   6.156   4.245   2.440
 5262TIP3    H215751   6.104   4.265   2.581
 5263TIP3   OH215752   2.282   4.655   1.524
 5263TIP3    H115753   2.200   4.703   1.527
 5263TIP3    H215754   2.347   4.719   1.497
 5264TIP3   OH215755   2.000   0.429   2.904
 5264TIP3    H115756   1.973   0.490   2.836
 5264TIP3    H215757   2.089   0.456   2.927
 5265TIP3   OH215758   3.735   6.761   4.746
 5265TIP3    H115759   3.732   6.669   4.723
 5265TIP3    H215760   3.659   6.775   4.803
 5266TIP3   OH215761   1.310   4.847   4.827
 5266TIP3    H115762   1.317   4.839   4.922
 5266TIP3    H215763   1.231   4.898   4.813
 5267TIP3   OH215764   5.542   0.288   4.809
 5267TIP3    H115765   5.496   0.266   4.728
 5267TIP3    H215766   5.538   0.208   4.862
 5268TIP3   OH215767   1.275   1.881   5.037
 5268TIP3    H115768   1.363   1.916   5.053
 5268TIP3    H215769   1.236   1.877   5.124
 5269TIP3   OH215770   6.454   3.267   1.818
 5269TIP3    H115771   6.499   3.238   1.897
 5269TIP3    H215772   6.363   3.240   1.831
 5270TIP3   OH215773   3.892   2.318   1.759
 5270TIP3    H115774   3.973   2.270   1.748
 5270TIP3    H215775   3.913   2.387   1.821
 5271TIP3   OH215776   6.187   1.677   0.832
 5271TIP3    H115777   6.101   1.703   0.798
 5271TIP3    H215778   6.237   1.652   0.754
 5272TIP3   OH215779   6.010   3.294   2.867
 5272TIP3    H115780   6.092   3.253   2.838
 5272TIP3    H215781   6.032   3.333   2.952
 5273TIP3   OH215782   0.281   2.506   0.497
 5273TIP3    H115783   0.288   2.448   0.420
 5273TIP3    H215784   0.281   2.446   0.571
 5274TIP3   OH215785   0.083   5.685   3.161
 5274TIP3    H115786   0.069   5.646   3.075
 5274TIP3    H215787   0.125   5.616   3.212
 5275TIP3   OH215788   0.701   2.730   2.093
 5275TIP3    H115789   0.769   2.665   2.077
 5275TIP3    H215790   0.747   2.814   2.092
 5276TIP3   OH215791   5.848   3.173   0.352
 5276TIP3    H115792   5.815   3.263   0.345
 5276TIP3    H215793   5.823   3.146   0.441
 5277TIP3   OH215794   2.486   4.147   1.008
 5277TIP3    H115795   2.523   4.124   0.923
 5277TIP3    H215796   2.432   4.225   0.991
 5278TIP3   OH215797   2.333   4.617   4.985
 5278TIP3    H115798   2.379   4.558   4.925
 5278TIP3    H215799   2.241   4.610   4.959
 5279TIP3   OH215800   4.584   1.654   4.557
 5279TIP3    H115801   4.544   1.674   4.642
 5279TIP3    H215802   4.513   1.615   4.506
 5280TIP3   OH215803   3.518   2.182   1.407
 5280TIP3    H115804   3.562   2.231   1.476
 5280TIP3    H215805   3.585   2.169   1.339
 5281TIP3   OH215806   6.901   2.863   1.119
 5281TIP3    H115807   6.862   2.931   1.065
 5281TIP3    H215808   6.832   2.838   1.181
 5282TIP3   OH215809   7.055   0.843   1.495
 5282TIP3    H115810   7.129   0.877   1.445
 5282TIP3    H215811   7.093   0.816   1.579
 5283TIP3   OH215812   2.912   4.732   0.766
 5283TIP3    H115813   2.958   4.660   0.724
 5283TIP3    H215814   2.848   4.690   0.823
 5284TIP3   OH215815   6.679   4.671   1.063
 5284TIP3    H115816   6.615   4.608   1.097
 5284TIP3    H215817   6.660   4.678   0.970
 5285TIP3   OH215818   5.159   1.714   0.439
 5285TIP3    H115819   5.096   1.784   0.423
 5285TIP3    H215820   5.242   1.759   0.457
 5286TIP3   OH215821   5.518   4.037   4.784
 5286TIP3    H115822   5.601   4.047   4.738
 5286TIP3    H215823   5.526   4.094   4.861
 5287TIP3   OH215824   5.295   2.342   2.558
 5287TIP3    H115825   5.225   2.403   2.536
 5287TIP3    H215826   5.295   2.278   2.488
 5288TIP3   OH215827   2.152   4.166   1.786
 5288TIP3    H115828   2.193   4.223   1.720
 5288TIP3    H215829   2.207   4.087   1.786
 5289TIP3   OH215830   0.511   2.724   1.541
 5289TIP3    H115831   0.515   2.631   1.565
 5289TIP3    H215832   0.500   2.723   1.446
 5290TIP3   OH215833   0.582   5.572   4.380
 5290TIP3    H115834   0.531   5.492   4.368
 5290TIP3    H215835   0.603   5.572   4.474
 5291TIP3   OH215836   1.588   2.326   1.077
 5291TIP3    H115837   1.551   2.302   1.162
 5291TIP3    H215838   1.526   2.291   1.013
 5292TIP3   OH215839   0.526   6.728   4.731
 5292TIP3    H115840   0.585   6.653   4.721
 5292TIP3    H215841   0.571   6.785   4.794
 5293TIP3   OH215842   6.905   2.676   5.232
 5293TIP3    H115843   6.886   2.594   5.185
 5293TIP3    H215844   6.821   2.722   5.234
 5294TIP3   OH215845   5.154   3.142   0.682
 5294TIP3    H115846   5.162   3.108   0.771
 5294TIP3    H215847   5.063   3.125   0.658
 5295TIP3   OH215848   5.174   5.169   1.670
 5295TIP3    H115849   5.155   5.076   1.658
 5295TIP3    H215850   5.270   5.175   1.664
 5296TIP3   OH215851   5.860   1.797   3.772
 5296TIP3    H115852   5.787   1.844   3.812
 5296TIP3    H215853   5.881   1.728   3.835
 5297TIP3   OH215854   2.596   0.791   3.877
 5297TIP3    H115855   2.601   0.696   3.868
 5297TIP3    H215856   2.687   0.820   3.881
 5298TIP3   OH215857   1.201   4.423   4.378
 5298TIP3    H115858   1.176   4.446   4.467
 5298TIP3    H215859   1.182   4.330   4.370
 5299TIP3   OH215860   2.483   1.941   4.837
 5299TIP3    H115861   2.425   1.866   4.821
 5299TIP3    H215862   2.490   1.984   4.752
 5300TIP3   OH215863   2.196   0.147   0.762
 5300TIP3    H115864   2.128   0.192   0.712
 5300TIP3    H215865   2.266   0.211   0.773
 5301TIP3   OH215866   4.921   4.752   3.699
 5301TIP3    H115867   4.972   4.831   3.710
 5301TIP3    H215868   4.898   4.725   3.788
 5302TIP3   OH215869   5.325   5.294   2.665
 5302TIP3    H115870   5.347   5.354   2.594
 5302TIP3    H215871   5.409   5.256   2.690
 5303TIP3   OH215872   1.404   4.325   3.981
 5303TIP3    H115873   1.387   4.401   3.925
 5303TIP3    H215874   1.406   4.361   4.070
 5304TIP3   OH215875   5.045   2.018   2.871
 5304TIP3    H115876   5.102   2.084   2.833
 5304TIP3    H215877   4.957   2.044   2.843
 5305TIP3   OH215878   0.552   5.656   1.240
 5305TIP3    H115879   0.575   5.625   1.328
 5305TIP3    H215880   0.456   5.660   1.241
 5306TIP3   OH215881   0.376   6.082   5.245
 5306TIP3    H115882   0.378   6.008   5.306
 5306TIP3    H215883   0.285   6.089   5.219
 5307TIP3   OH215884   5.366   3.855   4.446
 5307TIP3    H115885   5.456   3.823   4.457
 5307TIP3    H215886   5.312   3.776   4.444
 5308TIP3   OH215887   5.262   0.170   5.394
 5308TIP3    H115888   5.208   0.217   5.331
 5308TIP3    H215889   5.208   0.095   5.421
 5309TIP3   OH215890   5.045   1.500   5.866
 5309TIP3    H115891   5.066   1.495   5.772
 5309TIP3    H215892   5.042   1.593   5.885
 5310TIP3   OH215893   0.405   1.071   2.567
 5310TIP3    H115894   0.338   1.007   2.544
 5310TIP3    H215895   0.467   1.069   2.494
 5311TIP3   OH215896   6.528   5.359   4.496
 5311TIP3    H115897   6.529   5.309   4.578
 5311TIP3    H215898   6.555   5.296   4.429
 5312TIP3   OH215899   3.980   6.459   0.285
 5312TIP3    H115900   3.886   6.443   0.288
 5312TIP3    H215901   4.017   6.379   0.248
 5313TIP3   OH215902   1.438   1.420   1.625
 5313TIP3    H115903   1.488   1.456   1.698
 5313TIP3    H215904   1.504   1.399   1.559
 5314TIP3   OH215905   0.565   1.082   4.972
 5314TIP3    H115906   0.628   1.013   4.950
 5314TIP3    H215907   0.582   1.101   5.064
 5315TIP3   OH215908   0.801   6.091   2.878
 5315TIP3    H115909   0.731   6.064   2.938
 5315TIP3    H215910   0.846   6.162   2.924
 5316TIP3   OH215911   3.775   3.461   4.859
 5316TIP3    H115912   3.780   3.438   4.766
 5316TIP3    H215913   3.703   3.525   4.864
 5317TIP3   OH215914   2.528   5.201   4.294
 5317TIP3    H115915   2.554   5.110   4.282
 5317TIP3    H215916   2.564   5.225   4.379
 5318TIP3   OH215917   6.295   2.493   1.046
 5318TIP3    H115918   6.269   2.412   1.089
 5318TIP3    H215919   6.265   2.562   1.106
 5319TIP3   OH215920   2.098   1.178   3.606
 5319TIP3    H115921   2.042   1.240   3.652
 5319TIP3    H215922   2.103   1.212   3.516
 5320TIP3   OH215923   2.279   4.192   2.841
 5320TIP3    H115924   2.299   4.286   2.844
 5320TIP3    H215925   2.192   4.187   2.803
 5321TIP3   OH215926   2.534   5.660   5.698
 5321TIP3    H115927   2.624   5.675   5.670
 5321TIP3    H215928   2.523   5.713   5.777
 5322TIP3   OH215929   5.185   5.840   1.418
 5322TIP3    H115930   5.266   5.890   1.412
 5322TIP3    H215931   5.193   5.791   1.500
 5323TIP3   OH215932   1.076   3.961   0.527
 5323TIP3    H115933   1.105   4.037   0.577
 5323TIP3    H215934   1.138   3.892   0.549
 5324TIP3   OH215935   0.963   1.165   0.342
 5324TIP3    H115936   1.036   1.185   0.401
 5324TIP3    H215937   0.898   1.233   0.361
 5325TIP3   OH215938   5.320   1.708   2.282
 5325TIP3    H115939   5.330   1.631   2.337
 5325TIP3    H215940   5.366   1.686   2.201
 5326TIP3   OH215941   3.038   4.184   1.033
 5326TIP3    H115942   2.956   4.231   1.050
 5326TIP3    H215943   3.080   4.178   1.119
 5327TIP3   OH215944   1.676   0.389   5.335
 5327TIP3    H115945   1.721   0.428   5.259
 5327TIP3    H215946   1.648   0.303   5.304
 5328TIP3   OH215947   6.739   5.923   0.600
 5328TIP3    H115948   6.751   5.991   0.534
 5328TIP3    H215949   6.819   5.925   0.652
 5329TIP3   OH215950   5.152   0.416   2.816
 5329TIP3    H115951   5.134   0.425   2.722
 5329TIP3    H215952   5.244   0.390   2.820
 5330TIP3   OH215953   6.685   5.383   3.546
 5330TIP3    H115954   6.647   5.460   3.505
 5330TIP3    H215955   6.655   5.385   3.636
 5331TIP3   OH215956   4.543   2.475   3.276
 5331TIP3    H115957   4.575   2.386   3.257
 5331TIP3    H215958   4.578   2.495   3.363
 5332TIP3   OH215959   2.115   4.895   2.842
 5332TIP3    H115960   2.019   4.890   2.845
 5332TIP3    H215961   2.144   4.818   2.891
 5333TIP3   OH215962   1.217   4.548   0.283
 5333TIP3    H115963   1.141   4.569   0.338
 5333TIP3    H215964   1.233   4.628   0.232
 5334TIP3   OH215965   1.759   5.795   4.192
 5334TIP3    H115966   1.789   5.885   4.205
 5334TIP3    H215967   1.748   5.760   4.280
 5335TIP3   OH215968   5.986   2.056   5.451
 5335TIP3    H115969   6.040   2.118   5.500
 5335TIP3    H215970   5.964   1.988   5.514
 5336TIP3   OH215971   4.149   3.558   3.233
 5336TIP3    H115972   4.129   3.592   3.145
 5336TIP3    H215973   4.085   3.488   3.245
 5337TIP3   OH215974   4.144   1.898   2.226
 5337TIP3    H115975   4.183   1.837   2.163
 5337TIP3    H215976   4.057   1.863   2.242
 5338TIP3   OH215977   1.627   3.248   3.967
 5338TIP3    H115978   1.539   3.210   3.971
 5338TIP3    H215979   1.673   3.197   3.901
 5339TIP3   OH215980   0.342   5.245   2.826
 5339TIP3    H115981   0.253   5.217   2.803
 5339TIP3    H215982   0.397   5.201   2.761
 5340TIP3   OH215983   3.892   5.682   5.744
 5340TIP3    H115984   3.895   5.640   5.658
 5340TIP3    H215985   3.975   5.659   5.786
 5341TIP3   OH215986   3.322   1.984   0.978
 5341TIP3    H115987   3.240   1.986   1.028
 5341TIP3    H215988   3.320   2.064   0.927
 5342TIP3   OH215989   0.028   5.281   5.648
 5342TIP3    H115990   0.052   5.192   5.622
 5342TIP3    H215991   0.107   5.333   5.633
 5343TIP3   OH215992   6.465   2.560   2.192
 5343TIP3    H115993   6.448   2.476   2.235
 5343TIP3    H215994   6.461   2.625   2.263
 5344TIP3   OH215995   6.627   3.164   3.211
 5344TIP3    H115996   6.544   3.125   3.185
 5344TIP3    H215997   6.655   3.114   3.287
 5345TIP3   OH215998   1.930   6.428   3.062
 5345TIP3    H115999   1.962   6.493   2.999
 5345TIP3    H216000   1.956   6.462   3.147
 5346TIP3   OH216001   2.913   6.564   5.596
 5346TIP3    H116002   2.975   6.595   5.663
 5346TIP3    H216003   2.895   6.473   5.621
 5347TIP3   OH216004   2.089   4.348   3.661
 5347TIP3    H116005   2.086   4.431   3.708
 5347TIP3    H216006   2.019   4.355   3.596
 5348TIP3   OH216007   4.639   2.707   5.621
 5348TIP3    H116008   4.715   2.764   5.616
 5348TIP3    H216009   4.606   2.718   5.710
 5349TIP3   OH216010   0.598   5.646   0.374
 5349TIP3    H116011   0.657   5.671   0.302
 5349TIP3    H216012   0.516   5.692   0.355
 5350TIP3   OH216013   0.577   4.133   2.812
 5350TIP3    H116014   0.671   4.129   2.829
 5350TIP3    H216015   0.565   4.211   2.759
 5351TIP3   OH216016   6.052   5.562   3.582
 5351TIP3    H116017   5.981   5.503   3.558
 5351TIP3    H216018   6.102   5.574   3.502
 5352TIP3   OH216019   4.555   6.465   4.097
 5352TIP3    H116020   4.510   6.522   4.034
 5352TIP3    H216021   4.559   6.518   4.177
 5353TIP3   OH216022   4.880   5.771   4.860
 5353TIP3    H116023   4.880   5.858   4.820
 5353TIP3    H216024   4.964   5.768   4.908
 5354TIP3   OH216025   0.930   1.022   1.972
 5354TIP3    H116026   0.882   0.939   1.970
 5354TIP3    H216027   0.863   1.088   1.991
 5355TIP3   OH216028   2.142   2.352   0.536
 5355TIP3    H116029   2.049   2.336   0.549
 5355TIP3    H216030   2.184   2.319   0.615
 5356TIP3   OH216031   2.942   6.463   1.870
 5356TIP3    H116032   2.935   6.372   1.842
 5356TIP3    H216033   3.024   6.494   1.830
 5357TIP3   OH216034   3.818   5.673   2.692
 5357TIP3    H116035   3.875   5.726   2.747
 5357TIP3    H216036   3.729   5.698   2.718
 5358TIP3   OH216037   0.684   5.390   1.142
 5358TIP3    H116038   0.674   5.318   1.204
 5358TIP3    H216039   0.628   5.459   1.176
 5359TIP3   OH216040   0.466   0.744   5.317
 5359TIP3    H116041   0.494   0.698   5.239
 5359TIP3    H216042   0.433   0.828   5.285
 5360TIP3   OH216043   4.081   5.744   1.293
 5360TIP3    H116044   4.166   5.721   1.331
 5360TIP3    H216045   4.084   5.710   1.204
 5361TIP3   OH216046   4.512   0.748   3.612
 5361TIP3    H116047   4.590   0.703   3.645
 5361TIP3    H216048   4.439   0.697   3.646
 5362TIP3   OH216049   0.109   0.392   5.087
 5362TIP3    H116050   0.073   0.457   5.025
 5362TIP3    H216051   0.142   0.322   5.031
 5363TIP3   OH216052   0.031   6.011   2.913
 5363TIP3    H116053   0.056   5.997   3.005
 5363TIP3    H216054  -0.053   5.967   2.905
 5364TIP3   OH216055   6.978   0.712   4.645
 5364TIP3    H116056   6.966   0.790   4.589
 5364TIP3    H216057   7.066   0.722   4.681
 5365TIP3   OH216058   3.280   4.622   3.719
 5365TIP3    H116059   3.370   4.635   3.690
 5365TIP3    H216060   3.256   4.536   3.684
 5366TIP3   OH216061   1.402   2.336   4.545
 5366TIP3    H116062   1.461   2.285   4.491
 5366TIP3    H216063   1.317   2.293   4.536
 5367TIP3   OH216064   5.280   4.405   5.489
 5367TIP3    H116065   5.252   4.317   5.465
 5367TIP3    H216066   5.362   4.392   5.536
 5368TIP3   OH216067   7.043   2.253   2.061
 5368TIP3    H116068   6.993   2.285   1.985
 5368TIP3    H216069   7.102   2.324   2.082
 5369TIP3   OH216070   2.979   6.257   2.871
 5369TIP3    H116071   2.887   6.279   2.852
 5369TIP3    H216072   2.974   6.203   2.950
 5370TIP3   OH216073   4.148   6.016   5.864
 5370TIP3    H116074   4.113   5.962   5.936
 5370TIP3    H216075   4.160   5.954   5.792
 5371TIP3   OH216076   6.709   3.580   0.016
 5371TIP3    H116077   6.650   3.628   0.073
 5371TIP3    H216078   6.665   3.580  -0.069
 5372TIP3   OH216079   3.171   6.375   3.316
 5372TIP3    H116080   3.176   6.463   3.279
 5372TIP3    H216081   3.206   6.384   3.404
 5373TIP3   OH216082   3.518   2.146   2.558
 5373TIP3    H116083   3.584   2.085   2.591
 5373TIP3    H216084   3.567   2.226   2.540
 5374TIP3   OH216085   5.984   2.576   0.553
 5374TIP3    H116086   6.007   2.566   0.645
 5374TIP3    H216087   5.889   2.565   0.551
 5375TIP3   OH216088   6.417   4.048   2.402
 5375TIP3    H116089   6.359   3.979   2.436
 5375TIP3    H216090   6.358   4.108   2.356
 5376TIP3   OH216091   0.212   0.949   4.267
 5376TIP3    H116092   0.276   0.920   4.333
 5376TIP3    H216093   0.234   1.041   4.251
 5377TIP3   OH216094   6.361   5.281   1.706
 5377TIP3    H116095   6.425   5.234   1.653
 5377TIP3    H216096   6.413   5.342   1.759
 5378TIP3   OH216097   3.879   6.042   1.429
 5378TIP3    H116098   3.857   5.954   1.462
 5378TIP3    H216099   3.812   6.060   1.363
 5379TIP3   OH216100   5.476   2.910   4.280
 5379TIP3    H116101   5.426   2.990   4.269
 5379TIP3    H216102   5.413   2.846   4.312
 5380TIP3   OH216103   6.558   1.890   1.906
 5380TIP3    H116104   6.609   1.953   1.956
 5380TIP3    H216105   6.467   1.918   1.917
 5381TIP3   OH216106   6.920   1.757   4.978
 5381TIP3    H116107   6.998   1.723   4.933
 5381TIP3    H216108   6.932   1.852   4.978
 5382TIP3   OH216109   6.004   0.813   3.821
 5382TIP3    H116110   6.056   0.824   3.741
 5382TIP3    H216111   6.033   0.884   3.878
 5383TIP3   OH216112   2.066   2.562   3.706
 5383TIP3    H116113   1.989   2.507   3.719
 5383TIP3    H216114   2.036   2.633   3.649
 5384TIP3   OH216115   5.718   0.735   0.483
 5384TIP3    H116116   5.725   0.642   0.507
 5384TIP3    H216117   5.640   0.766   0.529
 5385TIP3   OH216118   3.582   4.707   1.554
 5385TIP3    H116119   3.642   4.673   1.486
 5385TIP3    H216120   3.600   4.652   1.630
 5386TIP3   OH216121   5.618   1.563   1.309
 5386TIP3    H116122   5.685   1.587   1.372
 5386TIP3    H216123   5.536   1.566   1.359
 5387TIP3   OH216124   5.935   2.786   5.559
 5387TIP3    H116125   5.898   2.841   5.628
 5387TIP3    H216126   5.941   2.699   5.599
 5388TIP3   OH216127   2.900   3.798   0.710
 5388TIP3    H116128   2.815   3.790   0.667
 5388TIP3    H216129   2.897   3.884   0.752
 5389TIP3   OH216130   0.481   2.678   0.234
 5389TIP3    H116131   0.525   2.683   0.149
 5389TIP3    H216132   0.517   2.600   0.276
 5390TIP3   OH216133   2.092   3.116   5.591
 5390TIP3    H116134   2.027   3.167   5.639
 5390TIP3    H216135   2.171   3.169   5.592
 5391TIP3   OH216136   4.754   6.590   5.186
 5391TIP3    H116137   4.765   6.634   5.270
 5391TIP3    H216138   4.839   6.598   5.143
 5392TIP3   OH216139   4.184   3.181   3.470
 5392TIP3    H116140   4.143   3.110   3.421
 5392TIP3    H216141   4.112   3.223   3.516
 5393TIP3   OH216142   3.207   3.247   3.290
 5393TIP3    H116143   3.295   3.212   3.278
 5393TIP3    H216144   3.190   3.298   3.211
 5394TIP3   OH216145   2.141   3.462   2.026
 5394TIP3    H116146   2.058   3.416   2.012
 5394TIP3    H216147   2.207   3.393   2.028
 5395TIP3   OH216148   6.183   3.902   5.234
 5395TIP3    H116149   6.241   3.846   5.285
 5395TIP3    H216150   6.226   3.988   5.236
 5396TIP3   OH216151   1.221   1.586   1.550
 5396TIP3    H116152   1.282   1.652   1.518
 5396TIP3    H216153   1.276   1.516   1.584
 5397TIP3   OH216154   5.633   2.256   1.393
 5397TIP3    H116155   5.582   2.310   1.333
 5397TIP3    H216156   5.572   2.234   1.464
 5398TIP3   OH216157   0.983   4.606   5.871
 5398TIP3    H116158   0.897   4.567   5.888
 5398TIP3    H216159   0.964   4.682   5.817
 5399TIP3   OH216160   2.458   6.617   2.316
 5399TIP3    H116161   2.549   6.594   2.297
 5399TIP3    H216162   2.407   6.546   2.278
 5400TIP3   OH216163   4.147   0.946   3.688
 5400TIP3    H116164   4.106   1.014   3.742
 5400TIP3    H216165   4.147   0.868   3.743
 5401TIP3   OH216166   0.428   4.156   4.957
 5401TIP3    H116167   0.469   4.173   4.872
 5401TIP3    H216168   0.334   4.154   4.939
 5402TIP3   OH216169   6.783   5.671   5.904
 5402TIP3    H116170   6.708   5.664   5.846
 5402TIP3    H216171   6.859   5.648   5.849
 5403TIP3   OH216172   4.823   2.795   0.050
 5403TIP3    H116173   4.769   2.872   0.033
 5403TIP3    H216174   4.912   2.828   0.057
 5404TIP3   OH216175   4.072   5.678   5.322
 5404TIP3    H116176   4.118   5.691   5.404
 5404TIP3    H216177   4.137   5.695   5.254
 5405TIP3   OH216178   6.183   4.299   3.921
 5405TIP3    H116179   6.136   4.217   3.934
 5405TIP3    H216180   6.144   4.359   3.984
 5406TIP3   OH216181   5.706   5.726   1.174
 5406TIP3    H116182   5.776   5.671   1.211
 5406TIP3    H216183   5.739   5.751   1.087
 5407TIP3   OH216184   2.199   3.664   4.777
 5407TIP3    H116185   2.136   3.686   4.709
 5407TIP3    H216186   2.151   3.607   4.837
 5408TIP3   OH216187   0.758   6.632   1.637
 5408TIP3    H116188   0.828   6.587   1.589
 5408TIP3    H216189   0.701   6.669   1.568
 5409TIP3   OH216190   4.701   5.464   3.197
 5409TIP3    H116191   4.722   5.556   3.215
 5409TIP3    H216192   4.674   5.463   3.105
 5410TIP3   OH216193   4.753   0.027   0.839
 5410TIP3    H116194   4.745  -0.068   0.843
 5410TIP3    H216195   4.717   0.050   0.754
 5411TIP3   OH216196   6.740   6.742   4.090
 5411TIP3    H116197   6.828   6.716   4.061
 5411TIP3    H216198   6.735   6.712   4.181
 5412TIP3   OH216199   2.306   3.086   4.693
 5412TIP3    H116200   2.219   3.067   4.658
 5412TIP3    H216201   2.293   3.160   4.751
 5413TIP3   OH216202   6.600   6.001   5.048
 5413TIP3    H116203   6.628   6.038   4.965
 5413TIP3    H216204   6.533   5.937   5.024
 5414TIP3   OH216205   6.007   0.072   3.982
 5414TIP3    H116206   5.980   0.146   4.037
 5414TIP3    H216207   5.935   0.009   3.989
 5415TIP3   OH216208   4.106   6.207   5.056
 5415TIP3    H116209   4.111   6.122   5.098
 5415TIP3    H216210   4.012   6.225   5.050
 5416TIP3   OH216211   2.924   4.117   0.757
 5416TIP3    H116212   2.940   4.110   0.851
 5416TIP3    H216213   3.011   4.122   0.717
 5417TIP3   OH216214   5.865   5.377   3.472
 5417TIP3    H116215   5.844   5.290   3.440
 5417TIP3    H216216   5.824   5.437   3.409
 5418TIP3   OH216217   3.684   3.823   1.544
 5418TIP3    H116218   3.715   3.786   1.461
 5418TIP3    H216219   3.756   3.878   1.574
 5419TIP3   OH216220   1.009   5.575   3.445
 5419TIP3    H116221   1.051   5.506   3.394
 5419TIP3    H216222   1.007   5.541   3.535
 5420TIP3   OH216223   6.339   2.366   4.735
 5420TIP3    H116224   6.345   2.399   4.825
 5420TIP3    H216225   6.357   2.442   4.680
 5421TIP3   OH216226   3.155   5.158   2.035
 5421TIP3    H116227   3.092   5.226   2.060
 5421TIP3    H216228   3.181   5.181   1.946
 5422TIP3   OH216229   6.254   3.542   3.964
 5422TIP3    H116230   6.327   3.530   3.903
 5422TIP3    H216231   6.291   3.591   4.037
 5423TIP3   OH216232   4.022   5.209   2.727
 5423TIP3    H116233   4.003   5.244   2.814
 5423TIP3    H216234   3.999   5.280   2.667
 5424TIP3   OH216235   3.009   0.427   1.515
 5424TIP3    H116236   2.999   0.402   1.607
 5424TIP3    H216237   3.060   0.508   1.517
 5425TIP3   OH216238   4.538   3.406   2.554
 5425TIP3    H116239   4.572   3.436   2.638
 5425TIP3    H216240   4.602   3.437   2.490
 5426TIP3   OH216241   5.141   6.617   0.768
 5426TIP3    H116242   5.208   6.667   0.721
 5426TIP3    H216243   5.106   6.556   0.703
 5427TIP3   OH216244   2.249   2.639   2.337
 5427TIP3    H116245   2.333   2.595   2.346
 5427TIP3    H216246   2.271   2.727   2.307
 5428TIP3   OH216247   1.550   0.475   3.178
 5428TIP3    H116248   1.580   0.397   3.131
 5428TIP3    H216249   1.622   0.497   3.237
 5429TIP3   OH216250   7.188   1.826   2.791
 5429TIP3    H116251   7.210   1.889   2.723
 5429TIP3    H216252   7.217   1.742   2.755
 5430TIP3   OH216253   3.164   0.846   5.331
 5430TIP3    H116254   3.205   0.923   5.372
 5430TIP3    H216255   3.219   0.773   5.359
 5431TIP3   OH216256   6.470   4.325   0.521
 5431TIP3    H116257   6.430   4.299   0.603
 5431TIP3    H216258   6.562   4.300   0.530
 5432TIP3   OH216259   2.386   3.195   5.122
 5432TIP3    H116260   2.359   3.260   5.057
 5432TIP3    H216261   2.329   3.120   5.107
 5433TIP3   OH216262   5.994   4.902   1.367
 5433TIP3    H116263   5.959   4.979   1.412
 5433TIP3    H216264   6.038   4.937   1.290
 5434TIP3   OH216265   5.460   3.756   3.735
 5434TIP3    H116266   5.460   3.775   3.641
 5434TIP3    H216267   5.414   3.830   3.775
 5435TIP3   OH216268   5.417   6.322   3.619
 5435TIP3    H116269   5.326   6.321   3.591
 5435TIP3    H216270   5.428   6.241   3.668
 5436TIP3   OH216271   1.302   0.930   0.473
 5436TIP3    H116272   1.270   1.008   0.427
 5436TIP3    H216273   1.365   0.965   0.536
 5437TIP3   OH216274   6.265   0.316   4.205
 5437TIP3    H116275   6.199   0.274   4.260
 5437TIP3    H216276   6.219   0.389   4.163
 5438TIP3   OH216277   2.257   5.645   0.316
 5438TIP3    H116278   2.174   5.634   0.362
 5438TIP3    H216279   2.293   5.556   0.310
 5439TIP3   OH216280   3.191   3.454   3.508
 5439TIP3    H116281   3.213   3.390   3.440
 5439TIP3    H216282   3.115   3.502   3.472
 5440TIP3   OH216283   6.381   1.390   1.206
 5440TIP3    H116284   6.335   1.469   1.179
 5440TIP3    H216285   6.421   1.357   1.125
 5441TIP3   OH216286   7.064   5.703   0.650
 5441TIP3    H116287   7.012   5.701   0.731
 5441TIP3    H216288   7.152   5.680   0.678
 5442TIP3   OH216289   0.664   2.887   2.836
 5442TIP3    H116290   0.585   2.844   2.801
 5442TIP3    H216291   0.712   2.817   2.880
 5443TIP3   OH216292   2.736   0.230   5.377
 5443TIP3    H116293   2.789   0.294   5.424
 5443TIP3    H216294   2.650   0.271   5.369
 5444TIP3   OH216295   5.979   0.641   2.612
 5444TIP3    H116296   5.901   0.587   2.600
 5444TIP3    H216297   6.049   0.578   2.627
 5445TIP3   OH216298   2.893   6.416   0.407
 5445TIP3    H116299   2.802   6.385   0.412
 5445TIP3    H216300   2.894   6.474   0.331
 5446TIP3   OH216301   6.605   0.726   2.914
 5446TIP3    H116302   6.638   0.772   2.838
 5446TIP3    H216303   6.530   0.675   2.881
 5447TIP3   OH216304   2.577   5.443   4.423
 5447TIP3    H116305   2.636   5.469   4.493
 5447TIP3    H216306   2.629   5.449   4.343
 5448TIP3   OH216307   5.656   3.855   5.237
 5448TIP3    H116308   5.731   3.881   5.290
 5448TIP3    H216309   5.613   3.937   5.213
 5449TIP3   OH216310   2.179   2.025   1.368
 5449TIP3    H116311   2.164   2.111   1.407
 5449TIP3    H216312   2.249   1.986   1.420
 5450TIP3   OH216313   1.111   2.729   4.167
 5450TIP3    H116314   1.031   2.781   4.173
 5450TIP3    H216315   1.101   2.661   4.234
 5451TIP3   OH216316   4.299   4.766   1.355
 5451TIP3    H116317   4.228   4.713   1.319
 5451TIP3    H216318   4.359   4.702   1.394
 5452TIP3   OH216319   6.350   0.104   1.658
 5452TIP3    H116320   6.266   0.147   1.646
 5452TIP3    H216321   6.411   0.156   1.606
 5453TIP3   OH216322   1.667   6.300   2.589
 5453TIP3    H116323   1.631   6.271   2.673
 5453TIP3    H216324   1.640   6.233   2.526
 5454TIP3   OH216325   5.754   0.575   1.211
 5454TIP3    H116326   5.770   0.642   1.145
 5454TIP3    H216327   5.835   0.524   1.214
 5455TIP3   OH216328   0.871   5.305   3.362
 5455TIP3    H116329   0.810   5.254   3.308
 5455TIP3    H216330   0.876   5.390   3.320
 5456TIP3   OH216331   3.630   0.369   3.442
 5456TIP3    H116332   3.622   0.463   3.428
 5456TIP3    H216333   3.629   0.331   3.354
 5457TIP3   OH216334   4.744   4.557   2.933
 5457TIP3    H116335   4.786   4.477   2.900
 5457TIP3    H216336   4.720   4.536   3.023
 5458TIP3   OH216337   0.670   3.637   4.344
 5458TIP3    H116338   0.669   3.688   4.424
 5458TIP3    H216339   0.617   3.687   4.282
 5459TIP3   OH216340   4.676   6.344   4.502
 5459TIP3    H116341   4.688   6.340   4.597
 5459TIP3    H216342   4.764   6.328   4.466
 5460TIP3   OH216343   3.675   5.505   5.336
 5460TIP3    H116344   3.644   5.424   5.294
 5460TIP3    H216345   3.600   5.564   5.334
 5461TIP3   OH216346   4.682   3.450   0.722
 5461TIP3    H116347   4.675   3.535   0.678
 5461TIP3    H216348   4.761   3.457   0.775
 5462TIP3   OH216349   0.750   3.812   4.604
 5462TIP3    H116350   0.821   3.749   4.616
 5462TIP3    H216351   0.685   3.787   4.669
 5463TIP3   OH216352   2.401   3.665   0.328
 5463TIP3    H116353   2.442   3.672   0.242
 5463TIP3    H216354   2.460   3.610   0.379
 5464TIP3   OH216355   4.608   2.733   5.321
 5464TIP3    H116356   4.581   2.643   5.340
 5464TIP3    H216357   4.539   2.787   5.359
 5465TIP3   OH216358   2.853   1.272   3.178
 5465TIP3    H116359   2.891   1.250   3.093
 5465TIP3    H216360   2.776   1.215   3.184
 5466TIP3   OH216361   0.439   3.065   4.349
 5466TIP3    H116362   0.496   3.125   4.398
 5466TIP3    H216363   0.451   2.980   4.393
 5467TIP3   OH216364   1.451   5.523   2.139
 5467TIP3    H116365   1.470   5.548   2.229
 5467TIP3    H216366   1.535   5.529   2.094
 5468TIP3   OH216367   2.334   6.397   2.210
 5468TIP3    H116368   2.354   6.395   2.116
 5468TIP3    H216369   2.243   6.425   2.215
 5469TIP3   OH216370   0.493   6.767   4.414
 5469TIP3    H116371   0.463   6.716   4.339
 5469TIP3    H216372   0.462   6.718   4.490
 5470TIP3   OH216373   3.695   2.109   3.748
 5470TIP3    H116374   3.636   2.172   3.705
 5470TIP3    H216375   3.780   2.127   3.709
 5471TIP3   OH216376   2.259   6.556   3.261
 5471TIP3    H116377   2.191   6.574   3.326
 5471TIP3    H216378   2.244   6.465   3.235
 5472TIP3   OH216379   5.515   0.853   3.349
 5472TIP3    H116380   5.498   0.888   3.437
 5472TIP3    H216381   5.455   0.901   3.292
 5473TIP3   OH216382   6.846   4.526   2.939
 5473TIP3    H116383   6.792   4.578   2.998
 5473TIP3    H216384   6.909   4.483   2.997
 5474TIP3   OH216385   7.052   6.202   0.110
 5474TIP3    H116386   7.041   6.251   0.191
 5474TIP3    H216387   7.039   6.110   0.135
 5475TIP3   OH216388   2.971   1.235   1.423
 5475TIP3    H116389   2.964   1.293   1.347
 5475TIP3    H216390   3.060   1.201   1.419
 5476TIP3   OH216391   4.628   4.394   5.621
 5476TIP3    H116392   4.598   4.458   5.686
 5476TIP3    H216393   4.548   4.354   5.587
 5477TIP3   OH216394   1.627   3.714   5.855
 5477TIP3    H116395   1.712   3.673   5.867
 5477TIP3    H216396   1.579   3.655   5.797
 5478TIP3   OH216397   5.397   0.856   4.262
 5478TIP3    H116398   5.390   0.786   4.196
 5478TIP3    H216399   5.451   0.818   4.331
 5479TIP3   OH216400   3.105   0.312   0.880
 5479TIP3    H116401   3.106   0.262   0.799
 5479TIP3    H216402   3.120   0.246   0.948
 5480TIP3   OH216403   5.366   3.977   3.194
 5480TIP3    H116404   5.446   3.925   3.205
 5480TIP3    H216405   5.334   3.955   3.106
 5481TIP3   OH216406   6.423   2.568   0.811
 5481TIP3    H116407   6.369   2.540   0.885
 5481TIP3    H216408   6.512   2.540   0.833
 5482TIP3   OH216409   3.455   5.461   5.546
 5482TIP3    H116410   3.426   5.377   5.512
 5482TIP3    H216411   3.449   5.521   5.472
 5483TIP3   OH216412   3.307   3.845   3.908
 5483TIP3    H116413   3.377   3.893   3.865
 5483TIP3    H216414   3.229   3.899   3.896
 5484TIP3   OH216415   6.368   4.278   4.885
 5484TIP3    H116416   6.320   4.197   4.871
 5484TIP3    H216417   6.422   4.288   4.807
 5485TIP3   OH216418   4.600   0.053   0.582
 5485TIP3    H116419   4.521   0.105   0.570
 5485TIP3    H216420   4.583  -0.028   0.534
 5486TIP3   OH216421   4.279   5.494   5.086
 5486TIP3    H116422   4.333   5.533   5.017
 5486TIP3    H216423   4.211   5.446   5.038
 5487TIP3   OH216424   6.665   1.727   3.215
 5487TIP3    H116425   6.583   1.677   3.216
 5487TIP3    H216426   6.719   1.686   3.283
 5488TIP3   OH216427   6.279   2.017   0.163
 5488TIP3    H116428   6.343   2.085   0.144
 5488TIP3    H216429   6.267   1.971   0.080
 5489TIP3   OH216430   5.627   5.112   5.233
 5489TIP3    H116431   5.652   5.154   5.315
 5489TIP3    H216432   5.581   5.181   5.184
 5490TIP3   OH216433   3.081   2.660   4.221
 5490TIP3    H116434   3.164   2.613   4.226
 5490TIP3    H216435   3.103   2.744   4.181
 5491TIP3   OH216436   1.453   4.606   2.969
 5491TIP3    H116437   1.499   4.662   3.031
 5491TIP3    H216438   1.361   4.631   2.978
 5492TIP3   OH216439   6.844   5.283   3.873
 5492TIP3    H116440   6.887   5.253   3.792
 5492TIP3    H216441   6.770   5.336   3.843
 5493TIP3   OH216442   5.188   3.175   2.090
 5493TIP3    H116443   5.177   3.083   2.068
 5493TIP3    H216444   5.165   3.222   2.010
 5494TIP3   OH216445   6.023   2.796   0.246
 5494TIP3    H116446   5.975   2.778   0.165
 5494TIP3    H216447   5.955   2.818   0.310
 5495TIP3   OH216448   4.690   0.212   5.118
 5495TIP3    H116449   4.768   0.251   5.158
 5495TIP3    H216450   4.724   0.147   5.056
 5496TIP3   OH216451   5.744   4.564   5.259
 5496TIP3    H116452   5.766   4.517   5.339
 5496TIP3    H216453   5.749   4.497   5.190
 5497TIP3   OH216454   7.051   0.077   1.028
 5497TIP3    H116455   7.043   0.163   1.069
 5497TIP3    H216456   7.105   0.026   1.088
 5498TIP3   OH216457   4.452   1.607   5.123
 5498TIP3    H116458   4.504   1.536   5.085
 5498TIP3    H216459   4.506   1.685   5.111
 5499TIP3   OH216460   6.873   5.451   0.132
 5499TIP3    H116461   6.915   5.423   0.050
 5499TIP3    H216462   6.945   5.488   0.184
 5500TIP3   OH216463   4.348   5.872   1.355
 5500TIP3    H116464   4.425   5.929   1.347
 5500TIP3    H216465   4.276   5.924   1.319
 5501TIP3   OH216466   1.791   0.561   0.365
 5501TIP3    H116467   1.801   0.480   0.415
 5501TIP3    H216468   1.731   0.538   0.293
 5502TIP3   OH216469   1.386   2.886   0.324
 5502TIP3    H116470   1.389   2.981   0.329
 5502TIP3    H216471   1.312   2.867   0.266
 5503TIP3   OH216472   4.215   0.400   1.828
 5503TIP3    H116473   4.191   0.375   1.739
 5503TIP3    H216474   4.305   0.369   1.838
 5504TIP3   OH216475   5.428   4.194   2.470
 5504TIP3    H116476   5.427   4.274   2.417
 5504TIP3    H216477   5.371   4.134   2.423
 5505TIP3   OH216478   2.864   6.019   3.971
 5505TIP3    H116479   2.880   6.112   3.991
 5505TIP3    H216480   2.920   6.001   3.895
 5506TIP3   OH216481   0.690   3.781   3.633
 5506TIP3    H116482   0.746   3.849   3.596
 5506TIP3    H216483   0.748   3.705   3.643
 5507TIP3   OH216484   6.083   4.642   3.923
 5507TIP3    H116485   6.108   4.619   3.834
 5507TIP3    H216486   6.143   4.592   3.978
 5508TIP3   OH216487   3.216   0.033   3.749
 5508TIP3    H116488   3.258   0.074   3.825
 5508TIP3    H216489   3.138   0.086   3.733
 5509TIP3   OH216490   5.709   6.646   3.325
 5509TIP3    H116491   5.718   6.673   3.234
 5509TIP3    H216492   5.666   6.561   3.321
 5510TIP3   OH216493   0.467   4.043   1.640
 5510TIP3    H116494   0.468   4.054   1.545
 5510TIP3    H216495   0.500   3.955   1.654
 5511TIP3   OH216496   0.623   5.457   1.445
 5511TIP3    H116497   0.711   5.492   1.430
 5511TIP3    H216498   0.627   5.421   1.533
 5512TIP3   OH216499   0.014   2.556   4.520
 5512TIP3    H116500   0.028   2.545   4.426
 5512TIP3    H216501  -0.037   2.479   4.546
 5513TIP3   OH216502   3.236   4.861   1.180
 5513TIP3    H116503   3.152   4.824   1.206
 5513TIP3    H216504   3.294   4.842   1.254
 5514TIP3   OH216505   6.406   2.521   4.237
 5514TIP3    H116506   6.407   2.584   4.165
 5514TIP3    H216507   6.478   2.462   4.219
 5515TIP3   OH216508   5.226   2.281   1.277
 5515TIP3    H116509   5.147   2.282   1.223
 5515TIP3    H216510   5.240   2.188   1.297
 5516TIP3   OH216511   4.209   6.691   4.558
 5516TIP3    H116512   4.196   6.621   4.494
 5516TIP3    H216513   4.131   6.745   4.551
 5517TIP3   OH216514   6.751   2.806   0.760
 5517TIP3    H116515   6.759   2.729   0.704
 5517TIP3    H216516   6.667   2.845   0.734
 5518TIP3   OH216517   3.649   2.721   1.203
 5518TIP3    H116518   3.704   2.652   1.239
 5518TIP3    H216519   3.571   2.720   1.258
 5519TIP3   OH216520   0.580   4.325   1.375
 5519TIP3    H116521   0.545   4.238   1.395
 5519TIP3    H216522   0.675   4.315   1.385
 5520TIP3   OH216523   1.487   0.187   2.456
 5520TIP3    H116524   1.540   0.126   2.404
 5520TIP3    H216525   1.477   0.263   2.400
 5521TIP3   OH216526   2.150   5.591   2.325
 5521TIP3    H116527   2.076   5.653   2.319
 5521TIP3    H216528   2.184   5.603   2.413
 5522TIP3   OH216529   3.654   1.282   4.578
 5522TIP3    H116530   3.634   1.366   4.537
 5522TIP3    H216531   3.729   1.301   4.635
 5523TIP3   OH216532   5.505   6.059   3.705
 5523TIP3    H116533   5.462   5.973   3.704
 5523TIP3    H216534   5.598   6.039   3.705
 5524TIP3   OH216535   0.500   2.645   5.654
 5524TIP3    H116536   0.429   2.581   5.651
 5524TIP3    H216537   0.568   2.607   5.598
 5525TIP3   OH216538   6.837   5.763   1.365
 5525TIP3    H116539   6.866   5.672   1.354
 5525TIP3    H216540   6.915   5.816   1.348
 5526TIP3   OH216541   6.558   0.782   0.267
 5526TIP3    H116542   6.610   0.788   0.346
 5526TIP3    H216543   6.600   0.713   0.215
 5527TIP3   OH216544   4.906   2.076   5.341
 5527TIP3    H116545   4.925   2.169   5.338
 5527TIP3    H216546   4.928   2.049   5.430
 5528TIP3   OH216547   4.852   6.793   5.392
 5528TIP3    H116548   4.932   6.807   5.341
 5528TIP3    H216549   4.878   6.729   5.458
 5529TIP3   OH216550   3.833   5.521   5.043
 5529TIP3    H116551   3.831   5.608   5.002
 5529TIP3    H216552   3.862   5.538   5.133
 5530TIP3   OH216553   2.567   2.380   4.601
 5530TIP3    H116554   2.536   2.466   4.629
 5530TIP3    H216555   2.656   2.395   4.567
 5531TIP3   OH216556   2.165   5.812   4.527
 5531TIP3    H116557   2.230   5.842   4.591
 5531TIP3    H216558   2.208   5.739   4.482
 5532TIP3   OH216559   6.955   2.877   0.488
 5532TIP3    H116560   6.975   2.945   0.424
 5532TIP3    H216561   6.861   2.886   0.504
 5533TIP3   OH216562   3.441   3.533   3.611
 5533TIP3    H116563   3.349   3.528   3.583
 5533TIP3    H216564   3.474   3.444   3.602
 5534TIP3   OH216565   1.422   3.881   3.144
 5534TIP3    H116566   1.457   3.836   3.221
 5534TIP3    H216567   1.372   3.814   3.098
 5535TIP3   OH216568   0.399   1.179   1.794
 5535TIP3    H116569   0.467   1.152   1.732
 5535TIP3    H216570   0.325   1.120   1.776
 5536TIP3   OH216571   0.884   0.964   5.280
 5536TIP3    H116572   0.917   0.922   5.359
 5536TIP3    H216573   0.940   0.931   5.210
 5537TIP3   OH216574   4.104   2.747   1.410
 5537TIP3    H116575   4.022   2.780   1.446
 5537TIP3    H216576   4.126   2.671   1.464
 5538TIP3   OH216577   2.318   5.716   3.669
 5538TIP3    H116578   2.407   5.695   3.696
 5538TIP3    H216579   2.265   5.700   3.748
 5539TIP3   OH216580   2.412   6.431   4.563
 5539TIP3    H116581   2.342   6.460   4.504
 5539TIP3    H216582   2.451   6.356   4.519
 5540TIP3   OH216583   0.250   5.669   2.641
 5540TIP3    H116584   0.327   5.612   2.641
 5540TIP3    H216585   0.237   5.690   2.549
 5541TIP3   OH216586   5.367   4.552   2.567
 5541TIP3    H116587   5.411   4.617   2.623
 5541TIP3    H216588   5.306   4.603   2.514
 5542TIP3   OH216589   7.053   4.856   1.892
 5542TIP3    H116590   6.991   4.895   1.830
 5542TIP3    H216591   7.069   4.768   1.859
 5543TIP3   OH216592   6.257   3.160   0.199
 5543TIP3    H116593   6.215   3.132   0.280
 5543TIP3    H216594   6.185   3.171   0.137
 5544TIP3   OH216595   6.532   6.288   1.173
 5544TIP3    H116596   6.523   6.325   1.261
 5544TIP3    H216597   6.523   6.363   1.115
 5545TIP3   OH216598   4.550   5.425   4.710
 5545TIP3    H116599   4.571   5.402   4.800
 5545TIP3    H216600   4.545   5.520   4.710
 5546TIP3   OH216601   0.415   6.030   2.033
 5546TIP3    H116602   0.402   5.947   1.986
 5546TIP3    H216603   0.492   6.015   2.087
 5547TIP3   OH216604   2.842   3.709   1.675
 5547TIP3    H116605   2.748   3.705   1.694
 5547TIP3    H216606   2.847   3.755   1.591
 5548TIP3   OH216607   3.720   5.478   1.326
 5548TIP3    H116608   3.671   5.399   1.307
 5548TIP3    H216609   3.809   5.459   1.297
 5549TIP3   OH216610   3.860   4.049   1.475
 5549TIP3    H116611   3.904   4.107   1.536
 5549TIP3    H216612   3.930   4.000   1.432
 5550TIP3   OH216613   0.582   5.638   0.675
 5550TIP3    H116614   0.610   5.642   0.583
 5550TIP3    H216615   0.658   5.667   0.725
 5551TIP3   OH216616   6.232   6.150   0.395
 5551TIP3    H116617   6.221   6.057   0.413
 5551TIP3    H216618   6.318   6.172   0.431
 5552TIP3   OH216619   5.184   4.691   2.417
 5552TIP3    H116620   5.139   4.725   2.339
 5552TIP3    H216621   5.114   4.652   2.469
 5553TIP3   OH216622   6.251   1.202   3.171
 5553TIP3    H116623   6.342   1.195   3.201
 5553TIP3    H216624   6.249   1.149   3.091
 5554TIP3   OH216625   1.812   3.740   5.422
 5554TIP3    H116626   1.847   3.820   5.461
 5554TIP3    H216627   1.748   3.770   5.358
 5555TIP3   OH216628   1.098   0.684   5.808
 5555TIP3    H116629   1.028   0.749   5.797
 5555TIP3    H216630   1.178   0.731   5.784
 5556TIP3   OH216631   6.317   6.552   3.769
 5556TIP3    H116632   6.374   6.510   3.833
 5556TIP3    H216633   6.339   6.510   3.686
 5557TIP3   OH216634   6.958   3.930   1.701
 5557TIP3    H116635   6.952   3.841   1.666
 5557TIP3    H216636   6.915   3.924   1.787
 5558TIP3   OH216637   1.321   1.584   3.313
 5558TIP3    H116638   1.384   1.656   3.303
 5558TIP3    H216639   1.375   1.508   3.332
 5559TIP3   OH216640   4.587   5.750   1.249
 5559TIP3    H116641   4.564   5.658   1.236
 5559TIP3    H216642   4.522   5.782   1.312
 5560TIP3   OH216643   5.051   2.617   2.751
 5560TIP3    H116644   5.121   2.606   2.815
 5560TIP3    H216645   5.074   2.556   2.680
 5561TIP3   OH216646   4.021   3.841   4.967
 5561TIP3    H116647   4.103   3.888   4.952
 5561TIP3    H216648   4.048   3.761   5.012
 5562TIP3   OH216649   4.065   2.125   3.055
 5562TIP3    H116650   3.976   2.144   3.024
 5562TIP3    H216651   4.122   2.154   2.984
 5563TIP3   OH216652   5.463   2.086   2.837
 5563TIP3    H116653   5.422   2.057   2.755
 5563TIP3    H216654   5.400   2.147   2.875
 5564TIP3   OH216655   4.501   4.956   0.876
 5564TIP3    H116656   4.476   4.895   0.945
 5564TIP3    H216657   4.553   5.023   0.920
 5565TIP3   OH216658   1.709   5.220   2.484
 5565TIP3    H116659   1.777   5.287   2.474
 5565TIP3    H216660   1.679   5.228   2.574
 5566TIP3   OH216661   5.673   1.776   4.834
 5566TIP3    H116662   5.692   1.806   4.745
 5566TIP3    H216663   5.745   1.810   4.887
 5567TIP3   OH216664   6.069   2.684   3.571
 5567TIP3    H116665   6.062   2.590   3.586
 5567TIP3    H216666   6.143   2.711   3.626
 5568TIP3   OH216667   1.057   6.435   5.559
 5568TIP3    H116668   1.138   6.386   5.567
 5568TIP3    H216669   0.994   6.385   5.611
 5569TIP3   OH216670   2.645   0.367   3.465
 5569TIP3    H116671   2.636   0.291   3.523
 5569TIP3    H216672   2.555   0.399   3.454
 5570TIP3   OH216673   7.088   6.237   5.091
 5570TIP3    H116674   7.077   6.330   5.110
 5570TIP3    H216675   7.016   6.194   5.139
 5571TIP3   OH216676   7.159   6.299   5.442
 5571TIP3    H116677   7.181   6.212   5.476
 5571TIP3    H216678   7.071   6.289   5.406
 5572TIP3   OH216679   1.036   3.799   1.284
 5572TIP3    H116680   0.953   3.751   1.283
 5572TIP3    H216681   1.103   3.730   1.286
 5573TIP3   OH216682   0.108   4.127   5.739
 5573TIP3    H116683   0.150   4.049   5.774
 5573TIP3    H216684   0.066   4.168   5.814
 5574TIP3   OH216685   4.707   2.316   5.594
 5574TIP3    H116686   4.663   2.301   5.678
 5574TIP3    H216687   4.652   2.381   5.550
 5575TIP3   OH216688   1.834   6.216   3.472
 5575TIP3    H116689   1.745   6.237   3.501
 5575TIP3    H216690   1.822   6.170   3.389
 5576TIP3   OH216691   5.462   6.665   0.910
 5576TIP3    H116692   5.390   6.668   0.973
 5576TIP3    H216693   5.539   6.695   0.959
 5577TIP3   OH216694   4.510   6.776   1.446
 5577TIP3    H116695   4.521   6.696   1.498
 5577TIP3    H216696   4.599   6.800   1.421
 5578TIP3   OH216697   3.093   2.989   1.650
 5578TIP3    H116698   3.001   2.974   1.627
 5578TIP3    H216699   3.114   3.074   1.612
 5579TIP3   OH216700   2.945   2.925   1.344
 5579TIP3    H116701   2.863   2.960   1.310
 5579TIP3    H216702   2.938   2.934   1.439
 5580TIP3   OH216703   3.361   0.732   0.613
 5580TIP3    H116704   3.269   0.716   0.635
 5580TIP3    H216705   3.405   0.739   0.697
 5581TIP3   OH216706   4.608   2.167   5.244
 5581TIP3    H116707   4.647   2.232   5.186
 5581TIP3    H216708   4.668   2.163   5.319
 5582TIP3   OH216709   0.877   2.223   0.634
 5582TIP3    H116710   0.883   2.313   0.667
 5582TIP3    H216711   0.791   2.219   0.592
 5583TIP3   OH216712   1.983   4.665   4.469
 5583TIP3    H116713   2.068   4.675   4.427
 5583TIP3    H216714   1.976   4.739   4.528
 5584TIP3   OH216715   6.151   5.600   3.329
 5584TIP3    H116716   6.229   5.614   3.276
 5584TIP3    H216717   6.078   5.613   3.269
 5585TIP3   OH216718   4.658   2.040   3.058
 5585TIP3    H116719   4.678   2.132   3.069
 5585TIP3    H216720   4.562   2.036   3.060
 5586TIP3   OH216721   0.546   1.694   2.509
 5586TIP3    H116722   0.605   1.768   2.520
 5586TIP3    H216723   0.458   1.733   2.511
 5587TIP3   OH216724   3.111   2.238   2.417
 5587TIP3    H116725   3.118   2.330   2.391
 5587TIP3    H216726   3.137   2.237   2.509
 5588TIP3   OH216727   2.462   1.614   1.468
 5588TIP3    H116728   2.527   1.625   1.399
 5588TIP3    H216729   2.439   1.703   1.495
 5589TIP3   OH216730   3.106   5.374   1.240
 5589TIP3    H116731   3.138   5.454   1.282
 5589TIP3    H216732   3.084   5.401   1.151
 5590TIP3   OH216733   5.859   1.103   1.707
 5590TIP3    H116734   5.928   1.042   1.680
 5590TIP3    H216735   5.893   1.189   1.684
 5591TIP3   OH216736   3.205   6.533   1.816
 5591TIP3    H116737   3.272   6.597   1.840
 5591TIP3    H216738   3.164   6.570   1.737
 5592TIP3   OH216739   3.470   0.526   4.034
 5592TIP3    H116740   3.435   0.439   4.012
 5592TIP3    H216741   3.510   0.556   3.952
 5593TIP3   OH216742   6.883   1.936   3.638
 5593TIP3    H116743   6.921   2.006   3.691
 5593TIP3    H216744   6.954   1.874   3.625
 5594TIP3   OH216745   0.774   0.586   5.432
 5594TIP3    H116746   0.774   0.642   5.354
 5594TIP3    H216747   0.768   0.648   5.505
 5595TIP3   OH216748   1.926   6.463   1.535
 5595TIP3    H116749   1.988   6.528   1.567
 5595TIP3    H216750   1.866   6.449   1.609
 5596TIP3   OH216751   0.648   5.887   5.696
 5596TIP3    H116752   0.706   5.944   5.646
 5596TIP3    H216753   0.697   5.866   5.776
 5597TIP3   OH216754   2.654   3.372   1.966
 5597TIP3    H116755   2.710   3.305   2.006
 5597TIP3    H216756   2.711   3.448   1.957
 5598TIP3   OH216757   1.202   4.737   3.340
 5598TIP3    H116758   1.106   4.747   3.337
 5598TIP3    H216759   1.229   4.796   3.411
 5599TIP3   OH216760   5.573   3.606   1.793
 5599TIP3    H116761   5.572   3.645   1.706
 5599TIP3    H216762   5.555   3.513   1.777
 5600TIP3   OH216763   4.754   6.096   3.484
 5600TIP3    H116764   4.693   6.027   3.459
 5600TIP3    H216765   4.812   6.055   3.548
 5601TIP3   OH216766   0.928   2.384   1.348
 5601TIP3    H116767   1.019   2.388   1.375
 5601TIP3    H216768   0.914   2.465   1.299
 5602TIP3   OH216769   3.490   5.865   4.509
 5602TIP3    H116770   3.488   5.956   4.539
 5602TIP3    H216771   3.557   5.823   4.563
 5603TIP3   OH216772   1.622   3.149   2.016
 5603TIP3    H116773   1.534   3.187   2.010
 5603TIP3    H216774   1.669   3.185   1.940
 5604TIP3   OH216775   4.920   4.537   3.925
 5604TIP3    H116776   4.938   4.603   3.992
 5604TIP3    H216777   4.853   4.480   3.963
 5605TIP3   OH216778   6.214   1.411   4.154
 5605TIP3    H116779   6.279   1.361   4.104
 5605TIP3    H216780   6.182   1.476   4.092
 5606TIP3   OH216781   0.982   0.449   5.581
 5606TIP3    H116782   0.902   0.476   5.536
 5606TIP3    H216783   1.049   0.507   5.547
 5607TIP3   OH216784   1.561   1.519   1.856
 5607TIP3    H116785   1.508   1.463   1.912
 5607TIP3    H216786   1.573   1.600   1.907
 5608TIP3   OH216787   2.012   1.534   0.246
 5608TIP3    H116788   2.035   1.556   0.336
 5608TIP3    H216789   2.064   1.594   0.193
 5609TIP3   OH216790   2.524   5.117   1.432
 5609TIP3    H116791   2.455   5.097   1.495
 5609TIP3    H216792   2.531   5.037   1.379
 5610TIP3   OH216793   6.413   6.154   3.412
 5610TIP3    H116794   6.470   6.210   3.361
 5610TIP3    H216795   6.328   6.159   3.367
 5611TIP3   OH216796   0.892   2.251   2.374
 5611TIP3    H116797   0.826   2.317   2.356
 5611TIP3    H216798   0.852   2.168   2.347
 5612TIP3   OH216799   4.716   6.045   1.644
 5612TIP3    H116800   4.668   5.968   1.673
 5612TIP3    H216801   4.766   6.015   1.568
 5613TIP3   OH216802   4.405   5.745   0.853
 5613TIP3    H116803   4.356   5.787   0.923
 5613TIP3    H216804   4.492   5.786   0.857
 5614TIP3   OH216805   6.260   5.035   2.392
 5614TIP3    H116806   6.218   5.058   2.475
 5614TIP3    H216807   6.189   4.999   2.339
 5615TIP3   OH216808   5.581   0.523   2.257
 5615TIP3    H116809   5.599   0.604   2.305
 5615TIP3    H216810   5.627   0.533   2.174
 5616TIP3   OH216811   1.125   5.076   0.028
 5616TIP3    H116812   1.031   5.085   0.010
 5616TIP3    H216813   1.134   5.102   0.120
 5617TIP3   OH216814   5.415   5.041   0.674
 5617TIP3    H116815   5.351   4.993   0.621
 5617TIP3    H216816   5.398   5.013   0.763
 5618TIP3   OH216817   0.541   2.388   5.219
 5618TIP3    H116818   0.485   2.433   5.157
 5618TIP3    H216819   0.596   2.457   5.257
 5619TIP3   OH216820   5.992   1.652   3.296
 5619TIP3    H116821   6.034   1.737   3.307
 5619TIP3    H216822   6.051   1.604   3.237
 5620TIP3   OH216823   2.640   1.208   4.408
 5620TIP3    H116824   2.650   1.262   4.329
 5620TIP3    H216825   2.551   1.227   4.439
 5621TIP3   OH216826   2.245   3.729   2.900
 5621TIP3    H116827   2.309   3.796   2.873
 5621TIP3    H216828   2.299   3.658   2.934
 5622TIP3   OH216829   4.749   5.811   4.245
 5622TIP3    H116830   4.792   5.725   4.245
 5622TIP3    H216831   4.662   5.794   4.211
 5623TIP3   OH216832   3.579   2.096   4.973
 5623TIP3    H116833   3.549   2.016   4.930
 5623TIP3    H216834   3.667   2.074   5.006
 5624TIP3   OH216835   6.395   4.277   0.775
 5624TIP3    H116836   6.413   4.247   0.864
 5624TIP3    H216837   6.358   4.365   0.785
 5625TIP3   OH216838   1.409   4.657   1.089
 5625TIP3    H116839   1.412   4.700   1.175
 5625TIP3    H216840   1.400   4.729   1.027
 5626TIP3   OH216841   3.889   4.703   4.276
 5626TIP3    H116842   3.979   4.733   4.273
 5626TIP3    H216843   3.858   4.708   4.185
 5627TIP3   OH216844   2.439   2.443   0.643
 5627TIP3    H116845   2.408   2.379   0.708
 5627TIP3    H216846   2.398   2.525   0.669
 5628TIP3   OH216847   2.698   6.469   1.145
 5628TIP3    H116848   2.689   6.418   1.225
 5628TIP3    H216849   2.774   6.526   1.161
 5629TIP3   OH216850   3.441   2.932   4.661
 5629TIP3    H116851   3.485   3.006   4.619
 5629TIP3    H216852   3.410   2.967   4.745
 5630TIP3   OH216853   6.210   2.640   0.404
 5630TIP3    H116854   6.147   2.630   0.475
 5630TIP3    H216855   6.171   2.705   0.346
 5631TIP3   OH216856   3.874   3.481   0.241
 5631TIP3    H116857   3.804   3.547   0.235
 5631TIP3    H216858   3.840   3.415   0.300
 5632TIP3   OH216859   0.684   4.344   4.814
 5632TIP3    H116860   0.692   4.249   4.813
 5632TIP3    H216861   0.595   4.361   4.782
 5633TIP3   OH216862   1.837   2.498   5.143
 5633TIP3    H116863   1.792   2.552   5.078
 5633TIP3    H216864   1.906   2.454   5.093
 5634TIP3   OH216865   5.631   6.139   0.843
 5634TIP3    H116866   5.696   6.092   0.790
 5634TIP3    H216867   5.664   6.132   0.933
 5635TIP3   OH216868   4.316   2.936   1.770
 5635TIP3    H116869   4.325   2.944   1.675
 5635TIP3    H216870   4.222   2.947   1.786
 5636TIP3   OH216871   6.130   3.540   4.683
 5636TIP3    H116872   6.151   3.630   4.709
 5636TIP3    H216873   6.057   3.549   4.621
 5637TIP3   OH216874   3.809   1.804   4.966
 5637TIP3    H116875   3.715   1.803   4.948
 5637TIP3    H216876   3.848   1.847   4.890
 5638TIP3   OH216877   6.745   2.071   3.453
 5638TIP3    H116878   6.786   2.008   3.511
 5638TIP3    H216879   6.786   2.056   3.368
 5639TIP3   OH216880   2.176   2.286   1.480
 5639TIP3    H116881   2.109   2.297   1.548
 5639TIP3    H216882   2.171   2.367   1.429
 5640TIP3   OH216883   6.610   3.979   3.950
 5640TIP3    H116884   6.523   4.006   3.922
 5640TIP3    H216885   6.648   4.058   3.988
 5641TIP3   OH216886   0.824   4.042   2.926
 5641TIP3    H116887   0.838   3.995   2.844
 5641TIP3    H216888   0.872   3.992   2.991
 5642TIP3   OH216889   5.027   4.972   3.435
 5642TIP3    H116890   5.065   5.043   3.383
 5642TIP3    H216891   4.933   4.992   3.438
 5643TIP3   OH216892   0.707   4.678   1.186
 5643TIP3    H116893   0.717   4.585   1.167
 5643TIP3    H216894   0.775   4.696   1.251
 5644TIP3   OH216895   2.706   5.534   4.640
 5644TIP3    H116896   2.774   5.573   4.694
 5644TIP3    H216897   2.625   5.551   4.688
 5645TIP3   OH216898   0.934   4.820   5.110
 5645TIP3    H116899   1.030   4.821   5.115
 5645TIP3    H216900   0.915   4.759   5.039
 5646TIP3   OH216901   3.979   1.677   5.149
 5646TIP3    H116902   3.915   1.729   5.100
 5646TIP3    H216903   4.058   1.682   5.096
 5647TIP3   OH216904   6.470   5.848   0.553
 5647TIP3    H116905   6.564   5.868   0.555
 5647TIP3    H216906   6.432   5.905   0.620
 5648TIP3   OH216907   5.334   5.785   2.434
 5648TIP3    H116908   5.271   5.718   2.409
 5648TIP3    H216909   5.415   5.737   2.451
 5649TIP3   OH216910   7.176   2.606   0.887
 5649TIP3    H116911   7.137   2.619   0.973
 5649TIP3    H216912   7.113   2.644   0.826
 5650TIP3   OH216913   6.463   3.333   1.527
 5650TIP3    H116914   6.455   3.267   1.596
 5650TIP3    H216915   6.424   3.412   1.564
 5651TIP3   OH216916   0.330   5.442   5.082
 5651TIP3    H116917   0.260   5.379   5.096
 5651TIP3    H216918   0.333   5.454   4.988
 5652TIP3   OH216919   2.884   1.248   5.723
 5652TIP3    H116920   2.938   1.267   5.646
 5652TIP3    H216921   2.940   1.196   5.780
 5653TIP3   OH216922   4.690   1.155   4.268
 5653TIP3    H116923   4.626   1.100   4.312
 5653TIP3    H216924   4.724   1.101   4.197
 5654TIP3   OH216925   2.337   2.550   2.757
 5654TIP3    H116926   2.364   2.483   2.694
 5654TIP3    H216927   2.392   2.625   2.736
 5655TIP3   OH216928   4.114   0.624   3.278
 5655TIP3    H116929   4.051   0.599   3.345
 5655TIP3    H216930   4.198   0.589   3.309
 5656TIP3   OH216931   0.525   1.864   5.130
 5656TIP3    H116932   0.458   1.919   5.169
 5656TIP3    H216933   0.505   1.776   5.160
 5657TIP3   OH216934   1.588   1.294   5.703
 5657TIP3    H116935   1.660   1.234   5.690
 5657TIP3    H216936   1.572   1.332   5.616
 5658TIP3   OH216937   4.910   4.504   2.013
 5658TIP3    H116938   4.815   4.493   2.019
 5658TIP3    H216939   4.938   4.526   2.101
 5659TIP3   OH216940   1.013   1.372   1.607
 5659TIP3    H116941   1.018   1.339   1.697
 5659TIP3    H216942   1.056   1.457   1.610
 5660TIP3   OH216943   3.495   1.450   5.411
 5660TIP3    H116944   3.442   1.528   5.390
 5660TIP3    H216945   3.585   1.477   5.393
 5661TIP3   OH216946   4.148   0.127   2.527
 5661TIP3    H116947   4.218   0.088   2.474
 5661TIP3    H216948   4.124   0.207   2.481
 5662TIP3   OH216949   6.743   1.411   1.119
 5662TIP3    H116950   6.685   1.487   1.114
 5662TIP3    H216951   6.717   1.366   1.200
 5663TIP3   OH216952   1.445   3.305   4.234
 5663TIP3    H116953   1.540   3.309   4.231
 5663TIP3    H216954   1.419   3.267   4.150
 5664TIP3   OH216955   0.303   0.922   1.369
 5664TIP3    H116956   0.276   0.890   1.283
 5664TIP3    H216957   0.361   0.996   1.351
 5665TIP3   OH216958   1.634   1.615   5.757
 5665TIP3    H116959   1.694   1.644   5.689
 5665TIP3    H216960   1.657   1.667   5.834
 5666TIP3   OH216961   5.147   1.671   1.519
 5666TIP3    H116962   5.155   1.662   1.424
 5666TIP3    H216963   5.074   1.732   1.531
 5667TIP3   OH216964   1.768   5.169   3.667
 5667TIP3    H116965   1.847   5.159   3.614
 5667TIP3    H216966   1.789   5.127   3.750
 5668TIP3   OH216967   5.095   5.511   0.947
 5668TIP3    H116968   5.166   5.456   0.979
 5668TIP3    H216969   5.139   5.590   0.914
 5669TIP3   OH216970   2.141   6.020   4.359
 5669TIP3    H116971   2.147   6.091   4.424
 5669TIP3    H216972   2.156   5.940   4.409
 5670TIP3   OH216973   5.462   5.601   1.058
 5670TIP3    H116974   5.419   5.593   1.144
 5670TIP3    H216975   5.552   5.627   1.079
 5671TIP3   OH216976   2.263   2.984   3.991
 5671TIP3    H116977   2.230   3.074   3.995
 5671TIP3    H216978   2.202   2.934   4.046
 5672TIP3   OH216979   3.736   4.972   1.075
 5672TIP3    H116980   3.684   4.964   1.155
 5672TIP3    H216981   3.766   4.882   1.058
 5673TIP3   OH216982   5.032   4.551   1.718
 5673TIP3    H116983   4.990   4.586   1.797
 5673TIP3    H216984   4.986   4.469   1.701
 5674TIP3   OH216985   0.695   6.363   1.437
 5674TIP3    H116986   0.677   6.277   1.475
 5674TIP3    H216987   0.637   6.422   1.485
 5675TIP3   OH216988   2.577   4.004   5.313
 5675TIP3    H116989   2.533   4.087   5.332
 5675TIP3    H216990   2.669   4.020   5.334
 5676TIP3   OH216991   0.678   4.910   3.144
 5676TIP3    H116992   0.597   4.957   3.123
 5676TIP3    H216993   0.662   4.820   3.113
 5677TIP3   OH216994   6.751   3.219   4.587
 5677TIP3    H116995   6.691   3.292   4.602
 5677TIP3    H216996   6.694   3.148   4.555
 5678TIP3   OH216997   5.737   1.190   1.261
 5678TIP3    H116998   5.788   1.110   1.274
 5678TIP3    H216999   5.802   1.256   1.238
 5679TIP3   OH217000   2.139   5.273   4.669
 5679TIP3    H117001   2.130   5.334   4.595
 5679TIP3    H217002   2.225   5.234   4.657
 5680TIP3   OH217003   5.376   4.791   5.596
 5680TIP3    H117004   5.326   4.726   5.646
 5680TIP3    H217005   5.466   4.759   5.597
 5681TIP3   OH217006   1.928   5.526   0.918
 5681TIP3    H117007   1.838   5.556   0.907
 5681TIP3    H217008   1.942   5.523   1.013
 5682TIP3   OH217009   0.825   3.845   5.011
 5682TIP3    H117010   0.776   3.769   4.980
 5682TIP3    H217011   0.803   3.914   4.949
 5683TIP3   OH217012   0.178   5.584   0.152
 5683TIP3    H117013   0.112   5.541   0.207
 5683TIP3    H217014   0.174   5.676   0.177
 5684TIP3   OH217015   3.141   4.397   3.638
 5684TIP3    H117016   3.185   4.336   3.579
 5684TIP3    H217017   3.144   4.354   3.724
 5685TIP3   OH217018   2.001   4.637   5.662
 5685TIP3    H117019   1.928   4.577   5.647
 5685TIP3    H217020   1.997   4.698   5.589
 5686TIP3   OH217021   5.043   2.104   0.661
 5686TIP3    H117022   5.013   2.145   0.741
 5686TIP3    H217023   5.118   2.157   0.633
 5687TIP3   OH217024   5.272   5.806   0.916
 5687TIP3    H117025   5.314   5.892   0.921
 5687TIP3    H217026   5.342   5.747   0.890
 5688TIP3   OH217027   3.096   2.730   4.587
 5688TIP3    H117028   3.107   2.741   4.681
 5688TIP3    H217029   3.048   2.648   4.577
 5689TIP3   OH217030   3.106   3.227   0.029
 5689TIP3    H117031   3.031   3.213   0.086
 5689TIP3    H217032   3.168   3.159   0.054
 5690TIP3   OH217033   6.569   5.457   0.124
 5690TIP3    H117034   6.590   5.481   0.214
 5690TIP3    H217035   6.654   5.451   0.080
 5691TIP3   OH217036   6.828   2.669   5.514
 5691TIP3    H117037   6.887   2.667   5.439
 5691TIP3    H217038   6.747   2.707   5.480
 5692TIP3   OH217039   1.248   4.536   4.923
 5692TIP3    H117040   1.315   4.477   4.957
 5692TIP3    H217041   1.253   4.613   4.981
 5693TIP3   OH217042   6.852   0.073   1.886
 5693TIP3    H117043   6.871   0.164   1.907
 5693TIP3    H217044   6.757   0.065   1.894
 5694TIP3   OH217045   3.091   4.823   2.995
 5694TIP3    H117046   3.050   4.894   2.945
 5694TIP3    H217047   3.063   4.743   2.951
 5695TIP3   OH217048   0.128   2.394   0.905
 5695TIP3    H117049   0.099   2.483   0.888
 5695TIP3    H217050   0.063   2.358   0.965
 5696TIP3   OH217051   6.319   3.344   5.687
 5696TIP3    H117052   6.385   3.400   5.647
 5696TIP3    H217053   6.258   3.325   5.616
 5697TIP3   OH217054   0.404   0.394   5.168
 5697TIP3    H117055   0.309   0.400   5.180
 5697TIP3    H217056   0.440   0.416   5.254
 5698TIP3   OH217057   4.389   4.480   2.738
 5698TIP3    H117058   4.373   4.551   2.800
 5698TIP3    H217059   4.485   4.472   2.735
 5699TIP3   OH217060   4.342   5.440   4.439
 5699TIP3    H117061   4.270   5.490   4.402
 5699TIP3    H217062   4.360   5.481   4.524
 5700TIP3   OH217063   3.936   1.015   2.550
 5700TIP3    H117064   3.868   1.011   2.483
 5700TIP3    H217065   3.955   1.108   2.560
 5701TIP3   OH217066   3.722   1.405   1.006
 5701TIP3    H117067   3.793   1.379   0.949
 5701TIP3    H217068   3.667   1.327   1.014
 5702TIP3   OH217069   3.874   6.454   2.292
 5702TIP3    H117070   3.924   6.424   2.217
 5702TIP3    H217071   3.934   6.511   2.340
 5703TIP3   OH217072   3.829   1.033   4.431
 5703TIP3    H117073   3.892   1.103   4.418
 5703TIP3    H217074   3.803   1.039   4.523
 5704TIP3   OH217075   2.711   0.949   4.342
 5704TIP3    H117076   2.784   1.005   4.316
 5704TIP3    H217077   2.643   1.009   4.373
 5705TIP3   OH217078   0.622   2.571   0.481
 5705TIP3    H117079   0.565   2.495   0.467
 5705TIP3    H217080   0.633   2.575   0.576
 5706TIP3   OH217081   3.107   0.141   3.242
 5706TIP3    H117082   3.034   0.201   3.251
 5706TIP3    H217083   3.121   0.133   3.148
 5707TIP3   OH217084   1.339   1.948   1.681
 5707TIP3    H117085   1.407   1.881   1.691
 5707TIP3    H217086   1.299   1.956   1.768
 5708TIP3   OH217087   5.757   4.333   5.576
 5708TIP3    H117088   5.778   4.315   5.484
 5708TIP3    H217089   5.782   4.253   5.622
 5709TIP3   OH217090   4.050   3.459   4.861
 5709TIP3    H117091   3.958   3.466   4.888
 5709TIP3    H217092   4.047   3.457   4.765
 5710TIP3   OH217093   4.541   6.597   2.331
 5710TIP3    H117094   4.596   6.597   2.409
 5710TIP3    H217095   4.598   6.627   2.260
 5711TIP3   OH217096   0.988   0.702   3.330
 5711TIP3    H117097   1.041   0.634   3.372
 5711TIP3    H217098   1.017   0.784   3.371
 5712TIP3   OH217099   3.545   2.936   1.403
 5712TIP3    H117100   3.572   3.024   1.376
 5712TIP3    H217101   3.463   2.920   1.356
 5713TIP3   OH217102   3.177   4.149   1.269
 5713TIP3    H117103   3.243   4.080   1.278
 5713TIP3    H217104   3.180   4.196   1.352
 5714TIP3   OH217105   6.311   1.759   1.790
 5714TIP3    H117106   6.283   1.695   1.856
 5714TIP3    H217107   6.245   1.827   1.792
 5715TIP3   OH217108   4.618   6.347   3.547
 5715TIP3    H117109   4.637   6.265   3.502
 5715TIP3    H217110   4.619   6.414   3.478
 5716TIP3   OH217111   0.622   5.612   2.866
 5716TIP3    H117112   0.629   5.518   2.847
 5716TIP3    H217113   0.682   5.626   2.939
 5717TIP3   OH217114   4.426   2.678   0.993
 5717TIP3    H117115   4.386   2.738   1.057
 5717TIP3    H217116   4.355   2.661   0.930
 5718TIP3   OH217117   4.235   1.715   0.140
 5718TIP3    H117118   4.142   1.692   0.141
 5718TIP3    H217119   4.280   1.634   0.165
 5719TIP3   OH217120   3.319   3.065   2.461
 5719TIP3    H117121   3.256   3.129   2.492
 5719TIP3    H217122   3.276   2.980   2.474
 5720TIP3   OH217123   3.452   0.551   2.227
 5720TIP3    H117124   3.509   0.475   2.227
 5720TIP3    H217125   3.433   0.567   2.134
 5721TIP3   OH217126   0.325   0.965   5.761
 5721TIP3    H117127   0.254   0.901   5.757
 5721TIP3    H217128   0.377   0.949   5.682
 5722TIP3   OH217129   4.640   5.070   4.263
 5722TIP3    H117130   4.599   5.141   4.313
 5722TIP3    H217131   4.718   5.110   4.224
 5723TIP3   OH217132   3.945   6.112   0.425
 5723TIP3    H117133   3.894   6.175   0.476
 5723TIP3    H217134   4.033   6.149   0.422
 5724TIP3   OH217135   5.213   5.208   4.337
 5724TIP3    H117136   5.172   5.277   4.285
 5724TIP3    H217137   5.279   5.252   4.390
 5725TIP3   OH217138   2.023   1.056   0.884
 5725TIP3    H117139   1.942   1.010   0.906
 5725TIP3    H217140   2.067   1.067   0.968
 5726TIP3   OH217141   5.494   5.600   5.192
 5726TIP3    H117142   5.512   5.507   5.181
 5726TIP3    H217143   5.562   5.630   5.252
 5727TIP3   OH217144   1.049   2.640   4.716
 5727TIP3    H117145   0.986   2.712   4.723
 5727TIP3    H217146   1.121   2.666   4.773
 5728TIP3   OH217147   6.105   2.441   3.077
 5728TIP3    H117148   6.041   2.510   3.095
 5728TIP3    H217149   6.058   2.360   3.099
 5729TIP3   OH217150   6.686   0.425   3.698
 5729TIP3    H117151   6.616   0.485   3.673
 5729TIP3    H217152   6.686   0.427   3.794
 5730TIP3   OH217153   0.483   0.097   4.831
 5730TIP3    H117154   0.489   0.190   4.856
 5730TIP3    H217155   0.574   0.070   4.818
 5731TIP3   OH217156   2.146   6.307   5.379
 5731TIP3    H117157   2.223   6.256   5.403
 5731TIP3    H217158   2.131   6.364   5.453
 5732TIP3   OH217159   6.915   5.024   4.551
 5732TIP3    H117160   6.842   5.066   4.597
 5732TIP3    H217161   6.948   5.092   4.492
 5733TIP3   OH217162   6.499   1.080   2.715
 5733TIP3    H117163   6.405   1.092   2.728
 5733TIP3    H217164   6.540   1.125   2.789
 5734TIP3   OH217165   5.278   2.171   2.096
 5734TIP3    H117166   5.283   2.110   2.169
 5734TIP3    H217167   5.369   2.179   2.066
 5735TIP3   OH217168   0.001   6.063   2.112
 5735TIP3    H117169   0.057   6.000   2.067
 5735TIP3    H217170   0.000   6.139   2.055
 5736TIP3   OH217171   6.840   2.160   2.492
 5736TIP3    H117172   6.805   2.071   2.485
 5736TIP3    H217173   6.934   2.151   2.478
 5737TIP3   OH217174   6.916   4.087   5.163
 5737TIP3    H117175   6.936   4.178   5.188
 5737TIP3    H217176   6.932   4.084   5.069
 5738TIP3   OH217177   6.783   2.951   4.293
 5738TIP3    H117178   6.756   3.015   4.359
 5738TIP3    H217179   6.794   2.869   4.341
 5739TIP3   OH217180   3.557   4.517   4.749
 5739TIP3    H117181   3.632   4.485   4.699
 5739TIP3    H217182   3.566   4.476   4.835
 5740TIP3   OH217183   2.695   0.580   1.512
 5740TIP3    H117184   2.701   0.674   1.529
 5740TIP3    H217185   2.665   0.542   1.595
 5741TIP3   OH217186   0.653   3.148   0.179
 5741TIP3    H117187   0.663   3.242   0.195
 5741TIP3    H217188   0.698   3.107   0.253
 5742TIP3   OH217189   5.344   0.587   4.172
 5742TIP3    H117190   5.334   0.493   4.186
 5742TIP3    H217191   5.398   0.594   4.093
 5743TIP3   OH217192   4.015   3.651   4.014
 5743TIP3    H117193   4.011   3.617   4.103
 5743TIP3    H217194   4.058   3.581   3.963
 5744TIP3   OH217195   6.452   5.929   2.346
 5744TIP3    H117196   6.392   5.908   2.417
 5744TIP3    H217197   6.449   5.852   2.289
 5745TIP3   OH217198   6.476   2.148   4.053
 5745TIP3    H117199   6.545   2.132   3.988
 5745TIP3    H217200   6.508   2.220   4.106
 5746TIP3   OH217201   0.444   5.113   1.381
 5746TIP3    H117202   0.408   5.189   1.428
 5746TIP3    H217203   0.420   5.038   1.435
 5747TIP3   OH217204   6.571   3.210   5.092
 5747TIP3    H117205   6.531   3.127   5.067
 5747TIP3    H217206   6.506   3.252   5.148
 5748TIP3   OH217207   3.819   4.697   5.778
 5748TIP3    H117208   3.748   4.701   5.841
 5748TIP3    H217209   3.894   4.663   5.827
 5749TIP3   OH217210   5.902   5.672   0.630
 5749TIP3    H117211   5.925   5.675   0.723
 5749TIP3    H217212   5.816   5.631   0.627
 5750TIP3   OH217213   2.620   4.599   3.966
 5750TIP3    H117214   2.558   4.622   3.896
 5750TIP3    H217215   2.644   4.508   3.947
 5751TIP3   OH217216   5.490   2.574   5.718
 5751TIP3    H117217   5.573   2.609   5.686
 5751TIP3    H217218   5.464   2.635   5.788
 5752TIP3   OH217219   5.964   4.838   4.411
 5752TIP3    H117220   6.050   4.864   4.445
 5752TIP3    H217221   5.910   4.916   4.421
 5753TIP3   OH217222   0.438   4.736   5.615
 5753TIP3    H117223   0.376   4.688   5.560
 5753TIP3    H217224   0.477   4.669   5.671
 5754TIP3   OH217225   5.208   6.456   3.137
 5754TIP3    H117226   5.139   6.442   3.072
 5754TIP3    H217227   5.224   6.369   3.174
 5755TIP3   OH217228   4.010   6.596   1.237
 5755TIP3    H117229   4.083   6.596   1.174
 5755TIP3    H217230   3.995   6.688   1.256
 5756TIP3   OH217231   1.058   0.170   4.334
 5756TIP3    H117232   0.982   0.202   4.285
 5756TIP3    H217233   1.133   0.212   4.293
 5757TIP3   OH217234   5.194   0.289   3.856
 5757TIP3    H117235   5.169   0.237   3.933
 5757TIP3    H217236   5.116   0.289   3.801
 5758TIP3   OH217237   5.358   5.881   3.014
 5758TIP3    H117238   5.337   5.876   2.921
 5758TIP3    H217239   5.275   5.901   3.057
 5759TIP3   OH217240   1.613   1.994   1.152
 5759TIP3    H117241   1.609   2.012   1.246
 5759TIP3    H217242   1.534   2.037   1.116
 5760TIP3   OH217243   5.470   3.392   5.609
 5760TIP3    H117244   5.387   3.439   5.601
 5760TIP3    H217245   5.513   3.433   5.684
 5761TIP3   OH217246   4.943   6.122   2.722
 5761TIP3    H117247   4.882   6.113   2.650
 5761TIP3    H217248   4.897   6.084   2.798
 5762TIP3   OH217249   0.623   0.849   0.219
 5762TIP3    H117250   0.717   0.866   0.220
 5762TIP3    H217251   0.582   0.934   0.239
 5763TIP3   OH217252   1.035   1.732   4.918
 5763TIP3    H117253   1.062   1.804   4.975
 5763TIP3    H217254   1.085   1.656   4.949
 5764TIP3   OH217255   5.556   4.631   0.986
 5764TIP3    H117256   5.554   4.634   1.082
 5764TIP3    H217257   5.477   4.583   0.962
 5765TIP3   OH217258   5.711   5.715   5.900
 5765TIP3    H117259   5.681   5.638   5.851
 5765TIP3    H217260   5.636   5.774   5.902
 5766TIP3   OH217261   3.955   2.405   1.426
 5766TIP3    H117262   3.964   2.309   1.431
 5766TIP3    H217263   4.029   2.438   1.478
 5767TIP3   OH217264   5.426   5.735   4.103
 5767TIP3    H117265   5.443   5.655   4.054
 5767TIP3    H217266   5.407   5.706   4.192
 5768TIP3   OH217267   0.376   1.902   1.228
 5768TIP3    H117268   0.451   1.956   1.251
 5768TIP3    H217269   0.306   1.929   1.288
 5769TIP3   OH217270   1.732   4.778   3.711
 5769TIP3    H117271   1.648   4.769   3.757
 5769TIP3    H217272   1.790   4.714   3.753
 5770TIP3   OH217273   1.280   2.527   1.911
 5770TIP3    H117274   1.289   2.458   1.976
 5770TIP3    H217275   1.293   2.608   1.961
 5771TIP3   OH217276   0.697   6.107   4.695
 5771TIP3    H117277   0.753   6.031   4.683
 5771TIP3    H217278   0.710   6.131   4.787
 5772TIP3   OH217279   3.447   3.539   4.412
 5772TIP3    H117280   3.506   3.615   4.414
 5772TIP3    H217281   3.363   3.574   4.384
 5773TIP3   OH217282   5.820   6.096   4.525
 5773TIP3    H117283   5.824   6.072   4.432
 5773TIP3    H217284   5.822   6.012   4.571
 5774TIP3   OH217285   3.741   3.696   1.293
 5774TIP3    H117286   3.738   3.649   1.209
 5774TIP3    H217287   3.652   3.693   1.326
 5775TIP3   OH217288   5.659   5.700   1.877
 5775TIP3    H117289   5.699   5.711   1.790
 5775TIP3    H217290   5.689   5.777   1.926
 5776TIP3   OH217291   0.462   2.744   2.726
 5776TIP3    H117292   0.409   2.770   2.651
 5776TIP3    H217293   0.417   2.668   2.763
 5777TIP3   OH217294   3.519   4.456   5.538
 5777TIP3    H117295   3.540   4.366   5.515
 5777TIP3    H217296   3.553   4.508   5.465
 5778TIP3   OH217297   4.068   4.886   5.345
 5778TIP3    H117298   4.113   4.970   5.356
 5778TIP3    H217299   4.094   4.857   5.257
 5779TIP3   OH217300   6.098   2.745   2.518
 5779TIP3    H117301   6.040   2.693   2.574
 5779TIP3    H217302   6.178   2.756   2.570
 5780TIP3   OH217303   6.291   1.690   3.022
 5780TIP3    H117304   6.280   1.613   2.966
 5780TIP3    H217305   6.202   1.725   3.032
 5781TIP3   OH217306   4.210   5.604   2.657
 5781TIP3    H117307   4.155   5.526   2.647
 5781TIP3    H217308   4.185   5.640   2.742
 5782TIP3   OH217309   0.143   1.315   3.674
 5782TIP3    H117310   0.099   1.394   3.705
 5782TIP3    H217311   0.212   1.347   3.616
 5783TIP3   OH217312   0.669   0.606   0.946
 5783TIP3    H117313   0.689   0.681   1.002
 5783TIP3    H217314   0.589   0.569   0.983
 5784TIP3   OH217315   2.909   5.931   0.519
 5784TIP3    H117316   2.851   5.954   0.591
 5784TIP3    H217317   2.862   5.957   0.440
 5785TIP3   OH217318   6.440   2.772   2.395
 5785TIP3    H117319   6.534   2.758   2.407
 5785TIP3    H217320   6.399   2.724   2.467
 5786TIP3   OH217321   1.647   3.481   2.892
 5786TIP3    H117322   1.595   3.550   2.850
 5786TIP3    H217323   1.668   3.517   2.978
 5787TIP3   OH217324   5.608   4.338   0.970
 5787TIP3    H117325   5.558   4.284   1.032
 5787TIP3    H217326   5.542   4.367   0.907
 5788TIP3   OH217327   5.251   5.539   5.507
 5788TIP3    H117328   5.169   5.544   5.555
 5788TIP3    H217329   5.231   5.483   5.432
 5789TIP3   OH217330   5.875   2.421   3.441
 5789TIP3    H117331   5.949   2.380   3.485
 5789TIP3    H217332   5.829   2.468   3.511
 5790TIP3   OH217333   1.456   2.837   2.749
 5790TIP3    H117334   1.551   2.823   2.748
 5790TIP3    H217335   1.430   2.836   2.657
 5791TIP3   OH217336   6.782   4.745   3.814
 5791TIP3    H117337   6.798   4.703   3.899
 5791TIP3    H217338   6.767   4.838   3.836
 5792TIP3   OH217339   4.367   4.047   3.631
 5792TIP3    H117340   4.407   4.012   3.552
 5792TIP3    H217341   4.430   4.112   3.663
 5793TIP3   OH217342   6.641   5.746   5.371
 5793TIP3    H117343   6.686   5.664   5.393
 5793TIP3    H217344   6.620   5.738   5.278
 5794TIP3   OH217345   7.062   1.142   0.219
 5794TIP3    H117346   7.000   1.108   0.155
 5794TIP3    H217347   7.028   1.229   0.241
 5795TIP3   OH217348   4.883   1.693   0.298
 5795TIP3    H117349   4.973   1.674   0.272
 5795TIP3    H217350   4.886   1.783   0.332
 5796TIP3   OH217351   1.217   0.530   5.062
 5796TIP3    H117352   1.247   0.482   5.140
 5796TIP3    H217353   1.292   0.527   5.002
 5797TIP3   OH217354   6.776   4.795   4.630
 5797TIP3    H117355   6.835   4.722   4.646
 5797TIP3    H217356   6.830   4.861   4.587
 5798TIP3   OH217357   6.760   3.381   0.227
 5798TIP3    H117358   6.832   3.387   0.289
 5798TIP3    H217359   6.792   3.425   0.148
 5799TIP3   OH217360   5.959   5.581   0.319
 5799TIP3    H117361   5.938   5.655   0.263
 5799TIP3    H217362   5.930   5.608   0.406
 5800TIP3   OH217363   0.839   1.153   0.986
 5800TIP3    H117364   0.833   1.124   0.895
 5800TIP3    H217365   0.920   1.204   0.990
 5801TIP3   OH217366   2.358   3.948   5.123
 5801TIP3    H117367   2.435   3.927   5.069
 5801TIP3    H217368   2.391   3.944   5.213
 5802TIP3   OH217369   7.004   4.501   4.553
 5802TIP3    H117370   7.073   4.439   4.531
 5802TIP3    H217371   7.040   4.586   4.528
 5803TIP3   OH217372   3.536   4.250   3.698
 5803TIP3    H117373   3.484   4.278   3.621
 5803TIP3    H217374   3.534   4.155   3.694
 5804TIP3   OH217375   1.899   5.019   3.130
 5804TIP3    H117376   1.887   4.953   3.062
 5804TIP3    H217377   1.969   5.075   3.098
 5805TIP3   OH217378   2.049   6.685   1.953
 5805TIP3    H117379   1.984   6.618   1.930
 5805TIP3    H217380   2.033   6.702   2.046
 5806TIP3   OH217381   5.781   5.092   1.860
 5806TIP3    H117382   5.762   5.100   1.954
 5806TIP3    H217383   5.719   5.026   1.828
 5807TIP3   OH217384   2.827   2.582   1.677
 5807TIP3    H117385   2.861   2.600   1.589
 5807TIP3    H217386   2.738   2.550   1.662
 5808TIP3   OH217387   0.917   4.176   4.063
 5808TIP3    H117388   1.011   4.156   4.067
 5808TIP3    H217389   0.896   4.173   3.969
 5809TIP3   OH217390   6.792   5.213   0.231
 5809TIP3    H117391   6.766   5.237   0.320
 5809TIP3    H217392   6.825   5.295   0.193
 5810TIP3   OH217393   2.027   0.616   5.546
 5810TIP3    H117394   2.090   0.685   5.567
 5810TIP3    H217395   1.948   0.662   5.520
 5811TIP3   OH217396   7.136   3.396   1.536
 5811TIP3    H117397   7.149   3.366   1.446
 5811TIP3    H217398   7.106   3.318   1.582
 5812TIP3   OH217399   1.215   3.025   4.953
 5812TIP3    H117400   1.270   3.099   4.929
 5812TIP3    H217401   1.251   2.994   5.036
 5813TIP3   OH217402   0.147   0.211   2.839
 5813TIP3    H117403   0.196   0.140   2.881
 5813TIP3    H217404   0.202   0.289   2.852
 5814TIP3   OH217405   1.476   2.426   5.628
 5814TIP3    H117406   1.552   2.485   5.618
 5814TIP3    H217407   1.405   2.483   5.656
 5815TIP3   OH217408   1.500   4.456   4.591
 5815TIP3    H117409   1.439   4.530   4.594
 5815TIP3    H217410   1.586   4.496   4.576
 5816TIP3   OH217411   0.244   4.330   5.615
 5816TIP3    H117412   0.190   4.282   5.677
 5816TIP3    H217413   0.317   4.272   5.595
 5817TIP3   OH217414   4.208   0.640   5.875
 5817TIP3    H117415   4.151   0.650   5.951
 5817TIP3    H217416   4.169   0.568   5.825
 5818TIP3   OH217417   2.375   5.237   2.053
 5818TIP3    H117418   2.418   5.320   2.032
 5818TIP3    H217419   2.429   5.171   2.011
 5819TIP3   OH217420   0.985   6.194   3.252
 5819TIP3    H117421   1.047   6.267   3.254
 5819TIP3    H217422   0.999   6.148   3.335
 5820TIP3   OH217423   4.082   1.589   0.950
 5820TIP3    H117424   4.135   1.530   1.004
 5820TIP3    H217425   4.018   1.626   1.011
 5821TIP3   OH217426   0.519   3.741   4.158
 5821TIP3    H117427   0.425   3.722   4.150
 5821TIP3    H217428   0.539   3.794   4.081
 5822TIP3   OH217429   1.592   0.284   3.815
 5822TIP3    H117430   1.512   0.330   3.791
 5822TIP3    H217431   1.658   0.316   3.754
 5823TIP3   OH217432   0.882   1.332   4.339
 5823TIP3    H117433   0.861   1.259   4.281
 5823TIP3    H217434   0.977   1.344   4.329
 5824TIP3   OH217435   7.031   2.000   5.456
 5824TIP3    H117436   6.937   1.995   5.472
 5824TIP3    H217437   7.063   2.067   5.516
 5825TIP3   OH217438   0.255   0.999   0.521
 5825TIP3    H117439   0.174   0.976   0.475
 5825TIP3    H217440   0.314   0.925   0.505
 5826TIP3   OH217441   6.796   2.165   1.286
 5826TIP3    H117442   6.718   2.120   1.254
 5826TIP3    H217443   6.868   2.126   1.237
 5827TIP3   OH217444   1.277   5.050   2.551
 5827TIP3    H117445   1.182   5.043   2.562
 5827TIP3    H217446   1.306   5.096   2.630
 5828TIP3   OH217447   2.281   5.338   0.599
 5828TIP3    H117448   2.192   5.362   0.626
 5828TIP3    H217449   2.289   5.371   0.510
 5829TIP3   OH217450   0.066   4.664   1.220
 5829TIP3    H117451  -0.007   4.613   1.255
 5829TIP3    H217452   0.077   4.632   1.130
 5830TIP3   OH217453   4.530   6.243   1.545
 5830TIP3    H117454   4.620   6.217   1.567
 5830TIP3    H217455   4.477   6.212   1.619
 5831TIP3   OH217456   4.971   1.367   5.350
 5831TIP3    H117457   4.998   1.441   5.296
 5831TIP3    H217458   4.888   1.338   5.312
 5832TIP3   OH217459   3.870   6.711   0.460
 5832TIP3    H117460   3.809   6.640   0.441
 5832TIP3    H217461   3.956   6.669   0.461
 5833TIP3   OH217462   4.646   3.720   1.222
 5833TIP3    H117463   4.609   3.632   1.217
 5833TIP3    H217464   4.712   3.723   1.152
 5834TIP3   OH217465   5.365   4.516   2.071
 5834TIP3    H117466   5.333   4.461   2.142
 5834TIP3    H217467   5.430   4.573   2.113
 5835TIP3   OH217468   6.460   1.478   4.930
 5835TIP3    H117469   6.439   1.515   5.015
 5835TIP3    H217470   6.556   1.480   4.927
 5836TIP3   OH217471   2.308   2.110   2.257
 5836TIP3    H117472   2.226   2.141   2.219
 5836TIP3    H217473   2.367   2.100   2.181
 5837TIP3   OH217474   4.710   5.988   1.188
 5837TIP3    H117475   4.698   5.901   1.227
 5837TIP3    H217476   4.650   6.045   1.235
 5838TIP3   OH217477   5.785   6.191   1.335
 5838TIP3    H117478   5.873   6.154   1.338
 5838TIP3    H217479   5.746   6.166   1.419
 5839TIP3   OH217480   3.270   6.334   4.809
 5839TIP3    H117481   3.334   6.263   4.810
 5839TIP3    H217482   3.317   6.408   4.848
 5840TIP3   OH217483   3.935   3.941   4.726
 5840TIP3    H117484   3.893   3.890   4.657
 5840TIP3    H217485   3.969   3.875   4.787
 5841TIP3   OH217486   3.373   0.516   4.349
 5841TIP3    H117487   3.287   0.490   4.316
 5841TIP3    H217488   3.427   0.526   4.270
 5842TIP3   OH217489   2.464   1.423   5.082
 5842TIP3    H117490   2.536   1.480   5.056
 5842TIP3    H217491   2.505   1.338   5.096
 5843TIP3   OH217492   5.607   3.812   2.246
 5843TIP3    H117493   5.534   3.855   2.201
 5843TIP3    H217494   5.686   3.849   2.205
 5844TIP3   OH217495   1.271   1.616   2.048
 5844TIP3    H117496   1.311   1.532   2.024
 5844TIP3    H217497   1.221   1.641   1.970
 5845TIP3   OH217498   3.286   2.416   4.582
 5845TIP3    H117499   3.321   2.504   4.598
 5845TIP3    H217500   3.274   2.378   4.669
 5846TIP3   OH217501   0.357   2.398   4.013
 5846TIP3    H117502   0.268   2.403   3.976
 5846TIP3    H217503   0.374   2.305   4.023
 5847TIP3   OH217504   1.591   1.430   3.157
 5847TIP3    H117505   1.614   1.410   3.066
 5847TIP3    H217506   1.575   1.525   3.157
 5848TIP3   OH217507   0.427   4.663   4.474
 5848TIP3    H117508   0.369   4.684   4.401
 5848TIP3    H217509   0.513   4.696   4.448
 5849TIP3   OH217510   2.057   0.415   1.044
 5849TIP3    H117511   2.044   0.417   0.950
 5849TIP3    H217512   2.141   0.370   1.056
 5850TIP3   OH217513   6.590   0.024   0.552
 5850TIP3    H117514   6.580   0.120   0.546
 5850TIP3    H217515   6.601  -0.004   0.461
 5851TIP3   OH217516   4.423   0.834   0.060
 5851TIP3    H117517   4.387   0.912   0.101
 5851TIP3    H217518   4.384   0.761   0.108
 5852TIP3   OH217519   7.018   0.373   1.972
 5852TIP3    H117520   7.057   0.301   2.021
 5852TIP3    H217521   7.056   0.366   1.884
 5853TIP3   OH217522   1.358   4.296   0.283
 5853TIP3    H117523   1.313   4.378   0.305
 5853TIP3    H217524   1.450   4.320   0.276
 5854TIP3   OH217525   2.874   0.202   4.231
 5854TIP3    H117526   2.891   0.151   4.310
 5854TIP3    H217527   2.904   0.146   4.159
 5855TIP3   OH217528   6.024   6.264   0.151
 5855TIP3    H117529   6.017   6.351   0.111
 5855TIP3    H217530   6.102   6.226   0.110
 5856TIP3   OH217531   4.576   4.175   5.775
 5856TIP3    H117532   4.483   4.186   5.796
 5856TIP3    H217533   4.606   4.264   5.756
 5857TIP3   OH217534   6.101   2.131   4.958
 5857TIP3    H117535   6.044   2.134   4.882
 5857TIP3    H217536   6.047   2.163   5.031
 5858TIP3   OH217537   1.261   4.414   1.058
 5858TIP3    H117538   1.237   4.437   0.968
 5858TIP3    H217539   1.312   4.489   1.088
 5859TIP3   OH217540   1.188   2.360   1.448
 5859TIP3    H117541   1.273   2.321   1.466
 5859TIP3    H217542   1.176   2.424   1.518
 5860TIP3   OH217543   1.441   3.195   1.308
 5860TIP3    H117544   1.525   3.234   1.282
 5860TIP3    H217545   1.397   3.175   1.226
 5861TIP3   OH217546   6.437   4.615   2.847
 5861TIP3    H117547   6.496   4.542   2.829
 5861TIP3    H217548   6.402   4.595   2.934
 5862TIP3   OH217549   1.890   0.380   4.193
 5862TIP3    H117550   1.908   0.310   4.130
 5862TIP3    H217551   1.840   0.445   4.144
 5863TIP3   OH217552   2.217   3.029   5.305
 5863TIP3    H117553   2.202   3.064   5.393
 5863TIP3    H217554   2.153   3.074   5.250
 5864TIP3   OH217555   0.835   6.235   2.089
 5864TIP3    H117556   0.768   6.166   2.088
 5864TIP3    H217557   0.837   6.268   2.000
 5865TIP3   OH217558   3.327   2.330   2.603
 5865TIP3    H117559   3.375   2.264   2.554
 5865TIP3    H217560   3.344   2.309   2.695
 5866TIP3   OH217561   0.014   4.524   5.397
 5866TIP3    H117562   0.093   4.548   5.350
 5866TIP3    H217563  -0.053   4.585   5.365
 5867TIP3   OH217564   6.022   1.435   1.808
 5867TIP3    H117565   6.058   1.374   1.873
 5867TIP3    H217566   6.041   1.393   1.724
 5868TIP3   OH217567   5.691   3.404   5.048
 5868TIP3    H117568   5.732   3.326   5.009
 5868TIP3    H217569   5.762   3.469   5.050
 5869TIP3   OH217570   6.385   5.066   4.628
 5869TIP3    H117571   6.313   5.046   4.688
 5869TIP3    H217572   6.347   5.054   4.541
 5870TIP3   OH217573   4.927   1.032   2.866
 5870TIP3    H117574   4.874   0.994   2.937
 5870TIP3    H217575   4.916   0.971   2.793
 5871TIP3   OH217576   5.076   0.684   2.886
 5871TIP3    H117577   5.008   0.717   2.828
 5871TIP3    H217578   5.098   0.598   2.850
 5872TIP3   OH217579   0.745   4.033   4.804
 5872TIP3    H117580   0.827   4.034   4.755
 5872TIP3    H217581   0.679   4.009   4.740
 5873TIP3   OH217582   0.251   2.544   1.820
 5873TIP3    H117583   0.294   2.630   1.817
 5873TIP3    H217584   0.288   2.495   1.747
 5874TIP3   OH217585   1.117   1.806   5.499
 5874TIP3    H117586   1.041   1.772   5.451
 5874TIP3    H217587   1.084   1.886   5.540
 5875TIP3   OH217588   2.199   2.183   0.336
 5875TIP3    H117589   2.293   2.177   0.346
 5875TIP3    H217590   2.174   2.260   0.387
 5876TIP3   OH217591   3.632   1.660   1.008
 5876TIP3    H117592   3.549   1.655   0.962
 5876TIP3    H217593   3.668   1.571   1.003
 5877TIP3   OH217594   4.141   0.177   3.027
 5877TIP3    H117595   4.158   0.172   2.933
 5877TIP3    H217596   4.050   0.148   3.037
 5878TIP3   OH217597   5.102   3.196   1.247
 5878TIP3    H117598   5.082   3.210   1.339
 5878TIP3    H217599   5.197   3.206   1.242
 5879TIP3   OH217600   6.920   3.501   3.203
 5879TIP3    H117601   6.839   3.469   3.243
 5879TIP3    H217602   6.920   3.595   3.220
 5880TIP3   OH217603   4.785   3.510   5.267
 5880TIP3    H117604   4.791   3.582   5.205
 5880TIP3    H217605   4.837   3.440   5.228
 5881TIP3   OH217606   0.119   5.831   4.619
 5881TIP3    H117607   0.049   5.871   4.566
 5881TIP3    H217608   0.077   5.754   4.658
 5882TIP3   OH217609   5.675   0.688   1.608
 5882TIP3    H117610   5.633   0.606   1.634
 5882TIP3    H217611   5.646   0.702   1.517
 5883TIP3   OH217612   4.696   3.325   4.911
 5883TIP3    H117613   4.735   3.267   4.845
 5883TIP3    H217614   4.763   3.333   4.978
 5884TIP3   OH217615   5.253   4.599   1.587
 5884TIP3    H117616   5.290   4.512   1.601
 5884TIP3    H217617   5.165   4.595   1.625
 5885TIP3   OH217618   6.207   0.756   2.881
 5885TIP3    H117619   6.119   0.772   2.847
 5885TIP3    H217620   6.194   0.745   2.976
 5886TIP3   OH217621   4.225   5.284   1.217
 5886TIP3    H117622   4.247   5.306   1.308
 5886TIP3    H217623   4.143   5.235   1.223
 5887TIP3   OH217624   3.450   1.714   3.709
 5887TIP3    H117625   3.378   1.735   3.649
 5887TIP3    H217626   3.455   1.618   3.708
 5888TIP3   OH217627   6.640   6.252   5.220
 5888TIP3    H117628   6.636   6.318   5.151
 5888TIP3    H217629   6.603   6.173   5.180
 5889TIP3   OH217630   4.746   5.090   0.488
 5889TIP3    H117631   4.762   5.101   0.394
 5889TIP3    H217632   4.833   5.086   0.527
 5890TIP3   OH217633   7.128   1.476   3.532
 5890TIP3    H117634   7.183   1.429   3.470
 5890TIP3    H217635   7.050   1.422   3.541
 5891TIP3   OH217636   5.594   6.653   1.518
 5891TIP3    H117637   5.638   6.584   1.468
 5891TIP3    H217638   5.551   6.707   1.451
 5892TIP3   OH217639   5.912   1.904   4.910
 5892TIP3    H117640   5.895   1.991   4.873
 5892TIP3    H217641   5.975   1.920   4.980
 5893TIP3   OH217642   1.791   3.794   4.443
 5893TIP3    H117643   1.746   3.757   4.519
 5893TIP3    H217644   1.794   3.888   4.461
 5894TIP3   OH217645   0.211   4.932   3.690
 5894TIP3    H117646   0.236   4.864   3.753
 5894TIP3    H217647   0.192   4.884   3.609
 5895TIP3   OH217648   1.901   5.276   1.485
 5895TIP3    H117649   1.963   5.228   1.540
 5895TIP3    H217650   1.875   5.351   1.539
 5896TIP3   OH217651   5.287   3.421   3.610
 5896TIP3    H117652   5.227   3.433   3.684
 5896TIP3    H217653   5.287   3.505   3.565
 5897TIP3   OH217654   7.145   5.188   3.322
 5897TIP3    H117655   7.076   5.248   3.296
 5897TIP3    H217656   7.116   5.152   3.406
 5898TIP3   OH217657   2.517   4.975   3.472
 5898TIP3    H117658   2.501   5.011   3.560
 5898TIP3    H217659   2.613   4.978   3.462
 5899TIP3   OH217660   0.840   0.285   5.349
 5899TIP3    H117661   0.847   0.376   5.379
 5899TIP3    H217662   0.904   0.279   5.278
 5900TIP3   OH217663   6.551   2.984   4.115
 5900TIP3    H117664   6.619   2.986   4.183
 5900TIP3    H217665   6.510   3.070   4.119
 5901TIP3   OH217666   0.303   4.026   1.157
 5901TIP3    H117667   0.291   3.936   1.188
 5901TIP3    H217668   0.345   4.016   1.072
 5902TIP3   OH217669   0.692   5.984   5.265
 5902TIP3    H117670   0.635   6.042   5.215
 5902TIP3    H217671   0.645   5.901   5.267
 5903TIP3   OH217672   1.566   5.251   5.050
 5903TIP3    H117673   1.594   5.177   4.995
 5903TIP3    H217674   1.576   5.328   4.994
 5904TIP3   OH217675   0.049   5.856   5.145
 5904TIP3    H117676   0.078   5.862   5.054
 5904TIP3    H217677   0.079   5.939   5.184
 5905TIP3   OH217678   5.653   0.170   5.756
 5905TIP3    H117679   5.612   0.148   5.673
 5905TIP3    H217680   5.609   0.250   5.785
 5906TIP3   OH217681   3.906   1.396   1.606
 5906TIP3    H117682   3.844   1.379   1.676
 5906TIP3    H217683   3.924   1.309   1.569
 5907TIP3   OH217684   2.243   5.104   5.850
 5907TIP3    H117685   2.250   5.068   5.761
 5907TIP3    H217686   2.151   5.096   5.872
 5908TIP3   OH217687   4.703   3.410   0.042
 5908TIP3    H117688   4.640   3.442  -0.022
 5908TIP3    H217689   4.740   3.489   0.081
 5909TIP3   OH217690   0.851   5.592   5.597
 5909TIP3    H117691   0.909   5.631   5.532
 5909TIP3    H217692   0.910   5.554   5.662
 5910TIP3   OH217693   0.134   2.545   4.270
 5910TIP3    H117694   0.066   2.591   4.220
 5910TIP3    H217695   0.213   2.552   4.216
 5911TIP3   OH217696   0.844   4.856   0.170
 5911TIP3    H117697   0.750   4.869   0.178
 5911TIP3    H217698   0.880   4.944   0.161
 5912TIP3   OH217699   2.215   5.016   5.589
 5912TIP3    H117700   2.120   5.032   5.585
 5912TIP3    H217701   2.246   5.037   5.501
 5913TIP3   OH217702   1.059   3.252   3.848
 5913TIP3    H117703   1.097   3.165   3.852
 5913TIP3    H217704   1.091   3.296   3.927
 5914TIP3   OH217705   0.537   0.652   5.049
 5914TIP3    H117706   0.453   0.696   5.053
 5914TIP3    H217707   0.572   0.673   4.963
 5915TIP3   OH217708   5.495   0.973   0.984
 5915TIP3    H117709   5.566   1.037   0.991
 5915TIP3    H217710   5.443   1.003   0.909
 5916TIP3   OH217711   1.884   5.357   5.798
 5916TIP3    H117712   1.897   5.354   5.893
 5916TIP3    H217713   1.819   5.427   5.786
 5917TIP3   OH217714   5.720   0.741   1.900
 5917TIP3    H117715   5.732   0.705   1.812
 5917TIP3    H217716   5.750   0.832   1.894
 5918TIP3   OH217717   5.976   5.354  -0.012
 5918TIP3    H117718   5.936   5.268   0.004
 5918TIP3    H217719   5.991   5.390   0.076
 5919TIP3   OH217720   6.912   5.318   3.422
 5919TIP3    H117721   6.885   5.334   3.332
 5919TIP3    H217722   6.840   5.349   3.475
 5920TIP3   OH217723   3.058   1.995   5.727
 5920TIP3    H117724   3.106   2.061   5.677
 5920TIP3    H217725   2.969   2.030   5.733
 5921TIP3   OH217726   2.382   5.411   3.839
 5921TIP3    H117727   2.473   5.418   3.812
 5921TIP3    H217728   2.380   5.450   3.927
 5922TIP3   OH217729   6.113   3.978   0.882
 5922TIP3    H117730   6.161   3.911   0.930
 5922TIP3    H217731   6.102   4.049   0.945
 5923TIP3   OH217732   1.522   3.506   3.583
 5923TIP3    H117733   1.600   3.486   3.634
 5923TIP3    H217734   1.490   3.420   3.554
 5924TIP3   OH217735   4.265   5.032   2.208
 5924TIP3    H117736   4.207   5.058   2.137
 5924TIP3    H217737   4.213   4.973   2.262
 5925TIP3   OH217738   3.533   1.286   5.791
 5925TIP3    H117739   3.535   1.367   5.842
 5925TIP3    H217740   3.625   1.265   5.775
 5926TIP3   OH217741   2.903   2.075   4.672
 5926TIP3    H117742   2.993   2.058   4.642
 5926TIP3    H217743   2.914   2.101   4.764
 5927TIP3   OH217744  -0.020   4.272   5.336
 5927TIP3    H117745   0.041   4.340   5.366
 5927TIP3    H217746   0.006   4.194   5.384
 5928TIP3   OH217747   2.503   3.696   2.040
 5928TIP3    H117748   2.562   3.638   2.089
 5928TIP3    H217749   2.543   3.782   2.046
 5929TIP3   OH217750   0.552   1.249   0.593
 5929TIP3    H117751   0.604   1.298   0.656
 5929TIP3    H217752   0.566   1.157   0.616
 5930TIP3   OH217753   2.232   3.141   2.320
 5930TIP3    H117754   2.277   3.224   2.331
 5930TIP3    H217755   2.144   3.156   2.353
 5931TIP3   OH217756   2.431   1.513   0.023
 5931TIP3    H117757   2.421   1.420   0.001
 5931TIP3    H217758   2.521   1.533  -0.001
 5932TIP3   OH217759   2.006   0.090   1.240
 5932TIP3    H117760   2.060   0.159   1.278
 5932TIP3    H217761   2.055   0.062   1.162
 5933TIP3   OH217762   6.023   3.320   5.823
 5933TIP3    H117763   5.975   3.323   5.906
 5933TIP3    H217764   5.961   3.355   5.758
 5934TIP3   OH217765   6.680   0.250   1.685
 5934TIP3    H117766   6.759   0.273   1.635
 5934TIP3    H217767   6.649   0.334   1.720
 5935TIP3   OH217768   1.443   3.805   4.128
 5935TIP3    H117769   1.529   3.830   4.094
 5935TIP3    H217770   1.462   3.738   4.194
 5936TIP3   OH217771   1.381   0.901   2.184
 5936TIP3    H117772   1.381   0.918   2.279
 5936TIP3    H217773   1.303   0.946   2.153
 5937TIP3   OH217774   1.729   0.756   3.383
 5937TIP3    H117775   1.761   0.811   3.455
 5937TIP3    H217776   1.638   0.784   3.370
 5938TIP3   OH217777   3.165   3.726   5.328
 5938TIP3    H117778   3.152   3.754   5.237
 5938TIP3    H217779   3.207   3.801   5.370
 5939TIP3   OH217780   2.550   0.330   0.167
 5939TIP3    H117781   2.603   0.258   0.200
 5939TIP3    H217782   2.461   0.293   0.161
 5940TIP3   OH217783   4.395   3.719   3.611
 5940TIP3    H117784   4.410   3.702   3.704
 5940TIP3    H217785   4.312   3.768   3.608
 5941TIP3   OH217786   4.098   0.349   3.824
 5941TIP3    H117787   4.073   0.295   3.900
 5941TIP3    H217788   4.184   0.316   3.799
 5942TIP3   OH217789   1.797   5.137   5.445
 5942TIP3    H117790   1.758   5.225   5.451
 5942TIP3    H217791   1.746   5.092   5.378
 5943TIP3   OH217792   6.797   5.555   5.195
 5943TIP3    H117793   6.850   5.478   5.174
 5943TIP3    H217794   6.854   5.630   5.174
 5944TIP3   OH217795   0.759   3.376   4.300
 5944TIP3    H117796   0.735   3.388   4.208
 5944TIP3    H217797   0.735   3.458   4.342
 5945TIP3   OH217798   4.783   6.280   2.493
 5945TIP3    H117799   4.817   6.343   2.557
 5945TIP3    H217800   4.811   6.315   2.409
 5946TIP3   OH217801   2.514   3.465   5.636
 5946TIP3    H117802   2.475   3.552   5.637
 5946TIP3    H217803   2.608   3.481   5.627
 5947TIP3   OH217804   3.226   3.564   5.855
 5947TIP3    H117805   3.268   3.572   5.941
 5947TIP3    H217806   3.134   3.583   5.872
 5948TIP3   OH217807   4.952   1.641   3.023
 5948TIP3    H117808   4.875   1.671   2.975
 5948TIP3    H217809   4.920   1.570   3.078
 5949TIP3   OH217810   1.187   5.476   1.540
 5949TIP3    H117811   1.151   5.432   1.617
 5949TIP3    H217812   1.280   5.487   1.561
 5950TIP3   OH217813   4.966   6.268   4.357
 5950TIP3    H117814   5.056   6.284   4.387
 5950TIP3    H217815   4.945   6.343   4.302
 5951TIP3   OH217816   4.621   3.616   5.553
 5951TIP3    H117817   4.617   3.658   5.467
 5951TIP3    H217818   4.568   3.672   5.609
 5952TIP3   OH217819   4.563   1.116   2.133
 5952TIP3    H117820   4.617   1.068   2.195
 5952TIP3    H217821   4.473   1.097   2.160
 5953TIP3   OH217822   4.906   5.138   2.195
 5953TIP3    H117823   4.840   5.093   2.143
 5953TIP3    H217824   4.977   5.157   2.134
 5954TIP3   OH217825   6.401   0.666   2.706
 5954TIP3    H117826   6.323   0.648   2.758
 5954TIP3    H217827   6.381   0.747   2.659
 5955TIP3   OH217828   5.828   1.824   2.234
 5955TIP3    H117829   5.832   1.908   2.280
 5955TIP3    H217830   5.790   1.846   2.149
 5956TIP3   OH217831   3.086   6.452   1.111
 5956TIP3    H117832   3.131   6.441   1.028
 5956TIP3    H217833   3.033   6.531   1.100
 5957TIP3   OH217834   5.172   5.748   0.640
 5957TIP3    H117835   5.198   5.811   0.707
 5957TIP3    H217836   5.255   5.720   0.600
 5958TIP3   OH217837   1.432   3.564   2.531
 5958TIP3    H117838   1.397   3.482   2.567
 5958TIP3    H217839   1.463   3.612   2.607
 5959TIP3   OH217840   7.014   5.227   2.132
 5959TIP3    H117841   7.003   5.238   2.037
 5959TIP3    H217842   6.959   5.152   2.153
 5960TIP3   OH217843   4.926   2.003   3.944
 5960TIP3    H117844   4.918   2.024   3.851
 5960TIP3    H217845   5.018   1.981   3.956
 5961TIP3   OH217846   5.354   4.273   3.174
 5961TIP3    H117847   5.331   4.320   3.254
 5961TIP3    H217848   5.318   4.185   3.186
 5962TIP3   OH217849   1.973   4.946   5.173
 5962TIP3    H117850   2.064   4.974   5.188
 5962TIP3    H217851   1.936   5.013   5.117
 5963TIP3   OH217852   6.483   1.901   2.939
 5963TIP3    H117853   6.410   1.951   2.902
 5963TIP3    H217854   6.442   1.837   2.997
 5964TIP3   OH217855   6.356   4.088   1.705
 5964TIP3    H117856   6.420   4.112   1.771
 5964TIP3    H217857   6.272   4.094   1.750
 5965TIP3   OH217858   7.224   5.586   2.171
 5965TIP3    H117859   7.241   5.620   2.084
 5965TIP3    H217860   7.128   5.580   2.176
 5966TIP3   OH217861   4.781   5.813   5.339
 5966TIP3    H117862   4.719   5.838   5.408
 5966TIP3    H217863   4.725   5.780   5.269
 5967TIP3   OH217864   5.668   0.639   3.713
 5967TIP3    H117865   5.644   0.548   3.730
 5967TIP3    H217866   5.586   0.687   3.713
 5968TIP3   OH217867   1.469   2.980   3.824
 5968TIP3    H117868   1.444   3.058   3.776
 5968TIP3    H217869   1.464   2.909   3.760
 5969TIP3   OH217870   2.418   3.520   5.317
 5969TIP3    H117871   2.463   3.546   5.236
 5969TIP3    H217872   2.446   3.585   5.381
 5970TIP3   OH217873   2.437   5.812   1.183
 5970TIP3    H117874   2.485   5.885   1.144
 5970TIP3    H217875   2.464   5.812   1.275
 5971TIP3   OH217876   6.309   1.103   5.447
 5971TIP3    H117877   6.390   1.116   5.398
 5971TIP3    H217878   6.327   1.140   5.534
 5972TIP3   OH217879   0.573   6.045   1.803
 5972TIP3    H117880   0.624   5.975   1.844
 5972TIP3    H217881   0.508   6.070   1.869
 5973TIP3   OH217882   6.468   6.232   4.179
 5973TIP3    H117883   6.528   6.251   4.107
 5973TIP3    H217884   6.457   6.137   4.177
 5974TIP3   OH217885   4.865   5.965   3.687
 5974TIP3    H117886   4.888   5.873   3.672
 5974TIP3    H217887   4.819   5.965   3.770
 5975TIP3   OH217888   2.383   5.055   0.278
 5975TIP3    H117889   2.436   5.028   0.353
 5975TIP3    H217890   2.376   5.150   0.287
 5976TIP3   OH217891   5.336   2.932   5.738
 5976TIP3    H117892   5.249   2.892   5.730
 5976TIP3    H217893   5.334   2.977   5.823
 5977TIP3   OH217894   7.155   1.669   4.852
 5977TIP3    H117895   7.146   1.652   4.759
 5977TIP3    H217896   7.231   1.726   4.859
 5978TIP3   OH217897   2.887   3.307   0.275
 5978TIP3    H117898   2.935   3.234   0.315
 5978TIP3    H217899   2.823   3.332   0.342
 5979TIP3   OH217900   0.079   0.936   4.962
 5979TIP3    H117901   0.109   0.979   4.882
 5979TIP3    H217902  -0.016   0.940   4.957
 5980TIP3   OH217903   1.397   1.213   0.299
 5980TIP3    H117904   1.476   1.262   0.323
 5980TIP3    H217905   1.331   1.241   0.362
 5981TIP3   OH217906   1.296   1.281   2.821
 5981TIP3    H117907   1.201   1.284   2.806
 5981TIP3    H217908   1.305   1.273   2.916
 5982TIP3   OH217909   0.800   4.717   4.027
 5982TIP3    H117910   0.846   4.752   3.950
 5982TIP3    H217911   0.870   4.694   4.088
 5983TIP3   OH217912   5.475   0.716   5.243
 5983TIP3    H117913   5.454   0.623   5.231
 5983TIP3    H217914   5.570   0.716   5.259
 5984TIP3   OH217915   6.397   0.812   3.761
 5984TIP3    H117916   6.369   0.799   3.851
 5984TIP3    H217917   6.444   0.896   3.762
 5985TIP3   OH217918   4.515   4.991   2.120
 5985TIP3    H117919   4.471   4.906   2.117
 5985TIP3    H217920   4.450   5.051   2.157
 5986TIP3   OH217921   2.428   1.088   2.121
 5986TIP3    H117922   2.370   1.159   2.147
 5986TIP3    H217923   2.371   1.011   2.117
 5987TIP3   OH217924   2.616   6.721   5.092
 5987TIP3    H117925   2.598   6.708   5.185
 5987TIP3    H217926   2.661   6.641   5.065
 5988TIP3   OH217927   6.178   4.079   4.970
 5988TIP3    H117928   6.120   4.141   4.928
 5988TIP3    H217929   6.203   4.121   5.053
 5989TIP3   OH217930   3.497   3.862   0.083
 5989TIP3    H117931   3.406   3.872   0.112
 5989TIP3    H217932   3.516   3.943   0.035
 5990TIP3   OH217933   1.078   2.543   3.570
 5990TIP3    H117934   1.115   2.622   3.610
 5990TIP3    H217935   0.983   2.553   3.582
 5991TIP3   OH217936   6.872   6.357   0.848
 5991TIP3    H117937   6.904   6.317   0.767
 5991TIP3    H217938   6.789   6.312   0.865
 5992TIP3   OH217939   2.432   1.403   4.182
 5992TIP3    H117940   2.410   1.496   4.176
 5992TIP3    H217941   2.394   1.375   4.266
 5993TIP3   OH217942   6.362   2.527   1.453
 5993TIP3    H117943   6.413   2.447   1.437
 5993TIP3    H217944   6.279   2.511   1.409
 5994TIP3   OH217945   5.330   1.335   0.166
 5994TIP3    H117946   5.417   1.368   0.189
 5994TIP3    H217947   5.273   1.371   0.234
 5995TIP3   OH217948   2.299   2.263   0.815
 5995TIP3    H117949   2.255   2.310   0.886
 5995TIP3    H217950   2.292   2.171   0.839
 5996TIP3   OH217951   6.003   0.001   0.418
 5996TIP3    H117952   5.962   0.080   0.383
 5996TIP3    H217953   6.071  -0.021   0.355
 5997TIP3   OH217954   0.938   5.893   2.064
 5997TIP3    H117955   0.998   5.951   2.018
 5997TIP3    H217956   0.945   5.919   2.155
 5998TIP3   OH217957   3.240   5.192   2.894
 5998TIP3    H117958   3.161   5.147   2.927
 5998TIP3    H217959   3.246   5.271   2.947
 5999TIP3   OH217960   0.843   4.374   2.885
 5999TIP3    H117961   0.843   4.317   2.808
 5999TIP3    H217962   0.934   4.379   2.911
 6000TIP3   OH217963   2.339   6.122   4.572
 6000TIP3    H117964   2.279   6.183   4.614
 6000TIP3    H217965   2.351   6.052   4.636
 6001TIP3   OH217966   0.577   3.534   3.419
 6001TIP3    H117967   0.569   3.611   3.474
 6001TIP3    H217968   0.671   3.524   3.405
 6002TIP3   OH217969   3.630   5.704   4.680
 6002TIP3    H117970   3.632   5.614   4.646
 6002TIP3    H217971   3.575   5.698   4.758
 6003TIP3   OH217972   5.366   6.045   5.710
 6003TIP3    H117973   5.276   6.076   5.704
 6003TIP3    H217974   5.417   6.112   5.664
 6004TIP3   OH217975   0.080   1.346   2.744
 6004TIP3    H117976   0.067   1.401   2.821
 6004TIP3    H217977   0.172   1.322   2.746
 6005TIP3   OH217978   1.831   5.642   2.744
 6005TIP3    H117979   1.816   5.733   2.769
 6005TIP3    H217980   1.898   5.611   2.805
 6006TIP3   OH217981   5.536   2.900   3.667
 6006TIP3    H117982   5.472   2.968   3.648
 6006TIP3    H217983   5.521   2.878   3.759
 6007TIP3   OH217984   5.514   1.279   2.635
 6007TIP3    H117985   5.533   1.359   2.684
 6007TIP3    H217986   5.574   1.282   2.561
 6008TIP3   OH217987   0.590   1.061   2.294
 6008TIP3    H117988   0.609   1.139   2.346
 6008TIP3    H217989   0.655   0.997   2.321
 6009TIP3   OH217990   4.149   6.700   3.962
 6009TIP3    H117991   4.111   6.682   3.876
 6009TIP3    H217992   4.208   6.774   3.947
 6010TIP3   OH217993   3.787   3.012   1.067
 6010TIP3    H117994   3.741   2.971   1.141
 6010TIP3    H217995   3.859   2.952   1.048
 6011TIP3   OH217996   2.278   6.623   5.629
 6011TIP3    H117997   2.247   6.691   5.569
 6011TIP3    H217998   2.225   6.546   5.609
 6012TIP3   OH217999   6.330   2.998   2.325
 6012TIP3    H118000   6.376   2.919   2.354
 6012TIP3    H218001   6.330   3.056   2.402
 6013TIP3   OH218002   5.355   0.961   0.326
 6013TIP3    H118003   5.363   0.871   0.358
 6013TIP3    H218004   5.266   0.988   0.350
 6014TIP3   OH218005   2.445   4.048   3.329
 6014TIP3    H118006   2.412   4.110   3.264
 6014TIP3    H218007   2.460   4.101   3.407
 6015TIP3   OH218008   0.308   3.366   0.902
 6015TIP3    H118009   0.392   3.320   0.894
 6015TIP3    H218010   0.243   3.296   0.911
 6016TIP3   OH218011   5.255   5.653   4.492
 6016TIP3    H118012   5.289   5.743   4.499
 6016TIP3    H218013   5.221   5.634   4.580
 6017TIP3   OH218014   4.770   5.139   2.522
 6017TIP3    H118015   4.710   5.160   2.594
 6017TIP3    H218016   4.731   5.181   2.445
 6018TIP3   OH218017   6.451   4.069   0.214
 6018TIP3    H118018   6.406   4.152   0.230
 6018TIP3    H218019   6.389   4.002   0.241
 6019TIP3   OH218020   7.076   1.566   2.396
 6019TIP3    H118021   7.037   1.628   2.456
 6019TIP3    H218022   7.006   1.503   2.376
 6020TIP3   OH218023   6.270   4.039   4.151
 6020TIP3    H118024   6.332   3.996   4.210
 6020TIP3    H218025   6.195   3.980   4.147
 6021TIP3   OH218026   1.245   6.663   5.395
 6021TIP3    H118027   1.325   6.611   5.386
 6021TIP3    H218028   1.177   6.611   5.352
 6022TIP3   OH218029   4.828   1.554   4.745
 6022TIP3    H118030   4.759   1.539   4.810
 6022TIP3    H218031   4.853   1.646   4.758
 6023TIP3   OH218032   2.790   6.342   2.085
 6023TIP3    H118033   2.829   6.409   2.030
 6023TIP3    H218034   2.710   6.317   2.039
 6024TIP3   OH218035   2.093   6.675   1.411
 6024TIP3    H118036   2.140   6.755   1.435
 6024TIP3    H218037   2.087   6.626   1.493
 6025TIP3   OH218038   1.697   5.620   4.547
 6025TIP3    H118039   1.758   5.669   4.491
 6025TIP3    H218040   1.690   5.672   4.627
 6026TIP3   OH218041   6.033   6.753   4.194
 6026TIP3    H118042   5.958   6.780   4.247
 6026TIP3    H218043   6.048   6.661   4.218
 6027TIP3   OH218044   1.317   2.942   3.496
 6027TIP3    H118045   1.262   2.870   3.466
 6027TIP3    H218046   1.255   3.009   3.525
 6028TIP3   OH218047   5.233   2.196   1.643
 6028TIP3    H118048   5.188   2.276   1.616
 6028TIP3    H218049   5.305   2.226   1.698
 6029TIP3   OH218050   6.014   0.303   2.178
 6029TIP3    H118051   6.050   0.274   2.263
 6029TIP3    H218052   6.087   0.349   2.136
 6030TIP3   OH218053   4.687   1.740   0.117
 6030TIP3    H118054   4.633   1.778   0.186
 6030TIP3    H218055   4.769   1.716   0.160
 6031TIP3   OH218056   2.194   2.405   5.780
 6031TIP3    H118057   2.192   2.313   5.756
 6031TIP3    H218058   2.283   2.433   5.761
 6032TIP3   OH218059   2.228   0.979   4.965
 6032TIP3    H118060   2.236   1.074   4.978
 6032TIP3    H218061   2.191   0.970   4.877
 6033TIP3   OH218062   6.786   1.156   3.185
 6033TIP3    H118063   6.840   1.171   3.263
 6033TIP3    H218064   6.827   1.081   3.142
 6034TIP3   OH218065   2.719   6.356   2.855
 6034TIP3    H118066   2.723   6.440   2.810
 6034TIP3    H218067   2.674   6.298   2.794
 6035TIP3   OH218068   1.453   5.990   4.292
 6035TIP3    H118069   1.436   5.938   4.213
 6035TIP3    H218070   1.373   5.982   4.343
 6036TIP3   OH218071   0.879   3.812   3.867
 6036TIP3    H118072   0.788   3.823   3.891
 6036TIP3    H218073   0.879   3.739   3.805
 6037TIP3   OH218074   5.393   5.790   4.992
 6037TIP3    H118075   5.464   5.745   5.037
 6037TIP3    H218076   5.411   5.883   5.005
 6038TIP3   OH218077   5.103   6.455   2.312
 6038TIP3    H118078   5.172   6.497   2.364
 6038TIP3    H218079   5.099   6.366   2.346
 6039TIP3   OH218080   5.537   4.431   2.392
 6039TIP3    H118081   5.466   4.462   2.448
 6039TIP3    H218082   5.552   4.503   2.331
 6040TIP3   OH218083   5.963   3.988   3.118
 6040TIP3    H118084   6.027   4.030   3.061
 6040TIP3    H218085   5.939   4.057   3.180
 6041TIP3   OH218086   4.706   0.480   4.553
 6041TIP3    H118087   4.621   0.523   4.560
 6041TIP3    H218088   4.746   0.521   4.476
 6042TIP3   OH218089   3.707   3.401   3.456
 6042TIP3    H118090   3.634   3.347   3.488
 6042TIP3    H218091   3.674   3.490   3.457
 6043TIP3   OH218092   3.213   4.884   0.534
 6043TIP3    H118093   3.281   4.891   0.467
 6043TIP3    H218094   3.217   4.968   0.580
 6044TIP3   OH218095   4.871   4.912   4.972
 6044TIP3    H118096   4.912   4.850   5.033
 6044TIP3    H218097   4.783   4.925   5.007
 6045TIP3   OH218098   4.590   1.674   2.182
 6045TIP3    H118099   4.608   1.641   2.094
 6045TIP3    H218100   4.641   1.617   2.240
 6046TIP3   OH218101   1.764   6.394   0.482
 6046TIP3    H118102   1.737   6.473   0.435
 6046TIP3    H218103   1.688   6.336   0.477
 6047TIP3   OH218104   5.870   3.482   2.302
 6047TIP3    H118105   5.851   3.508   2.392
 6047TIP3    H218106   5.913   3.559   2.264
 6048TIP3   OH218107   2.817   2.135   5.751
 6048TIP3    H118108   2.801   2.214   5.700
 6048TIP3    H218109   2.820   2.166   5.842
 6049TIP3   OH218110   2.892   3.923   1.412
 6049TIP3    H118111   2.973   3.899   1.369
 6049TIP3    H218112   2.825   3.919   1.343
 6050TIP3   OH218113   0.147   2.821   4.469
 6050TIP3    H118114   0.053   2.837   4.457
 6050TIP3    H218115   0.156   2.726   4.460
 6051TIP3   OH218116   0.101   5.119   2.740
 6051TIP3    H118117   0.038   5.187   2.712
 6051TIP3    H218118   0.133   5.082   2.658
 6052TIP3   OH218119   6.641   3.873   0.693
 6052TIP3    H118120   6.687   3.830   0.766
 6052TIP3    H218121   6.655   3.966   0.708
 6053TIP3   OH218122   5.444   4.847   3.106
 6053TIP3    H118123   5.373   4.862   3.044
 6053TIP3    H218124   5.500   4.782   3.063
 6054TIP3   OH218125   4.711   2.084   1.981
 6054TIP3    H118126   4.747   1.996   1.987
 6054TIP3    H218127   4.715   2.105   1.888
 6055TIP3   OH218128   2.021   1.898   1.007
 6055TIP3    H118129   1.950   1.913   0.944
 6055TIP3    H218130   2.083   1.842   0.961
 6056TIP3   OH218131   1.663   6.161   4.023
 6056TIP3    H118132   1.719   6.110   4.081
 6056TIP3    H218133   1.677   6.252   4.051
 6057TIP3   OH218134   0.805   6.449   1.906
 6057TIP3    H118135   0.755   6.511   1.853
 6057TIP3    H218136   0.752   6.438   1.985
 6058TIP3   OH218137   3.215   1.364   2.270
 6058TIP3    H118138   3.138   1.308   2.277
 6058TIP3    H218139   3.275   1.317   2.212
 6059TIP3   OH218140   5.289   4.867   3.905
 6059TIP3    H118141   5.308   4.829   3.819
 6059TIP3    H218142   5.285   4.962   3.888
 6060TIP3   OH218143   3.772   2.472   4.453
 6060TIP3    H118144   3.714   2.486   4.528
 6060TIP3    H218145   3.725   2.409   4.398
 6061TIP3   OH218146   2.683   1.218   2.629
 6061TIP3    H118147   2.716   1.308   2.633
 6061TIP3    H218148   2.710   1.179   2.712
 6062TIP3   OH218149   3.086   0.609   1.920
 6062TIP3    H118150   3.013   0.664   1.950
 6062TIP3    H218151   3.045   0.526   1.897
 6063TIP3   OH218152   5.250   2.487   5.586
 6063TIP3    H118153   5.342   2.494   5.612
 6063TIP3    H218154   5.233   2.566   5.535
 6064TIP3   OH218155   6.482   4.787   0.401
 6064TIP3    H118156   6.441   4.873   0.391
 6064TIP3    H218157   6.576   4.806   0.400
 6065TIP3   OH218158   5.938   0.982   0.038
 6065TIP3    H118159   5.865   0.946   0.090
 6065TIP3    H218160   5.905   1.065   0.005
 6066TIP3   OH218161   0.651   1.069   1.996
 6066TIP3    H118162   0.624   1.065   2.088
 6066TIP3    H218163   0.631   1.158   1.969
 6067TIP3   OH218164   6.786   1.357   5.579
 6067TIP3    H118165   6.822   1.360   5.667
 6067TIP3    H218166   6.782   1.449   5.552
 6068TIP3   OH218167   7.144   2.128   4.774
 6068TIP3    H118168   7.168   2.201   4.830
 6068TIP3    H218169   7.063   2.094   4.814
 6069TIP3   OH218170   3.331   4.370   5.220
 6069TIP3    H118171   3.301   4.286   5.254
 6069TIP3    H218172   3.398   4.348   5.156
 6070TIP3   OH218173   1.285   4.264   3.311
 6070TIP3    H118174   1.375   4.243   3.286
 6070TIP3    H218175   1.267   4.347   3.268
 6071TIP3   OH218176   0.080   0.469   5.753
 6071TIP3    H118177   0.142   0.446   5.684
 6071TIP3    H218178   0.058   0.560   5.736
 6072TIP3   OH218179   6.914   4.717   4.163
 6072TIP3    H118180   6.956   4.631   4.167
 6072TIP3    H218181   6.822   4.700   4.181
 6073TIP3   OH218182   5.892   4.676   3.335
 6073TIP3    H118183   5.839   4.748   3.300
 6073TIP3    H218184   5.982   4.710   3.333
 6074TIP3   OH218185   3.622   2.025   1.012
 6074TIP3    H118186   3.608   1.973   1.091
 6074TIP3    H218187   3.534   2.045   0.980
 6075TIP3   OH218188   0.488   2.729   1.236
 6075TIP3    H118189   0.428   2.657   1.257
 6075TIP3    H218190   0.443   2.779   1.168
 6076TIP3   OH218191   2.380   6.493   0.596
 6076TIP3    H118192   2.389   6.406   0.559
 6076TIP3    H218193   2.391   6.481   0.690
 6077TIP3   OH218194   2.212   4.371   2.521
 6077TIP3    H118195   2.298   4.402   2.493
 6077TIP3    H218196   2.160   4.370   2.441
 6078TIP3   OH218197   4.621   1.165   2.853
 6078TIP3    H118198   4.580   1.135   2.934
 6078TIP3    H218199   4.668   1.244   2.877
 6079TIP3   OH218200   3.052   4.100   2.422
 6079TIP3    H118201   3.098   4.022   2.392
 6079TIP3    H218202   2.968   4.069   2.453
 6080TIP3   OH218203   1.937   1.919   1.266
 6080TIP3    H118204   2.026   1.953   1.276
 6080TIP3    H218205   1.931   1.895   1.173
 6081TIP3   OH218206   3.631   6.485   4.846
 6081TIP3    H118207   3.606   6.452   4.759
 6081TIP3    H218208   3.723   6.461   4.855
 6082TIP3   OH218209   2.763   1.871   4.433
 6082TIP3    H118210   2.781   1.848   4.524
 6082TIP3    H218211   2.848   1.896   4.397
 6083TIP3   OH218212   2.671   4.892   0.666
 6083TIP3    H118213   2.653   4.817   0.610
 6083TIP3    H218214   2.766   4.893   0.676
 6084TIP3   OH218215   2.210   6.592   2.524
 6084TIP3    H118216   2.138   6.571   2.465
 6084TIP3    H218217   2.288   6.585   2.469
 6085TIP3   OH218218   6.485   3.900   4.780
 6085TIP3    H118219   6.569   3.870   4.815
 6085TIP3    H218220   6.422   3.885   4.851
 6086TIP3   OH218221   1.749   3.880   2.856
 6086TIP3    H118222   1.769   3.869   2.948
 6086TIP3    H218223   1.818   3.938   2.822
 6087TIP3   OH218224   6.439   5.369   1.212
 6087TIP3    H118225   6.504   5.305   1.184
 6087TIP3    H218226   6.476   5.409   1.290
 6088TIP3   OH218227   5.846   4.326   2.926
 6088TIP3    H118228   5.825   4.361   3.012
 6088TIP3    H218229   5.776   4.358   2.869
 6089TIP3   OH218230   3.659   5.308   0.979
 6089TIP3    H118231   3.696   5.253   0.910
 6089TIP3    H218232   3.565   5.288   0.978
 6090TIP3   OH218233   5.559   2.429   0.034
 6090TIP3    H118234   5.592   2.456   0.120
 6090TIP3    H218235   5.556   2.333   0.038
 6091TIP3   OH218236   1.442   2.325   5.251
 6091TIP3    H118237   1.536   2.308   5.251
 6091TIP3    H218238   1.434   2.420   5.254
 6092TIP3   OH218239   3.055   6.547   3.054
 6092TIP3    H118240   3.028   6.623   3.105
 6092TIP3    H218241   3.028   6.472   3.107
 6093TIP3   OH218242   2.137   2.819   4.210
 6093TIP3    H118243   2.066   2.759   4.189
 6093TIP3    H218244   2.183   2.778   4.283
 6094TIP3   OH218245   6.902   3.152   1.420
 6094TIP3    H118246   6.834   3.215   1.442
 6094TIP3    H218247   6.916   3.164   1.326
 6095TIP3   OH218248   4.214   0.402   4.303
 6095TIP3    H118249   4.289   0.445   4.263
 6095TIP3    H218250   4.237   0.309   4.304
 6096TIP3   OH218251   4.652   2.051   2.613
 6096TIP3    H118252   4.724   2.070   2.553
 6096TIP3    H218253   4.695   2.019   2.692
 6097TIP3   OH218254   0.770   6.607   4.706
 6097TIP3    H118255   0.810   6.533   4.660
 6097TIP3    H218256   0.823   6.618   4.785
 6098TIP3   OH218257   5.984   4.115   3.972
 6098TIP3    H118258   6.030   4.031   3.978
 6098TIP3    H218259   5.921   4.103   3.902
 6099TIP3   OH218260   3.747   3.628   2.876
 6099TIP3    H118261   3.798   3.686   2.819
 6099TIP3    H218262   3.756   3.541   2.835
 6100TIP3   OH218263   2.025   2.319   1.211
 6100TIP3    H118264   1.954   2.332   1.274
 6100TIP3    H218265   2.082   2.395   1.222
 6101TIP3   OH218266   7.070   3.653   1.331
 6101TIP3    H118267   7.063   3.748   1.321
 6101TIP3    H218268   7.164   3.636   1.330
 6102TIP3   OH218269   4.443   0.005   2.185
 6102TIP3    H118270   4.515   0.067   2.171
 6102TIP3    H218271   4.442  -0.011   2.279
 6103TIP3   OH218272   6.206   0.184   0.511
 6103TIP3    H118273   6.220   0.091   0.491
 6103TIP3    H218274   6.265   0.230   0.452
 6104TIP3   OH218275   0.938   4.332   0.905
 6104TIP3    H118276   0.947   4.244   0.869
 6104TIP3    H218277   1.021   4.375   0.885
 6105TIP3   OH218278   4.086   0.882   4.797
 6105TIP3    H118279   4.099   0.976   4.787
 6105TIP3    H218280   4.171   0.843   4.778
 6106TIP3   OH218281   6.834   5.935   3.315
 6106TIP3    H118282   6.852   5.920   3.408
 6106TIP3    H218283   6.916   5.972   3.281
 6107TIP3   OH218284   5.460   3.298   3.974
 6107TIP3    H118285   5.473   3.391   3.954
 6107TIP3    H218286   5.544   3.258   3.954
 6108TIP3   OH218287   2.137   1.353   4.324
 6108TIP3    H118288   2.134   1.298   4.245
 6108TIP3    H218289   2.058   1.406   4.319
 6109TIP3   OH218290   4.629   3.940   4.243
 6109TIP3    H118291   4.583   3.928   4.326
 6109TIP3    H218292   4.586   3.881   4.182
 6110TIP3   OH218293   7.128   2.798   5.351
 6110TIP3    H118294   7.167   2.757   5.428
 6110TIP3    H218295   7.055   2.741   5.328
 6111TIP3   OH218296   0.618   4.192   1.838
 6111TIP3    H118297   0.566   4.128   1.789
 6111TIP3    H218298   0.707   4.183   1.803
 6112TIP3   OH218299   5.641   2.622   0.635
 6112TIP3    H118300   5.654   2.542   0.584
 6112TIP3    H218301   5.546   2.632   0.639
 6113TIP3   OH218302   0.861   2.113   5.344
 6113TIP3    H118303   0.803   2.096   5.270
 6113TIP3    H218304   0.871   2.209   5.346
 6114TIP3   OH218305   4.253   0.196   2.788
 6114TIP3    H118306   4.344   0.173   2.803
 6114TIP3    H218307   4.230   0.152   2.706
 6115TIP3   OH218308   3.209   3.891   2.312
 6115TIP3    H118309   3.190   3.804   2.349
 6115TIP3    H218310   3.195   3.881   2.218
 6116TIP3   OH218311   1.708   1.615   5.197
 6116TIP3    H118312   1.787   1.576   5.161
 6116TIP3    H218313   1.726   1.621   5.291
 6117TIP3   OH218314   7.200   2.832   2.885
 6117TIP3    H118315   7.255   2.834   2.963
 6117TIP3    H218316   7.110   2.832   2.918
 6118TIP3   OH218317   6.744   3.522   4.484
 6118TIP3    H118318   6.813   3.476   4.436
 6118TIP3    H218319   6.769   3.515   4.576
 6119TIP3   OH218320   6.403   2.785   5.087
 6119TIP3    H118321   6.394   2.793   4.992
 6119TIP3    H218322   6.497   2.774   5.101
 6120TIP3   OH218323   1.668   3.756   0.730
 6120TIP3    H118324   1.669   3.852   0.722
 6120TIP3    H218325   1.617   3.739   0.809
 6121TIP3   OH218326   0.050   5.672   2.865
 6121TIP3    H118327   0.101   5.713   2.795
 6121TIP3    H218328   0.045   5.579   2.839
 6122TIP3   OH218329   2.993   4.900   0.210
 6122TIP3    H118330   2.962   4.990   0.199
 6122TIP3    H218331   3.086   4.904   0.189
 6123TIP3   OH218332   6.098   5.233   5.405
 6123TIP3    H118333   6.150   5.279   5.339
 6123TIP3    H218334   6.080   5.148   5.365
 6124TIP3   OH218335   6.115   5.090   4.757
 6124TIP3    H118336   6.168   5.153   4.806
 6124TIP3    H218337   6.049   5.144   4.713
 6125TIP3   OH218338   5.143   4.953   5.590
 6125TIP3    H118339   5.123   4.956   5.496
 6125TIP3    H218340   5.226   4.905   5.595
 6126TIP3   OH218341   5.935   1.382   0.700
 6126TIP3    H118342   5.884   1.369   0.620
 6126TIP3    H218343   5.899   1.462   0.739
 6127TIP3   OH218344   6.312   5.653   1.013
 6127TIP3    H118345   6.407   5.658   1.001
 6127TIP3    H218346   6.298   5.679   1.104
 6128TIP3   OH218347   2.473   2.626   4.130
 6128TIP3    H118348   2.467   2.635   4.225
 6128TIP3    H218349   2.390   2.660   4.097
 6129TIP3   OH218350   0.177   6.791   2.610
 6129TIP3    H118351   0.224   6.777   2.693
 6129TIP3    H218352   0.223   6.736   2.547
 6130TIP3   OH218353   4.337   0.822   3.412
 6130TIP3    H118354   4.256   0.870   3.429
 6130TIP3    H218355   4.383   0.821   3.496
 6131TIP3   OH218356   3.522   3.327   3.184
 6131TIP3    H118357   3.474   3.245   3.186
 6131TIP3    H218358   3.607   3.305   3.146
 6132TIP3   OH218359   5.196   4.919   2.961
 6132TIP3    H118360   5.140   4.862   3.014
 6132TIP3    H218361   5.150   5.003   2.961
 6133TIP3   OH218362   1.626   0.758   2.127
 6133TIP3    H118363   1.625   0.716   2.213
 6133TIP3    H218364   1.545   0.808   2.124
 6134TIP3   OH218365   5.030   2.387   1.616
 6134TIP3    H118366   4.963   2.327   1.586
 6134TIP3    H218367   5.039   2.451   1.545
 6135TIP3   OH218368   4.248   2.800   0.425
 6135TIP3    H118369   4.193   2.778   0.499
 6135TIP3    H218370   4.196   2.778   0.348
 6136TIP3   OH218371   5.699   4.707   3.886
 6136TIP3    H118372   5.653   4.712   3.969
 6136TIP3    H218373   5.747   4.624   3.889
 6137TIP3   OH218374   7.083   6.340   4.352
 6137TIP3    H118375   7.096   6.274   4.421
 6137TIP3    H218376   6.993   6.369   4.365
 6138TIP3   OH218377   2.628   3.784   0.576
 6138TIP3    H118378   2.561   3.844   0.542
 6138TIP3    H218379   2.675   3.754   0.498
 6139TIP3   OH218380   4.178   4.446   4.155
 6139TIP3    H118381   4.161   4.517   4.094
 6139TIP3    H218382   4.094   4.430   4.198
 6140TIP3   OH218383   3.063   5.948   0.940
 6140TIP3    H118384   3.106   5.888   0.879
 6140TIP3    H218385   3.131   6.011   0.965
 6141TIP3   OH218386   0.590   6.618   5.270
 6141TIP3    H118387   0.542   6.578   5.198
 6141TIP3    H218388   0.544   6.590   5.349
 6142TIP3   OH218389   1.912   4.028   0.859
 6142TIP3    H118390   1.911   3.975   0.939
 6142TIP3    H218391   1.850   3.985   0.801
 6143TIP3   OH218392   3.988   6.478   0.791
 6143TIP3    H118393   4.010   6.566   0.820
 6143TIP3    H218394   3.952   6.435   0.869
 6144TIP3   OH218395   3.857   6.835   2.543
 6144TIP3    H118396   3.881   6.751   2.504
 6144TIP3    H218397   3.818   6.813   2.627
 6145TIP3   OH218398   6.840   4.538   1.897
 6145TIP3    H118399   6.753   4.575   1.914
 6145TIP3    H218400   6.823   4.448   1.870
 6146TIP3   OH218401   5.976   3.573   5.113
 6146TIP3    H118402   6.002   3.545   5.201
 6146TIP3    H218403   5.961   3.667   5.121
 6147TIP3   OH218404   2.445   3.595   1.194
 6147TIP3    H118405   2.452   3.633   1.282
 6147TIP3    H218406   2.354   3.607   1.169
 6148TIP3   OH218407   5.143   6.752   1.683
 6148TIP3    H118408   5.129   6.715   1.770
 6148TIP3    H218409   5.236   6.776   1.682
 6149TIP3   OH218410   0.930   2.417   3.871
 6149TIP3    H118411   0.895   2.483   3.930
 6149TIP3    H218412   0.915   2.333   3.916
 6150TIP3   OH218413   2.522   4.111   4.719
 6150TIP3    H118414   2.485   4.163   4.791
 6150TIP3    H218415   2.451   4.104   4.656
 6151TIP3   OH218416   3.170   1.959   0.390
 6151TIP3    H118417   3.119   1.892   0.344
 6151TIP3    H218418   3.258   1.924   0.394
 6152TIP3   OH218419   6.574   2.598   3.309
 6152TIP3    H118420   6.600   2.508   3.288
 6152TIP3    H218421   6.589   2.647   3.228
 6153TIP3   OH218422   4.016   1.366   3.045
 6153TIP3    H118423   4.052   1.302   3.108
 6153TIP3    H218424   4.016   1.449   3.093
 6154TIP3   OH218425   0.788   4.137   1.071
 6154TIP3    H118426   0.860   4.086   1.109
 6154TIP3    H218427   0.796   4.124   0.977
 6155TIP3   OH218428   2.270   4.852   3.714
 6155TIP3    H118429   2.281   4.831   3.621
 6155TIP3    H218430   2.265   4.947   3.716
 6156TIP3   OH218431   6.626   3.425   3.568
 6156TIP3    H118432   6.542   3.395   3.602
 6156TIP3    H218433   6.614   3.428   3.473
 6157TIP3   OH218434   4.721   3.032   2.269
 6157TIP3    H118435   4.637   3.058   2.307
 6157TIP3    H218436   4.778   3.109   2.282
 6158TIP3   OH218437   1.367   3.795   0.438
 6158TIP3    H118438   1.463   3.795   0.443
 6158TIP3    H218439   1.347   3.862   0.372
 6159TIP3   OH218440   4.694   4.081   1.099
 6159TIP3    H118441   4.713   4.173   1.079
 6159TIP3    H218442   4.737   4.065   1.183
 6160TIP3   OH218443   2.832   2.724   3.879
 6160TIP3    H118444   2.837   2.654   3.944
 6160TIP3    H218445   2.760   2.698   3.821
 6161TIP3   OH218446   3.550   0.737   3.156
 6161TIP3    H118447   3.603   0.657   3.150
 6161TIP3    H218448   3.462   0.705   3.175
 6162TIP3   OH218449   3.832   4.875   3.308
 6162TIP3    H118450   3.849   4.802   3.248
 6162TIP3    H218451   3.861   4.844   3.393
 6163TIP3   OH218452   3.395   2.843   0.908
 6163TIP3    H118453   3.411   2.929   0.871
 6163TIP3    H218454   3.304   2.847   0.939
 6164TIP3   OH218455   4.366   2.236   3.311
 6164TIP3    H118456   4.311   2.157   3.307
 6164TIP3    H218457   4.448   2.206   3.351
 6165TIP3   OH218458   0.130   0.926   0.185
 6165TIP3    H118459   0.084   0.971   0.255
 6165TIP3    H218460   0.086   0.955   0.105
 6166TIP3   OH218461   5.681   0.214   2.891
 6166TIP3    H118462   5.705   0.306   2.902
 6166TIP3    H218463   5.619   0.197   2.961
 6167TIP3   OH218464   3.711   4.812   0.532
 6167TIP3    H118465   3.763   4.804   0.452
 6167TIP3    H218466   3.721   4.727   0.575
 6168TIP3   OH218467   6.203   3.710   0.939
 6168TIP3    H118468   6.177   3.657   0.863
 6168TIP3    H218469   6.242   3.647   0.999
 6169TIP3   OH218470   1.147   0.826   4.278
 6169TIP3    H118471   1.241   0.843   4.287
 6169TIP3    H218472   1.126   0.766   4.350
 6170TIP3   OH218473   2.599   3.429   4.935
 6170TIP3    H118474   2.622   3.461   5.022
 6170TIP3    H218475   2.611   3.505   4.878
 6171TIP3   OH218476   1.321   3.308   5.772
 6171TIP3    H118477   1.276   3.237   5.727
 6171TIP3    H218478   1.254   3.375   5.787
 6172TIP3   OH218479   3.884   5.698   3.841
 6172TIP3    H118480   3.853   5.767   3.783
 6172TIP3    H218481   3.924   5.634   3.782
 6173TIP3   OH218482   4.043   2.979   2.427
 6173TIP3    H118483   4.040   2.884   2.420
 6173TIP3    H218484   4.032   2.996   2.521
 6174TIP3   OH218485   0.976   4.499   3.828
 6174TIP3    H118486   0.966   4.410   3.861
 6174TIP3    H218487   1.052   4.533   3.873
 6175TIP3   OH218488   2.065   3.062   1.798
 6175TIP3    H118489   1.970   3.052   1.798
 6175TIP3    H218490   2.089   3.058   1.891
 6176TIP3   OH218491   0.292   1.563   0.150
 6176TIP3    H118492   0.365   1.624   0.152
 6176TIP3    H218493   0.307   1.510   0.071
 6177TIP3   OH218494   6.126   3.265   0.677
 6177TIP3    H118495   6.119   3.213   0.597
 6177TIP3    H218496   6.135   3.199   0.747
 6178TIP3   OH218497   7.139   1.789   1.190
 6178TIP3    H118498   7.122   1.721   1.255
 6178TIP3    H218499   7.073   1.856   1.208
 6179TIP3   OH218500   6.755   0.655   2.433
 6179TIP3    H118501   6.700   0.715   2.485
 6179TIP3    H218502   6.784   0.708   2.359
 6180TIP3   OH218503   2.164   5.920   3.936
 6180TIP3    H118504   2.172   5.972   4.016
 6180TIP3    H218505   2.221   5.844   3.952
 6181TIP3   OH218506   6.057   4.221   1.003
 6181TIP3    H118507   6.095   4.259   1.082
 6181TIP3    H218508   6.000   4.289   0.969
 6182TIP3   OH218509   1.596   1.712   4.606
 6182TIP3    H118510   1.536   1.642   4.579
 6182TIP3    H218511   1.567   1.737   4.694
 6183TIP3   OH218512   2.476   2.166   5.608
 6183TIP3    H118513   2.571   2.174   5.597
 6183TIP3    H218514   2.440   2.218   5.537
 6184TIP3   OH218515   1.518   5.725   3.272
 6184TIP3    H118516   1.555   5.720   3.360
 6184TIP3    H218517   1.433   5.682   3.279
 6185TIP3   OH218518   1.611   1.094   2.218
 6185TIP3    H118519   1.602   1.184   2.250
 6185TIP3    H218520   1.522   1.069   2.192
 6186TIP3   OH218521   5.474   0.773   0.599
 6186TIP3    H118522   5.431   0.769   0.684
 6186TIP3    H218523   5.416   0.725   0.540
 6187TIP3   OH218524   2.026   5.951   1.809
 6187TIP3    H118525   2.112   5.932   1.846
 6187TIP3    H218526   2.013   6.044   1.824
 6188TIP3   OH218527   6.246   1.566   1.948
 6188TIP3    H118528   6.168   1.540   1.899
 6188TIP3    H218529   6.273   1.486   1.993
 6189TIP3   OH218530   3.440   6.636   2.481
 6189TIP3    H118531   3.435   6.725   2.515
 6189TIP3    H218532   3.532   6.613   2.485
 6190TIP3   OH218533   0.211   0.928   2.993
 6190TIP3    H118534   0.251   0.911   3.078
 6190TIP3    H218535   0.131   0.976   3.014
 6191TIP3   OH218536   1.457   0.821   0.793
 6191TIP3    H118537   1.505   0.830   0.875
 6191TIP3    H218538   1.515   0.773   0.735
 6192TIP3   OH218539   5.590   2.915   2.136
 6192TIP3    H118540   5.598   2.945   2.046
 6192TIP3    H218541   5.676   2.880   2.159
 6193TIP3   OH218542   0.635   3.742   2.247
 6193TIP3    H118543   0.669   3.758   2.335
 6193TIP3    H218544   0.707   3.767   2.189
 6194TIP3   OH218545   6.937   2.351   4.940
 6194TIP3    H118546   7.005   2.372   5.004
 6194TIP3    H218547   6.935   2.427   4.881
 6195TIP3   OH218548   1.498   4.146   3.193
 6195TIP3    H118549   1.470   4.062   3.158
 6195TIP3    H218550   1.523   4.197   3.115
 6196TIP3   OH218551   5.567   5.299   0.060
 6196TIP3    H118552   5.497   5.338   0.112
 6196TIP3    H218553   5.545   5.321  -0.030
 6197TIP3   OH218554   1.595   4.344   2.968
 6197TIP3    H118555   1.552   4.429   2.978
 6197TIP3    H218556   1.688   4.364   2.966
 6198TIP3   OH218557   0.645   6.287   3.883
 6198TIP3    H118558   0.583   6.267   3.813
 6198TIP3    H218559   0.682   6.372   3.859
 6199TIP3   OH218560   3.005   5.972   0.064
 6199TIP3    H118561   2.998   5.989  -0.030
 6199TIP3    H218562   2.951   6.041   0.104
 6200TIP3   OH218563   0.413   5.145   2.103
 6200TIP3    H118564   0.429   5.236   2.127
 6200TIP3    H218565   0.333   5.122   2.150
 6201TIP3   OH218566   0.102   2.020   1.322
 6201TIP3    H118567   0.027   2.040   1.266
 6201TIP3    H218568   0.123   2.104   1.363
 6202TIP3   OH218569   2.835   0.477   4.284
 6202TIP3    H118570   2.857   0.385   4.266
 6202TIP3    H218571   2.740   0.482   4.271
 6203TIP3   OH218572   5.969   1.991   3.286
 6203TIP3    H118573   5.909   2.066   3.278
 6203TIP3    H218574   5.969   1.970   3.379
 6204TIP3   OH218575   3.833   5.734   1.420
 6204TIP3    H118576   3.919   5.732   1.378
 6204TIP3    H218577   3.797   5.646   1.407
 6205TIP3   OH218578   4.501   0.017   4.896
 6205TIP3    H118579   4.587   0.036   4.933
 6205TIP3    H218580   4.515   0.016   4.801
 6206TIP3   OH218581   0.081   4.684   5.692
 6206TIP3    H118582   0.093   4.765   5.742
 6206TIP3    H218583   0.093   4.709   5.601
 6207TIP3   OH218584   5.072   6.766   5.208
 6207TIP3    H118585   5.151   6.814   5.234
 6207TIP3    H218586   5.085   6.748   5.115
 6208TIP3   OH218587   5.989   3.087   1.866
 6208TIP3    H118588   5.962   3.177   1.845
 6208TIP3    H218589   6.082   3.094   1.885
 6209TIP3   OH218590   3.780   2.779   2.885
 6209TIP3    H118591   3.725   2.809   2.813
 6209TIP3    H218592   3.732   2.705   2.922
 6210TIP3   OH218593   0.139   3.713   5.892
 6210TIP3    H118594   0.152   3.643   5.828
 6210TIP3    H218595   0.055   3.694   5.932
 6211TIP3   OH218596   5.607   5.278   0.857
 6211TIP3    H118597   5.627   5.199   0.807
 6211TIP3    H218598   5.573   5.339   0.791
 6212TIP3   OH218599   0.515   4.487   0.155
 6212TIP3    H118600   0.577   4.416   0.175
 6212TIP3    H218601   0.520   4.545   0.231
 6213TIP3   OH218602   2.425   4.431   4.811
 6213TIP3    H118603   2.476   4.424   4.731
 6213TIP3    H218604   2.346   4.379   4.795
 6214TIP3   OH218605   0.363   2.790   1.742
 6214TIP3    H118606   0.418   2.821   1.815
 6214TIP3    H218607   0.423   2.782   1.669
 6215TIP3   OH218608   0.547   5.078   1.001
 6215TIP3    H118609   0.591   5.140   1.059
 6215TIP3    H218610   0.454   5.101   1.006
 6216TIP3   OH218611   0.333   2.835   1.020
 6216TIP3    H118612   0.322   2.806   0.930
 6216TIP3    H218613   0.250   2.813   1.062
 6217TIP3   OH218614   7.173   4.420   0.655
 6217TIP3    H118615   7.156   4.434   0.562
 6217TIP3    H218616   7.268   4.410   0.662
 6218TIP3   OH218617   3.220   3.458   1.403
 6218TIP3    H118618   3.200   3.515   1.328
 6218TIP3    H218619   3.254   3.377   1.363
 6219TIP3   OH218620   6.794   5.918   2.871
 6219TIP3    H118621   6.890   5.912   2.877
 6219TIP3    H218622   6.763   5.874   2.950
 6220TIP3   OH218623   6.625   3.869   0.324
 6220TIP3    H118624   6.600   3.789   0.278
 6220TIP3    H218625   6.569   3.937   0.286
 6221TIP3   OH218626   2.159   5.784   0.101
 6221TIP3    H118627   2.196   5.734   0.174
 6221TIP3    H218628   2.234   5.825   0.059
 6222TIP3   OH218629   3.235   6.018   2.814
 6222TIP3    H118630   3.328   6.024   2.837
 6222TIP3    H218631   3.233   6.032   2.719
 6223TIP3   OH218632   3.839   5.498   0.903
 6223TIP3    H118633   3.851   5.447   0.983
 6223TIP3    H218634   3.814   5.585   0.933
 6224TIP3   OH218635   2.034   5.930   0.378
 6224TIP3    H118636   2.078   5.861   0.428
 6224TIP3    H218637   2.013   5.889   0.294
 6225TIP3   OH218638   0.251   4.844   0.333
 6225TIP3    H118639   0.169   4.817   0.374
 6225TIP3    H218640   0.279   4.921   0.383
 6226TIP3   OH218641   0.292   5.010   1.181
 6226TIP3    H118642   0.334   5.055   1.254
 6226TIP3    H218643   0.314   4.918   1.193
 6227TIP3   OH218644   3.100   4.294   0.471
 6227TIP3    H118645   3.048   4.264   0.397
 6227TIP3    H218646   3.142   4.215   0.505
 6228TIP3   OH218647   2.869   3.700   2.332
 6228TIP3    H118648   2.942   3.653   2.372
 6228TIP3    H218649   2.904   3.731   2.248
 6229TIP3   OH218650   4.089   6.653   3.577
 6229TIP3    H118651   4.183   6.635   3.582
 6229TIP3    H218652   4.065   6.632   3.487
 6230TIP3   OH218653   5.570   1.534   2.791
 6230TIP3    H118654   5.535   1.623   2.781
 6230TIP3    H218655   5.551   1.512   2.882
 6231TIP3   OH218656   4.457   2.978   3.501
 6231TIP3    H118657   4.453   2.992   3.406
 6231TIP3    H218658   4.414   3.056   3.538
 6232TIP3   OH218659   2.990   3.814   2.096
 6232TIP3    H118660   3.006   3.743   2.034
 6232TIP3    H218661   3.020   3.893   2.052
 6233TIP3   OH218662   4.065   3.293   5.334
 6233TIP3    H118663   4.113   3.375   5.336
 6233TIP3    H218664   4.014   3.297   5.253
 6234TIP3   OH218665   6.251   1.787   3.315
 6234TIP3    H118666   6.257   1.780   3.410
 6234TIP3    H218667   6.331   1.746   3.283
 6235TIP3   OH218668   5.979   5.364   2.843
 6235TIP3    H118669   5.925   5.293   2.878
 6235TIP3    H218670   6.050   5.320   2.796
 6236TIP3   OH218671   6.826   2.614   5.830
 6236TIP3    H118672   6.882   2.596   5.755
 6236TIP3    H218673   6.834   2.535   5.884
 6237TIP3   OH218674   6.548   3.005   3.804
 6237TIP3    H118675   6.498   3.085   3.790
 6237TIP3    H218676   6.534   2.983   3.896
 6238TIP3   OH218677   3.406   3.424   0.556
 6238TIP3    H118678   3.333   3.448   0.614
 6238TIP3    H218679   3.392   3.477   0.478
 6239TIP3   OH218680   6.456   5.356   5.832
 6239TIP3    H118681   6.476   5.446   5.806
 6239TIP3    H218682   6.410   5.365   5.915
 6240TIP3   OH218683   5.102   1.904   1.240
 6240TIP3    H118684   5.133   1.815   1.224
 6240TIP3    H218685   5.174   1.946   1.288
 6241TIP3   OH218686   4.396   5.958   4.675
 6241TIP3    H118687   4.341   6.007   4.614
 6241TIP3    H218688   4.476   5.940   4.626
 6242TIP3   OH218689   2.419   5.976   2.255
 6242TIP3    H118690   2.510   5.992   2.281
 6242TIP3    H218691   2.368   6.035   2.310
 6243TIP3   OH218692   6.716   2.070   4.757
 6243TIP3    H118693   6.653   2.134   4.790
 6243TIP3    H218694   6.662   2.005   4.712
 6244TIP3   OH218695   2.405   6.696   5.850
 6244TIP3    H118696   2.358   6.684   5.767
 6244TIP3    H218697   2.498   6.693   5.826
 6245TIP3   OH218698   4.894   5.406   4.028
 6245TIP3    H118699   4.887   5.391   3.934
 6245TIP3    H218700   4.934   5.493   4.035
 6246TIP3   OH218701   0.456   1.974   3.658
 6246TIP3    H118702   0.389   2.012   3.600
 6246TIP3    H218703   0.502   1.910   3.603
 6247TIP3   OH218704   6.825   5.667   1.807
 6247TIP3    H118705   6.907   5.653   1.760
 6247TIP3    H218706   6.837   5.620   1.890
 6248TIP3   OH218707   6.740   1.177   4.946
 6248TIP3    H118708   6.745   1.196   5.040
 6248TIP3    H218709   6.714   1.085   4.941
 6249TIP3   OH218710   2.159   0.283   1.382
 6249TIP3    H118711   2.216   0.206   1.380
 6249TIP3    H218712   2.167   0.317   1.471
 6250TIP3   OH218713   4.236   5.076   1.914
 6250TIP3    H118714   4.314   5.071   1.860
 6250TIP3    H218715   4.237   5.165   1.950
 6251TIP3   OH218716   4.615   4.355   2.670
 6251TIP3    H118717   4.626   4.370   2.577
 6251TIP3    H218718   4.703   4.335   2.702
 6252TIP3   OH218719   2.098   6.440   5.147
 6252TIP3    H118720   2.188   6.468   5.128
 6252TIP3    H218721   2.099   6.416   5.240
 6253TIP3   OH218722   2.042   5.516   1.176
 6253TIP3    H118723   2.006   5.557   1.255
 6253TIP3    H218724   2.133   5.547   1.173
 6254TIP3   OH218725   5.108   2.009   4.916
 6254TIP3    H118726   5.162   1.981   4.990
 6254TIP3    H218727   5.096   1.930   4.863
 6255TIP3   OH218728   6.265   5.643   4.010
 6255TIP3    H118729   6.177   5.653   3.975
 6255TIP3    H218730   6.253   5.635   4.105
 6256TIP3   OH218731   1.397   1.200   4.366
 6256TIP3    H118732   1.480   1.158   4.387
 6256TIP3    H218733   1.351   1.208   4.450
 6257TIP3   OH218734   1.959   4.342   4.196
 6257TIP3    H118735   1.995   4.330   4.284
 6257TIP3    H218736   1.902   4.266   4.183
 6258TIP3   OH218737   3.476   0.609   2.902
 6258TIP3    H118738   3.544   0.562   2.854
 6258TIP3    H218739   3.523   0.677   2.951
 6259TIP3   OH218740   3.590   4.960   3.232
 6259TIP3    H118741   3.550   4.974   3.318
 6259TIP3    H218742   3.675   4.921   3.252
 6260TIP3   OH218743   0.479   3.464   5.278
 6260TIP3    H118744   0.492   3.558   5.271
 6260TIP3    H218745   0.419   3.454   5.352
 6261TIP3   OH218746   1.469   1.333   4.112
 6261TIP3    H118747   1.450   1.303   4.201
 6261TIP3    H218748   1.468   1.429   4.118
 6262TIP3   OH218749   4.710   3.136   5.551
 6262TIP3    H118750   4.730   3.099   5.465
 6262TIP3    H218751   4.795   3.161   5.587
 6263TIP3   OH218752   4.844   5.475   2.754
 6263TIP3    H118753   4.922   5.461   2.808
 6263TIP3    H218754   4.776   5.421   2.794
 6264TIP3   OH218755   3.019   4.717   1.301
 6264TIP3    H118756   2.957   4.693   1.233
 6264TIP3    H218757   3.050   4.634   1.336
 6265TIP3   OH218758   5.070   4.512   3.608
 6265TIP3    H118759   5.028   4.452   3.670
 6265TIP3    H218760   5.009   4.586   3.602
 6266TIP3   OH218761   4.418   0.094   3.326
 6266TIP3    H118762   4.376   0.011   3.302
 6266TIP3    H218763   4.362   0.161   3.287
 6267TIP3   OH218764   7.198   0.984   0.408
 6267TIP3    H118765   7.135   1.039   0.361
 6267TIP3    H218766   7.146   0.943   0.477
 6268TIP3   OH218767   4.149   0.190   3.535
 6268TIP3    H118768   4.203   0.184   3.457
 6268TIP3    H218769   4.060   0.205   3.502
 6269TIP3   OH218770   5.812   0.646   5.593
 6269TIP3    H118771   5.845   0.583   5.657
 6269TIP3    H218772   5.760   0.707   5.646
 6270TIP3   OH218773   4.033   3.527   5.720
 6270TIP3    H118774   3.967   3.557   5.782
 6270TIP3    H218775   4.105   3.495   5.775
 6271TIP3   OH218776   6.233   1.162   2.646
 6271TIP3    H118777   6.273   1.249   2.655
 6271TIP3    H218778   6.157   1.176   2.590
 6272TIP3   OH218779   0.777   5.478   3.966
 6272TIP3    H118780   0.782   5.555   3.909
 6272TIP3    H218781   0.686   5.476   3.995
 6273TIP3   OH218782   2.550   2.253   0.157
 6273TIP3    H118783   2.507   2.323   0.108
 6273TIP3    H218784   2.482   2.186   0.166
 6274TIP3   OH218785   2.263   2.689   3.866
 6274TIP3    H118786   2.246   2.774   3.825
 6274TIP3    H218787   2.196   2.631   3.829
 6275TIP3   OH218788   4.105   1.643   3.560
 6275TIP3    H118789   4.091   1.738   3.561
 6275TIP3    H218790   4.047   1.611   3.491
 6276TIP3   OH218791   2.625   0.176   3.677
 6276TIP3    H118792   2.635   0.188   3.771
 6276TIP3    H218793   2.538   0.139   3.666
 6277TIP3   OH218794   1.349   6.279   5.850
 6277TIP3    H118795   1.441   6.300   5.866
 6277TIP3    H218796   1.336   6.195   5.894
 6278TIP3   OH218797   0.893   4.445   3.519
 6278TIP3    H118798   0.826   4.385   3.551
 6278TIP3    H218799   0.964   4.388   3.489
 6279TIP3   OH218800   2.151   3.549   5.410
 6279TIP3    H118801   2.166   3.639   5.438
 6279TIP3    H218802   2.234   3.521   5.371
 6280TIP3   OH218803   3.840   0.207   2.758
 6280TIP3    H118804   3.868   0.296   2.780
 6280TIP3    H218805   3.900   0.181   2.687
 6281TIP3   OH218806   1.283   4.137   1.884
 6281TIP3    H118807   1.285   4.118   1.977
 6281TIP3    H218808   1.330   4.064   1.843
 6282TIP3   OH218809   4.640   0.927   3.317
 6282TIP3    H118810   4.697   0.861   3.357
 6282TIP3    H218811   4.553   0.887   3.318
 6283TIP3   OH218812   3.942   5.405   1.165
 6283TIP3    H118813   4.029   5.443   1.148
 6283TIP3    H218814   3.959   5.311   1.172
 6284TIP3   OH218815   6.261   3.063   1.927
 6284TIP3    H118816   6.300   3.056   2.015
 6284TIP3    H218817   6.304   2.994   1.877
 6285TIP3   OH218818   4.647   4.035   5.247
 6285TIP3    H118819   4.661   4.070   5.335
 6285TIP3    H218820   4.638   4.112   5.191
 6286TIP3   OH218821   4.727   6.711   3.519
 6286TIP3    H118822   4.713   6.681   3.609
 6286TIP3    H218823   4.652   6.768   3.501
 6287TIP3   OH218824   2.348   5.554   3.131
 6287TIP3    H118825   2.335   5.649   3.129
 6287TIP3    H218826   2.269   5.520   3.174
 6288TIP3   OH218827   7.088   0.127   3.213
 6288TIP3    H118828   7.049   0.187   3.277
 6288TIP3    H218829   7.106   0.182   3.137
 6289TIP3   OH218830   6.035   5.904   0.574
 6289TIP3    H118831   5.990   5.819   0.569
 6289TIP3    H218832   6.106   5.897   0.510
 6290TIP3   OH218833   5.277   2.049   1.394
 6290TIP3    H118834   5.254   2.065   1.485
 6290TIP3    H218835   5.363   2.007   1.398
 6291TIP3   OH218836   4.367   5.979   2.681
 6291TIP3    H118837   4.309   5.965   2.756
 6291TIP3    H218838   4.312   6.024   2.616
 6292TIP3   OH218839   4.396   2.180   1.052
 6292TIP3    H118840   4.363   2.269   1.058
 6292TIP3    H218841   4.320   2.127   1.027
 6293TIP3   OH218842   5.404   0.348   2.848
 6293TIP3    H118843   5.422   0.327   2.939
 6293TIP3    H218844   5.444   0.277   2.798
 6294TIP3   OH218845   4.568   1.882   2.374
 6294TIP3    H118846   4.602   1.796   2.349
 6294TIP3    H218847   4.604   1.898   2.461
 6295TIP3   OH218848   2.434   2.922   2.939
 6295TIP3    H118849   2.488   2.992   2.903
 6295TIP3    H218850   2.494   2.869   2.991
 6296TIP3   OH218851   2.029   6.469   2.368
 6296TIP3    H118852   2.006   6.380   2.394
 6296TIP3    H218853   1.976   6.486   2.290
 6297TIP3   OH218854   0.799   6.425   2.504
 6297TIP3    H118855   0.751   6.366   2.563
 6297TIP3    H218856   0.868   6.370   2.466
 6298TIP3   OH218857   6.887   3.599   2.475
 6298TIP3    H118858   6.893   3.614   2.381
 6298TIP3    H218859   6.972   3.627   2.510
 6299TIP3   OH218860   1.037   2.863   0.423
 6299TIP3    H118861   1.093   2.917   0.478
 6299TIP3    H218862   1.054   2.894   0.333
 6300TIP3   OH218863   5.406   1.970   4.687
 6300TIP3    H118864   5.491   1.935   4.660
 6300TIP3    H218865   5.402   2.058   4.651
 6301TIP3   OH218866   0.351   1.828   5.841
 6301TIP3    H118867   0.329   1.739   5.868
 6301TIP3    H218868   0.346   1.880   5.922
 6302TIP3   OH218869   4.568   4.834   4.708
 6302TIP3    H118870   4.560   4.870   4.797
 6302TIP3    H218871   4.599   4.907   4.655
 6303TIP3   OH218872   4.326   0.723   2.168
 6303TIP3    H118873   4.306   0.644   2.217
 6303TIP3    H218874   4.284   0.710   2.083
 6304TIP3   OH218875   5.061   0.150   4.061
 6304TIP3    H118876   5.034   0.088   4.129
 6304TIP3    H218877   4.994   0.141   3.993
 6305TIP3   OH218878   5.997   4.234   1.606
 6305TIP3    H118879   6.037   4.164   1.657
 6305TIP3    H218880   5.903   4.224   1.619
 6306TIP3   OH218881   4.931   2.337   5.427
 6306TIP3    H118882   4.862   2.343   5.492
 6306TIP3    H218883   4.917   2.412   5.369
 6307TIP3   OH218884   1.498   0.564   4.982
 6307TIP3    H118885   1.505   0.536   4.890
 6307TIP3    H218886   1.567   0.515   5.027
 6308TIP3   OH218887   1.725   2.023   0.397
 6308TIP3    H118888   1.629   2.026   0.402
 6308TIP3    H218889   1.744   2.023   0.304
 6309TIP3   OH218890   6.680   5.928   0.916
 6309TIP3    H118891   6.654   5.968   0.999
 6309TIP3    H218892   6.698   5.837   0.938
 6310TIP3   OH218893   5.729   6.728   1.015
 6310TIP3    H118894   5.812   6.743   1.060
 6310TIP3    H218895   5.681   6.810   1.026
 6311TIP3   OH218896   5.721   6.425   4.302
 6311TIP3    H118897   5.678   6.505   4.271
 6311TIP3    H218898   5.717   6.365   4.227
 6312TIP3   OH218899   2.505   2.999   5.350
 6312TIP3    H118900   2.486   3.002   5.444
 6312TIP3    H218901   2.418   2.997   5.308
 6313TIP3   OH218902   0.534   1.078   3.143
 6313TIP3    H118903   0.469   1.012   3.168
 6313TIP3    H218904   0.585   1.092   3.223
 6314TIP3   OH218905   5.487   0.806   2.459
 6314TIP3    H118906   5.500   0.888   2.507
 6314TIP3    H218907   5.489   0.738   2.527
 6315TIP3   OH218908   2.733   5.232   0.725
 6315TIP3    H118909   2.702   5.144   0.747
 6315TIP3    H218910   2.662   5.290   0.754
 6316TIP3   OH218911   4.554   3.288   0.875
 6316TIP3    H118912   4.594   3.346   0.810
 6316TIP3    H218913   4.460   3.297   0.861
 6317TIP3   OH218914   2.907   1.753   2.709
 6317TIP3    H118915   2.954   1.778   2.788
 6317TIP3    H218916   2.859   1.832   2.684
 6318TIP3   OH218917   2.742   4.451   2.416
 6318TIP3    H118918   2.711   4.463   2.326
 6318TIP3    H218919   2.834   4.429   2.407
 6319TIP3   OH218920   5.906   5.258   4.654
 6319TIP3    H118921   5.924   5.247   4.560
 6319TIP3    H218922   5.819   5.220   4.666
 6320TIP3   OH218923   4.093   4.628   1.200
 6320TIP3    H118924   4.096   4.700   1.137
 6320TIP3    H218925   4.008   4.587   1.186
 6321TIP3   OH218926   4.945   5.029   2.700
 6321TIP3    H118927   4.876   5.051   2.637
 6321TIP3    H218928   4.915   4.949   2.742
 6322TIP3   OH218929   3.741   0.655   3.479
 6322TIP3    H118930   3.771   0.620   3.395
 6322TIP3    H218931   3.819   0.651   3.535
 6323TIP3   OH218932   2.411   4.390   5.807
 6323TIP3    H118933   2.415   4.466   5.750
 6323TIP3    H218934   2.317   4.376   5.821
 6324TIP3   OH218935   2.341   3.962   1.862
 6324TIP3    H118936   2.422   3.949   1.813
 6324TIP3    H218937   2.297   3.877   1.860
 6325TIP3   OH218938   5.078   5.215   1.951
 6325TIP3    H118939   5.138   5.281   1.916
 6325TIP3    H218940   5.027   5.186   1.875
 6326TIP3   OH218941   2.006   5.061   2.249
 6326TIP3    H118942   1.958   5.079   2.168
 6326TIP3    H218943   2.026   5.147   2.284
 6327TIP3   OH218944   7.143   3.393   2.436
 6327TIP3    H118945   7.149   3.399   2.341
 6327TIP3    H218946   7.204   3.459   2.468
 6328TIP3   OH218947   1.204   4.323   0.788
 6328TIP3    H118948   1.215   4.298   0.696
 6328TIP3    H218949   1.175   4.242   0.831
 6329TIP3   OH218950   2.359   1.387   5.411
 6329TIP3    H118951   2.448   1.360   5.391
 6329TIP3    H218952   2.366   1.436   5.493
 6330TIP3   OH218953   2.998   1.397   1.183
 6330TIP3    H118954   3.050   1.326   1.146
 6330TIP3    H218955   2.907   1.375   1.160
 6331TIP3   OH218956   1.919   1.330   1.583
 6331TIP3    H118957   1.959   1.393   1.522
 6331TIP3    H218958   1.885   1.261   1.526
 6332TIP3   OH218959   0.090   4.137   4.021
 6332TIP3    H118960   0.085   4.079   4.097
 6332TIP3    H218961   0.122   4.081   3.950
 6333TIP3   OH218962   2.436   4.905   0.043
 6333TIP3    H118963   2.422   4.968   0.114
 6333TIP3    H218964   2.394   4.825   0.074
 6334TIP3   OH218965   0.315   3.006   1.568
 6334TIP3    H118966   0.299   2.920   1.606
 6334TIP3    H218967   0.325   2.989   1.474
 6335TIP3   OH218968   5.884   1.863   0.917
 6335TIP3    H118969   5.908   1.847   1.008
 6335TIP3    H218970   5.881   1.776   0.877
 6336TIP3   OH218971   3.961   2.527   3.026
 6336TIP3    H118972   3.919   2.453   3.068
 6336TIP3    H218973   3.927   2.527   2.937
 6337TIP3   OH218974   0.089   4.936   5.869
 6337TIP3    H118975   0.173   4.974   5.893
 6337TIP3    H218976   0.069   4.973   5.783
 6338TIP3   OH218977   4.175   6.566   1.921
 6338TIP3    H118978   4.161   6.652   1.962
 6338TIP3    H218979   4.160   6.503   1.992
 6339TIP3   OH218980   6.748   4.291   0.555
 6339TIP3    H118981   6.775   4.237   0.480
 6339TIP3    H218982   6.769   4.238   0.631
 6340TIP3   OH218983   4.310   0.835   0.791
 6340TIP3    H118984   4.331   0.745   0.765
 6340TIP3    H218985   4.377   0.858   0.855
 6341TIP3   OH218986   5.689   5.023   0.654
 6341TIP3    H118987   5.594   5.031   0.655
 6341TIP3    H218988   5.705   4.929   0.669
 6342TIP3   OH218989   1.691   5.264   3.140
 6342TIP3    H118990   1.709   5.316   3.219
 6342TIP3    H218991   1.707   5.174   3.167
 6343TIP3   OH218992   1.130   1.062   1.739
 6343TIP3    H118993   1.053   1.006   1.745
 6343TIP3    H218994   1.112   1.135   1.798
 6344TIP3   OH218995   2.859   2.141   5.000
 6344TIP3    H118996   2.813   2.193   4.934
 6344TIP3    H218997   2.938   2.191   5.019
 6345TIP3   OH218998   3.062   2.830   0.798
 6345TIP3    H118999   3.068   2.780   0.716
 6345TIP3    H219000   3.049   2.763   0.866
 6346TIP3   OH219001   0.087   1.410   2.380
 6346TIP3    H119002   0.009   1.465   2.388
 6346TIP3    H219003   0.115   1.421   2.289
 6347TIP3   OH219004   2.368   5.397   5.880
 6347TIP3    H119005   2.334   5.308   5.884
 6347TIP3    H219006   2.453   5.388   5.837
 6348TIP3   OH219007   0.921   5.058   4.855
 6348TIP3    H119008   0.993   5.049   4.793
 6348TIP3    H219009   0.845   5.025   4.807
 6349TIP3   OH219010   1.764   1.528   0.595
 6349TIP3    H119011   1.851   1.537   0.555
 6349TIP3    H219012   1.772   1.451   0.652
 6350TIP3   OH219013   3.486   0.856   2.226
 6350TIP3    H119014   3.502   0.766   2.253
 6350TIP3    H219015   3.407   0.851   2.173
 6351TIP3   OH219016   3.153   2.699   0.514
 6351TIP3    H119017   3.149   2.735   0.426
 6351TIP3    H219018   3.247   2.692   0.534
 6352TIP3   OH219019   5.357   6.491   5.448
 6352TIP3    H119020   5.276   6.516   5.493
 6352TIP3    H219021   5.427   6.520   5.506
 6353TIP3   OH219022   2.651   6.378   0.133
 6353TIP3    H119023   2.676   6.469   0.116
 6353TIP3    H219024   2.629   6.376   0.226
 6354TIP3   OH219025   2.402   2.530   5.222
 6354TIP3    H119026   2.329   2.543   5.281
 6354TIP3    H219027   2.471   2.588   5.254
 6355TIP3   OH219028   4.403   4.507   2.272
 6355TIP3    H119029   4.362   4.421   2.286
 6355TIP3    H219030   4.480   4.506   2.328
 6356TIP3   OH219031   6.487   1.344   1.782
 6356TIP3    H119032   6.552   1.317   1.717
 6356TIP3    H219033   6.416   1.281   1.774
 6357TIP3   OH219034   5.905   5.710   1.696
 6357TIP3    H119035   5.967   5.776   1.727
 6357TIP3    H219036   5.870   5.747   1.615
 6358TIP3   OH219037   5.161   5.974   2.349
 6358TIP3    H119038   5.207   5.911   2.403
 6358TIP3    H219039   5.163   6.055   2.399
 6359TIP3   OH219040   4.239   4.433   1.354
 6359TIP3    H119041   4.307   4.384   1.308
 6359TIP3    H219042   4.216   4.504   1.294
 6360TIP3   OH219043   4.906   0.729   4.533
 6360TIP3    H119044   4.835   0.734   4.469
 6360TIP3    H219045   4.972   0.673   4.492
 6361TIP3   OH219046   2.600   5.966   1.031
 6361TIP3    H119047   2.606   6.060   1.016
 6361TIP3    H219048   2.691   5.936   1.037
 6362TIP3   OH219049   1.286   2.855   1.012
 6362TIP3    H119050   1.272   2.763   0.988
 6362TIP3    H219051   1.225   2.869   1.085
 6363TIP3   OH219052   1.700   5.924   1.046
 6363TIP3    H119053   1.695   5.861   0.973
 6363TIP3    H219054   1.636   5.992   1.023
 6364TIP3   OH219055   6.932   2.372   1.843
 6364TIP3    H119056   6.879   2.422   1.781
 6364TIP3    H219057   7.022   2.392   1.819
 6365TIP3   OH219058   7.057   0.195   0.168
 6365TIP3    H119059   7.090   0.110   0.138
 6365TIP3    H219060   7.015   0.176   0.252
 6366TIP3   OH219061   7.095   0.381   4.421
 6366TIP3    H119062   7.144   0.433   4.357
 6366TIP3    H219063   7.124   0.414   4.506
 6367TIP3   OH219064   6.214   4.384   1.719
 6367TIP3    H119065   6.159   4.375   1.641
 6367TIP3    H219066   6.183   4.317   1.779
 6368TIP3   OH219067   6.663   6.100   3.662
 6368TIP3    H119068   6.598   6.154   3.708
 6368TIP3    H219069   6.611   6.037   3.613
 6369TIP3   OH219070   3.647   3.991   0.941
 6369TIP3    H119071   3.709   3.965   1.009
 6369TIP3    H219072   3.611   3.909   0.908
 6370TIP3   OH219073   5.708   0.109   4.017
 6370TIP3    H119074   5.767   0.182   4.039
 6370TIP3    H219075   5.676   0.078   4.101
 6371TIP3   OH219076   6.657   0.925   5.036
 6371TIP3    H119077   6.676   0.860   4.968
 6371TIP3    H219078   6.728   0.913   5.100
 6372TIP3   OH219079   7.055   5.393   4.663
 6372TIP3    H119080   7.032   5.347   4.744
 6372TIP3    H219081   7.121   5.457   4.690
 6373TIP3   OH219082   6.367   0.119   3.602
 6373TIP3    H119083   6.440   0.060   3.617
 6373TIP3    H219084   6.304   0.097   3.671
 6374TIP3   OH219085   0.880   6.577   2.764
 6374TIP3    H119086   0.890   6.540   2.677
 6374TIP3    H219087   0.959   6.549   2.811
 6375TIP3   OH219088   6.728   3.353   1.488
 6375TIP3    H119089   6.751   3.432   1.538
 6375TIP3    H219090   6.633   3.346   1.497
 6376TIP3   OH219091   1.856   1.578   4.470
 6376TIP3    H119092   1.822   1.665   4.449
 6376TIP3    H219093   1.780   1.520   4.466
 6377TIP3   OH219094   6.569   4.605   5.451
 6377TIP3    H119095   6.594   4.692   5.419
 6377TIP3    H219096   6.520   4.623   5.532
 6378TIP3   OH219097   4.906   0.630   3.921
 6378TIP3    H119098   4.969   0.683   3.970
 6378TIP3    H219099   4.913   0.661   3.831
 6379TIP3   OH219100   3.451   2.251   4.357
 6379TIP3    H119101   3.389   2.263   4.429
 6379TIP3    H219102   3.455   2.156   4.343
 6380TIP3   OH219103   5.136   4.212   3.574
 6380TIP3    H119104   5.168   4.301   3.558
 6380TIP3    H219105   5.116   4.211   3.668
 6381TIP3   OH219106   3.303   2.786   2.442
 6381TIP3    H119107   3.344   2.699   2.448
 6381TIP3    H219108   3.275   2.805   2.531
 6382TIP3   OH219109   2.880   5.708   2.573
 6382TIP3    H119110   2.818   5.719   2.645
 6382TIP3    H219111   2.926   5.792   2.569
 6383TIP3   OH219112   1.968   3.690   1.241
 6383TIP3    H119113   2.024   3.617   1.268
 6383TIP3    H219114   1.888   3.680   1.293
 6384TIP3   OH219115   1.213   3.489   5.414
 6384TIP3    H119116   1.252   3.566   5.456
 6384TIP3    H219117   1.128   3.521   5.382
 6385TIP3   OH219118   3.087   3.214   4.933
 6385TIP3    H119119   3.100   3.309   4.936
 6385TIP3    H219120   3.013   3.198   4.992
 6386TIP3   OH219121   2.383   5.397   2.420
 6386TIP3    H119122   2.329   5.476   2.415
 6386TIP3    H219123   2.363   5.359   2.505
 6387TIP3   OH219124   2.254   2.906   0.911
 6387TIP3    H119125   2.322   2.945   0.856
 6387TIP3    H219126   2.177   2.904   0.855
 6388TIP3   OH219127   6.386   2.825   4.813
 6388TIP3    H119128   6.330   2.753   4.784
 6388TIP3    H219129   6.334   2.903   4.797
 6389TIP3   OH219130   3.611   5.531   3.418
 6389TIP3    H119131   3.697   5.552   3.381
 6389TIP3    H219132   3.619   5.441   3.449
 6390TIP3   OH219133   6.331   4.291   0.280
 6390TIP3    H119134   6.386   4.306   0.358
 6390TIP3    H219135   6.261   4.355   0.287
 6391TIP3   OH219136   6.584   3.630   5.894
 6391TIP3    H119137   6.522   3.675   5.836
 6391TIP3    H219138   6.538   3.550   5.920
 6392TIP3   OH219139   2.153   1.431   3.666
 6392TIP3    H119140   2.222   1.410   3.604
 6392TIP3    H219141   2.186   1.399   3.750
 6393TIP3   OH219142   1.504   6.709   1.864
 6393TIP3    H119143   1.455   6.692   1.945
 6393TIP3    H219144   1.581   6.652   1.871
 6394TIP3   OH219145  -0.009   3.340   0.237
 6394TIP3    H119146   0.047   3.268   0.265
 6394TIP3    H219147  -0.026   3.322   0.144
 6395TIP3   OH219148   4.512   5.002   5.461
 6395TIP3    H119149   4.535   5.025   5.551
 6395TIP3    H219150   4.453   4.927   5.470
 6396TIP3   OH219151   5.325   0.636   0.144
 6396TIP3    H119152   5.402   0.615   0.091
 6396TIP3    H219153   5.305   0.727   0.121
 6397TIP3   OH219154   2.621   0.229   2.199
 6397TIP3    H119155   2.574   0.261   2.276
 6397TIP3    H219156   2.665   0.149   2.229
 6398TIP3   OH219157   5.892   4.664   1.687
 6398TIP3    H119158   5.832   4.595   1.657
 6398TIP3    H219159   5.951   4.678   1.613
 6399TIP3   OH219160   6.040   4.663   1.443
 6399TIP3    H119161   6.026   4.757   1.431
 6399TIP3    H219162   6.121   4.645   1.395
 6400TIP3   OH219163   1.108   1.038   1.040
 6400TIP3    H119164   1.127   0.959   1.090
 6400TIP3    H219165   1.186   1.092   1.050
 6401TIP3   OH219166   4.140   5.024   3.230
 6401TIP3    H119167   4.074   5.077   3.274
 6401TIP3    H219168   4.166   5.075   3.154
 6402TIP3   OH219169   5.445   3.853   5.811
 6402TIP3    H119170   5.435   3.948   5.805
 6402TIP3    H219171   5.535   3.840   5.840
 6403TIP3   OH219172   6.637   6.631   3.858
 6403TIP3    H119173   6.637   6.659   3.950
 6403TIP3    H219174   6.591   6.701   3.811
 6404TIP3   OH219175   2.842   4.071   5.344
 6404TIP3    H119176   2.876   4.028   5.266
 6404TIP3    H219177   2.882   4.158   5.342
 6405TIP3   OH219178   1.079   5.473   1.892
 6405TIP3    H119179   1.120   5.442   1.972
 6405TIP3    H219180   1.005   5.527   1.921
 6406TIP3   OH219181   0.620   5.982   3.092
 6406TIP3    H119182   0.529   5.981   3.062
 6406TIP3    H219183   0.614   5.989   3.187
 6407TIP3   OH219184   1.483   3.975   2.503
 6407TIP3    H119185   1.561   3.926   2.475
 6407TIP3    H219186   1.504   4.004   2.592
 6408TIP3   OH219187   1.297   1.706   5.293
 6408TIP3    H119188   1.250   1.784   5.323
 6408TIP3    H219189   1.228   1.649   5.260
 6409TIP3   OH219190   7.082   5.484   0.300
 6409TIP3    H119191   7.120   5.398   0.319
 6409TIP3    H219192   7.152   5.546   0.323
 6410TIP3   OH219193   6.012   3.700   2.093
 6410TIP3    H119194   6.080   3.688   2.027
 6410TIP3    H219195   5.930   3.681   2.048
 6411TIP3   OH219196   2.446   4.886   3.961
 6411TIP3    H119197   2.380   4.875   3.892
 6411TIP3    H219198   2.530   4.873   3.917
 6412TIP3   OH219199   4.453   4.388   0.788
 6412TIP3    H119200   4.400   4.317   0.825
 6412TIP3    H219201   4.412   4.468   0.822
 6413TIP3   OH219202   2.891   6.362   3.178
 6413TIP3    H119203   2.842   6.407   3.109
 6413TIP3    H219204   2.830   6.360   3.252
 6414TIP3   OH219205   2.099   0.594   3.293
 6414TIP3    H119206   2.060   0.669   3.249
 6414TIP3    H219207   2.172   0.568   3.236
 6415TIP3   OH219208   7.087   2.541   2.130
 6415TIP3    H119209   7.020   2.608   2.117
 6415TIP3    H219210   7.105   2.543   2.224
 6416TIP3   OH219211   5.346   1.794   0.851
 6416TIP3    H119212   5.270   1.849   0.868
 6416TIP3    H219213   5.385   1.780   0.937
 6417TIP3   OH219214   4.798   5.197   3.551
 6417TIP3    H119215   4.884   5.237   3.559
 6417TIP3    H219216   4.788   5.145   3.631
 6418TIP3   OH219217   3.164   1.235   3.037
 6418TIP3    H119218   3.136   1.214   2.947
 6418TIP3    H219219   3.179   1.150   3.078
 6419TIP3   OH219220   0.429   3.277   2.632
 6419TIP3    H119221   0.481   3.257   2.554
 6419TIP3    H219222   0.416   3.372   2.628
 6420TIP3   OH219223   5.723   6.687   4.553
 6420TIP3    H119224   5.647   6.712   4.500
 6420TIP3    H219225   5.781   6.763   4.548
 6421TIP3   OH219226   5.805   6.581   0.450
 6421TIP3    H119227   5.780   6.550   0.537
 6421TIP3    H219228   5.854   6.509   0.412
 6422TIP3   OH219229   5.601   2.541   2.432
 6422TIP3    H119230   5.589   2.490   2.511
 6422TIP3    H219231   5.541   2.615   2.442
 6423TIP3   OH219232   1.079   5.079   5.696
 6423TIP3    H119233   1.006   5.141   5.697
 6423TIP3    H219234   1.135   5.108   5.624
 6424TIP3   OH219235   0.283   3.029   0.716
 6424TIP3    H119236   0.308   2.939   0.696
 6424TIP3    H219237   0.204   3.044   0.664
 6425TIP3   OH219238   4.442   6.399   2.761
 6425TIP3    H119239   4.352   6.394   2.730
 6425TIP3    H219240   4.459   6.493   2.772
 6426TIP3   OH219241   4.960   1.196   4.025
 6426TIP3    H119242   5.010   1.148   4.091
 6426TIP3    H219243   4.932   1.276   4.070
 6427TIP3   OH219244   2.831   1.900   3.861
 6427TIP3    H119245   2.846   1.842   3.935
 6427TIP3    H219246   2.890   1.868   3.793
 6428TIP3   OH219247   6.527   0.122   1.039
 6428TIP3    H119248   6.482   0.093   0.959
 6428TIP3    H219249   6.463   0.109   1.109
 6429TIP3   OH219250   7.044   6.050   3.140
 6429TIP3    H119251   7.098   6.122   3.173
 6429TIP3    H219252   6.984   6.092   3.078
 6430TIP3   OH219253   0.387   5.424   3.070
 6430TIP3    H119254   0.351   5.403   2.984
 6430TIP3    H219255   0.465   5.370   3.078
 6431TIP3   OH219256   0.051   3.913   3.350
 6431TIP3    H119257   0.141   3.944   3.357
 6431TIP3    H219258   0.043   3.846   3.418
 6432TIP3   OH219259   4.528   1.226   3.876
 6432TIP3    H119260   4.528   1.285   3.801
 6432TIP3    H219261   4.561   1.143   3.841
 6433TIP3   OH219262   5.682   5.697   5.370
 6433TIP3    H119263   5.647   5.781   5.401
 6433TIP3    H219264   5.657   5.634   5.438
 6434TIP3   OH219265   6.667   4.513   1.450
 6434TIP3    H119266   6.630   4.427   1.432
 6434TIP3    H219267   6.744   4.518   1.393
 6435TIP3   OH219268   7.132   0.149   2.095
 6435TIP3    H119269   7.206   0.149   2.034
 6435TIP3    H219270   7.100   0.059   2.096
 6436TIP3   OH219271   4.418   4.161   4.342
 6436TIP3    H119272   4.372   4.179   4.424
 6436TIP3    H219273   4.400   4.238   4.287
 6437TIP3   OH219274   4.899   4.644   1.133
 6437TIP3    H119275   4.949   4.622   1.211
 6437TIP3    H219276   4.953   4.711   1.089
 6438TIP3   OH219277   1.072   3.579   0.759
 6438TIP3    H119278   1.133   3.609   0.691
 6438TIP3    H219279   1.045   3.659   0.803
 6439TIP3   OH219280   6.714   5.603   4.877
 6439TIP3    H119281   6.764   5.596   4.959
 6439TIP3    H219282   6.690   5.513   4.856
 6440TIP3   OH219283   6.298   3.325   3.320
 6440TIP3    H119284   6.212   3.347   3.283
 6440TIP3    H219285   6.355   3.397   3.292
 6441TIP3   OH219286   0.989   3.123   4.601
 6441TIP3    H119287   0.904   3.078   4.604
 6441TIP3    H219288   1.007   3.133   4.507
 6442TIP3   OH219289   6.118   1.479   5.189
 6442TIP3    H119290   6.055   1.533   5.238
 6442TIP3    H219291   6.066   1.442   5.118
 6443TIP3   OH219292   4.943   5.312   1.669
 6443TIP3    H119293   4.931   5.339   1.578
 6443TIP3    H219294   5.034   5.284   1.675
 6444TIP3   OH219295   1.503   2.561   3.916
 6444TIP3    H119296   1.451   2.628   3.962
 6444TIP3    H219297   1.548   2.514   3.986
 6445TIP3   OH219298   0.296   6.633   4.585
 6445TIP3    H119299   0.350   6.695   4.633
 6445TIP3    H219300   0.293   6.555   4.640
 6446TIP3   OH219301   5.679   6.446   1.343
 6446TIP3    H119302   5.718   6.361   1.363
 6446TIP3    H219303   5.703   6.462   1.252
 6447TIP3   OH219304   3.177   3.224   2.639
 6447TIP3    H119305   3.103   3.273   2.677
 6447TIP3    H219306   3.242   3.221   2.708
 6448TIP3   OH219307   5.162   4.375   2.804
 6448TIP3    H119308   5.168   4.470   2.812
 6448TIP3    H219309   5.088   4.351   2.860
 6449TIP3   OH219310   2.696   4.354   0.373
 6449TIP3    H119311   2.746   4.319   0.299
 6449TIP3    H219312   2.660   4.436   0.340
 6450TIP3   OH219313   2.375   2.218   4.321
 6450TIP3    H119314   2.466   2.230   4.294
 6450TIP3    H219315   2.328   2.202   4.240
 6451TIP3   OH219316   6.328   1.164   0.501
 6451TIP3    H119317   6.398   1.180   0.439
 6451TIP3    H219318   6.314   1.070   0.498
 6452TIP3   OH219319   3.225   4.495   0.345
 6452TIP3    H119320   3.178   4.575   0.369
 6452TIP3    H219321   3.169   4.424   0.377
 6453TIP3   OH219322   7.005   5.766   5.080
 6453TIP3    H119323   7.013   5.781   4.986
 6453TIP3    H219324   7.094   5.778   5.114
 6454TIP3   OH219325   0.104   1.742   4.225
 6454TIP3    H119326   0.194   1.730   4.255
 6454TIP3    H219327   0.081   1.658   4.184
 6455TIP3   OH219328   0.510   1.880   4.760
 6455TIP3    H119329   0.485   1.789   4.774
 6455TIP3    H219330   0.587   1.893   4.816
 6456TIP3   OH219331   3.566   1.174   1.409
 6456TIP3    H119332   3.521   1.206   1.331
 6456TIP3    H219333   3.513   1.206   1.482
 6457TIP3   OH219334   1.100   5.809   3.941
 6457TIP3    H119335   1.055   5.850   3.867
 6457TIP3    H219336   1.032   5.755   3.983
 6458TIP3   OH219337   2.992   2.330   1.173
 6458TIP3    H119338   2.913   2.342   1.120
 6458TIP3    H219339   3.062   2.369   1.120
 6459TIP3   OH219340   3.303   2.217   0.337
 6459TIP3    H119341   3.254   2.136   0.346
 6459TIP3    H219342   3.391   2.195   0.370
 6460TIP3   OH219343   5.252   3.197   4.960
 6460TIP3    H119344   5.175   3.253   4.946
 6460TIP3    H219345   5.218   3.108   4.960
 6461TIP3   OH219346   5.343   2.549   3.180
 6461TIP3    H119347   5.384   2.543   3.266
 6461TIP3    H219348   5.289   2.628   3.184
 6462TIP3   OH219349   7.170   3.912   2.710
 6462TIP3    H119350   7.226   3.885   2.783
 6462TIP3    H219351   7.154   4.005   2.725
 6463TIP3   OH219352   4.866   0.364   3.861
 6463TIP3    H119353   4.903   0.338   3.776
 6463TIP3    H219354   4.896   0.453   3.874
 6464TIP3   OH219355   0.557   0.167   1.023
 6464TIP3    H119356   0.651   0.186   1.021
 6464TIP3    H219357   0.550   0.086   1.073
 6465TIP3   OH219358   3.256   1.798   0.634
 6465TIP3    H119359   3.309   1.875   0.616
 6465TIP3    H219360   3.168   1.832   0.652
 6466TIP3   OH219361   1.285   4.422   1.948
 6466TIP3    H119362   1.277   4.332   1.916
 6466TIP3    H219363   1.315   4.412   2.039
 6467TIP3   OH219364   5.035   0.632   5.038
 6467TIP3    H119365   4.979   0.629   4.960
 6467TIP3    H219366   4.997   0.568   5.097
 6468TIP3   OH219367   5.572   0.206   3.411
 6468TIP3    H119368   5.643   0.270   3.404
 6468TIP3    H219369   5.613   0.126   3.442
 6469TIP3   OH219370   2.384   6.475   1.961
 6469TIP3    H119371   2.362   6.472   1.868
 6469TIP3    H219372   2.409   6.566   1.977
 6470TIP3   OH219373   5.979   2.344   0.064
 6470TIP3    H119374   5.918   2.378   0.129
 6470TIP3    H219375   5.957   2.251   0.058
 6471TIP3   OH219376   3.014   5.009   0.736
 6471TIP3    H119377   3.004   4.916   0.754
 6471TIP3    H219378   3.065   5.042   0.811
 6472TIP3   OH219379   7.053   5.818   2.530
 6472TIP3    H119380   7.031   5.845   2.441
 6472TIP3    H219381   7.095   5.733   2.519
 6473TIP3   OH219382   5.543   3.911   1.114
 6473TIP3    H119383   5.573   3.858   1.040
 6473TIP3    H219384   5.447   3.904   1.111
 6474TIP3   OH219385   6.954   1.794   5.716
 6474TIP3    H119386   6.973   1.852   5.641
 6474TIP3    H219387   6.891   1.731   5.681
 6475TIP3   OH219388   2.782   2.572   4.115
 6475TIP3    H119389   2.815   2.613   4.195
 6475TIP3    H219390   2.690   2.599   4.111
 6476TIP3   OH219391   5.509   4.574   5.788
 6476TIP3    H119392   5.415   4.563   5.795
 6476TIP3    H219393   5.534   4.623   5.866
 6477TIP3   OH219394   2.808   6.223   4.956
 6477TIP3    H119395   2.882   6.203   5.012
 6477TIP3    H219396   2.758   6.141   4.953
 6478TIP3   OH219397   1.306   0.458   4.721
 6478TIP3    H119398   1.318   0.409   4.639
 6478TIP3    H219399   1.378   0.521   4.721
 6479TIP3   OH219400   4.332   2.195   4.985
 6479TIP3    H119401   4.262   2.254   4.956
 6479TIP3    H219402   4.318   2.185   5.079
 6480TIP3   OH219403   6.954   2.068   1.075
 6480TIP3    H119404   6.916   2.048   0.990
 6480TIP3    H219405   7.045   2.090   1.056
 6481TIP3   OH219406   1.895   3.584   2.813
 6481TIP3    H119407   1.910   3.642   2.888
 6481TIP3    H219408   1.816   3.535   2.836
 6482TIP3   OH219409   2.904   6.667   4.991
 6482TIP3    H119410   2.983   6.662   4.937
 6482TIP3    H219411   2.919   6.742   5.049
 6483TIP3   OH219412   0.040   0.703   3.689
 6483TIP3    H119413   0.099   0.667   3.755
 6483TIP3    H219414   0.023   0.630   3.629
 6484TIP3   OH219415   4.568   0.633   5.414
 6484TIP3    H119416   4.663   0.625   5.420
 6484TIP3    H219417   4.553   0.723   5.383
 6485TIP3   OH219418   0.125   4.226   0.812
 6485TIP3    H119419   0.126   4.243   0.906
 6485TIP3    H219420   0.140   4.132   0.805
 6486TIP3   OH219421   0.301   4.773   3.351
 6486TIP3    H119422   0.236   4.843   3.344
 6486TIP3    H219423   0.366   4.807   3.412
 6487TIP3   OH219424   1.221   1.135   5.195
 6487TIP3    H119425   1.160   1.175   5.133
 6487TIP3    H219426   1.304   1.132   5.147
 6488TIP3   OH219427   6.627   0.282   2.284
 6488TIP3    H119428   6.614   0.331   2.366
 6488TIP3    H219429   6.717   0.302   2.258
 6489TIP3   OH219430   0.168   6.113   0.286
 6489TIP3    H119431   0.136   6.180   0.225
 6489TIP3    H219432   0.189   6.161   0.366
 6490TIP3   OH219433   0.914   4.240   2.504
 6490TIP3    H119434   0.856   4.303   2.460
 6490TIP3    H219435   0.998   4.286   2.512
 6491TIP3   OH219436   3.198   1.049   2.323
 6491TIP3    H119437   3.163   0.974   2.370
 6491TIP3    H219438   3.293   1.036   2.324
 6492TIP3   OH219439   3.651   4.116   5.732
 6492TIP3    H119440   3.665   4.174   5.657
 6492TIP3    H219441   3.605   4.040   5.695
 6493TIP3   OH219442   1.466   4.360   1.696
 6493TIP3    H119443   1.444   4.416   1.770
 6493TIP3    H219444   1.561   4.363   1.692
 6494TIP3   OH219445   6.082   5.719   5.026
 6494TIP3    H119446   6.009   5.676   5.071
 6494TIP3    H219447   6.074   5.811   5.050
 6495TIP3   OH219448   0.023   1.967   4.092
 6495TIP3    H119449   0.036   1.881   4.133
 6495TIP3    H219450   0.098   2.019   4.120
 6496TIP3   OH219451   5.992   6.643   5.448
 6496TIP3    H119452   6.072   6.604   5.412
 6496TIP3    H219453   6.022   6.688   5.528
 6497TIP3   OH219454   5.123   4.910   0.521
 6497TIP3    H119455   5.038   4.870   0.506
 6497TIP3    H219456   5.106   5.005   0.519
 6498TIP3   OH219457   2.166   6.008   1.359
 6498TIP3    H119458   2.119   5.986   1.279
 6498TIP3    H219459   2.106   6.066   1.407
 6499TIP3   OH219460   2.905   2.913   4.399
 6499TIP3    H119461   2.952   2.843   4.353
 6499TIP3    H219462   2.961   2.935   4.473
 6500TIP3   OH219463   5.953   1.559   1.359
 6500TIP3    H119464   5.921   1.536   1.446
 6500TIP3    H219465   5.904   1.502   1.299
 6501TIP3   OH219466   2.987   6.426   5.111
 6501TIP3    H119467   3.003   6.373   5.033
 6501TIP3    H219468   2.972   6.515   5.077
 6502TIP3   OH219469   5.469   6.060   4.961
 6502TIP3    H119470   5.482   6.139   5.013
 6502TIP3    H219471   5.484   6.088   4.870
 6503TIP3   OH219472   0.296   3.748   3.439
 6503TIP3    H119473   0.315   3.662   3.476
 6503TIP3    H219474   0.340   3.810   3.498
 6504TIP3   OH219475   4.451   2.611   1.645
 6504TIP3    H119476   4.482   2.525   1.673
 6504TIP3    H219477   4.524   2.647   1.595
 6505TIP3   OH219478   0.240   5.869   3.688
 6505TIP3    H119479   0.191   5.928   3.631
 6505TIP3    H219480   0.267   5.924   3.762
 6506TIP3   OH219481   2.194   0.972   3.346
 6506TIP3    H119482   2.115   0.927   3.375
 6506TIP3    H219483   2.162   1.047   3.296
 6507TIP3   OH219484   7.154   4.770   0.926
 6507TIP3    H119485   7.214   4.701   0.899
 6507TIP3    H219486   7.210   4.845   0.946
 6508TIP3   OH219487   3.453   2.569   2.499
 6508TIP3    H119488   3.534   2.541   2.455
 6508TIP3    H219489   3.409   2.487   2.521
 6509TIP3   OH219490   3.468   2.597   3.215
 6509TIP3    H119491   3.550   2.635   3.246
 6509TIP3    H219492   3.410   2.601   3.291
 6510TIP3   OH219493   0.836   5.491   0.721
 6510TIP3    H119494   0.832   5.452   0.809
 6510TIP3    H219495   0.805   5.423   0.663
 6511TIP3   OH219496   4.623   1.043   2.627
 6511TIP3    H119497   4.619   1.089   2.711
 6511TIP3    H219498   4.538   0.998   2.621
 6512TIP3   OH219499   1.585   1.392   2.215
 6512TIP3    H119500   1.518   1.369   2.150
 6512TIP3    H219501   1.560   1.479   2.245
 6513TIP3   OH219502   1.944   4.373   4.470
 6513TIP3    H119503   1.940   4.469   4.465
 6513TIP3    H219504   1.957   4.355   4.563
 6514TIP3   OH219505   0.414   5.776   1.511
 6514TIP3    H119506   0.342   5.719   1.535
 6514TIP3    H219507   0.492   5.734   1.548
 6515TIP3   OH219508   4.881   2.035   5.624
 6515TIP3    H119509   4.953   2.022   5.685
 6515TIP3    H219510   4.864   2.129   5.625
 6516TIP3   OH219511   5.707   5.709   3.507
 6516TIP3    H119512   5.735   5.709   3.598
 6516TIP3    H219513   5.677   5.620   3.491
 6517TIP3   OH219514   5.595   5.506   3.298
 6517TIP3    H119515   5.587   5.543   3.210
 6517TIP3    H219516   5.514   5.457   3.311
 6518TIP3   OH219517   3.257   4.352   2.592
 6518TIP3    H119518   3.192   4.283   2.580
 6518TIP3    H219519   3.211   4.433   2.571
 6519TIP3   OH219520   0.439   2.057   0.533
 6519TIP3    H119521   0.404   2.011   0.609
 6519TIP3    H219522   0.488   1.989   0.486
 6520TIP3   OH219523   1.606   2.986   5.306
 6520TIP3    H119524   1.653   2.993   5.223
 6520TIP3    H219525   1.649   2.914   5.352
 6521TIP3   OH219526   3.607   6.018   4.961
 6521TIP3    H119527   3.548   5.943   4.954
 6521TIP3    H219528   3.594   6.067   4.880
 6522TIP3   OH219529   2.044   0.459   5.046
 6522TIP3    H119530   2.122   0.494   5.090
 6522TIP3    H219531   2.027   0.376   5.090
 6523TIP3   OH219532   4.513   4.680   3.554
 6523TIP3    H119533   4.503   4.772   3.580
 6523TIP3    H219534   4.479   4.630   3.629
 6524TIP3   OH219535   1.554   3.138   5.680
 6524TIP3    H119536   1.459   3.149   5.669
 6524TIP3    H219537   1.572   3.173   5.767
 6525TIP3   OH219538   7.177   4.590   1.832
 6525TIP3    H119539   7.098   4.591   1.778
 6525TIP3    H219540   7.244   4.632   1.778
 6526TIP3   OH219541   6.125   3.256   4.279
 6526TIP3    H119542   6.088   3.212   4.356
 6526TIP3    H219543   6.049   3.283   4.228
 6527TIP3   OH219544   4.260   3.966   4.926
 6527TIP3    H119545   4.231   4.048   4.965
 6527TIP3    H219546   4.326   3.992   4.862
 6528TIP3   OH219547   1.549   6.242   0.482
 6528TIP3    H119548   1.513   6.162   0.519
 6528TIP3    H219549   1.544   6.229   0.387
 6529TIP3   OH219550   3.974   6.048   0.051
 6529TIP3    H119551   3.954   5.958   0.075
 6529TIP3    H219552   3.968   6.049  -0.045
 6530TIP3   OH219553   1.796   4.116   4.830
 6530TIP3    H119554   1.795   4.021   4.839
 6530TIP3    H219555   1.850   4.146   4.903
 6531TIP3   OH219556   2.807   3.225   4.976
 6531TIP3    H119557   2.808   3.278   5.056
 6531TIP3    H219558   2.716   3.229   4.946
 6532TIP3   OH219559   3.142   6.308   5.426
 6532TIP3    H119560   3.221   6.257   5.411
 6532TIP3    H219561   3.143   6.375   5.358
 6533TIP3   OH219562   0.858   6.587   4.228
 6533TIP3    H119563   0.889   6.649   4.293
 6533TIP3    H219564   0.905   6.610   4.148
 6534TIP3   OH219565   3.786   1.024   3.738
 6534TIP3    H119566   3.822   1.054   3.654
 6534TIP3    H219567   3.815   0.932   3.744
 6535TIP3   OH219568   4.051   2.173   4.225
 6535TIP3    H119569   4.118   2.231   4.260
 6535TIP3    H219570   4.019   2.218   4.147
 6536TIP3   OH219571   4.366   1.845   2.935
 6536TIP3    H119572   4.418   1.789   2.993
 6536TIP3    H219573   4.389   1.935   2.962
 6537TIP3   OH219574   2.971   1.347   3.576
 6537TIP3    H119575   3.043   1.409   3.588
 6537TIP3    H219576   2.989   1.306   3.491
 6538TIP3   OH219577   2.519   6.676   3.925
 6538TIP3    H119578   2.542   6.628   3.846
 6538TIP3    H219579   2.449   6.736   3.897
 6539TIP3   OH219580   2.388   2.920   4.490
 6539TIP3    H119581   2.349   2.983   4.551
 6539TIP3    H219582   2.482   2.928   4.504
 6540TIP3   OH219583   2.105   3.436   1.299
 6540TIP3    H119584   2.154   3.456   1.219
 6540TIP3    H219585   2.088   3.342   1.292
 6541TIP3   OH219586   2.420   3.826   2.588
 6541TIP3    H119587   2.377   3.829   2.503
 6541TIP3    H219588   2.513   3.826   2.568
 6542TIP3   OH219589   0.322   4.262   0.124
 6542TIP3    H119590   0.378   4.338   0.113
 6542TIP3    H219591   0.242   4.283   0.074
 6543TIP3   OH219592   1.323   6.678   2.069
 6543TIP3    H119593   1.242   6.712   2.030
 6543TIP3    H219594   1.300   6.591   2.101
 6544TIP3   OH219595   2.724   3.059   3.999
 6544TIP3    H119596   2.734   3.061   4.094
 6544TIP3    H219597   2.814   3.062   3.965
 6545TIP3   OH219598   5.797   2.492   0.211
 6545TIP3    H119599   5.821   2.513   0.301
 6545TIP3    H219600   5.830   2.566   0.159
 6546TIP3   OH219601   5.367   1.497   2.454
 6546TIP3    H119602   5.313   1.429   2.495
 6546TIP3    H219603   5.440   1.448   2.415
 6547TIP3   OH219604   0.913   3.320   1.395
 6547TIP3    H119605   0.920   3.298   1.488
 6547TIP3    H219606   0.833   3.276   1.366
 6548TIP3   OH219607   5.386   4.611   3.311
 6548TIP3    H119608   5.409   4.685   3.254
 6548TIP3    H219609   5.306   4.639   3.356
 6549TIP3   OH219610   6.733   0.793   3.744
 6549TIP3    H119611   6.741   0.812   3.838
 6549TIP3    H219612   6.822   0.769   3.718
 6550TIP3   OH219613   2.861   0.246   3.305
 6550TIP3    H119614   2.875   0.191   3.382
 6550TIP3    H219615   2.788   0.303   3.329
 6551TIP3   OH219616   4.284   1.658   3.218
 6551TIP3    H119617   4.373   1.691   3.220
 6551TIP3    H219618   4.239   1.704   3.288
 6552TIP3   OH219619   1.711   6.108   1.523
 6552TIP3    H119620   1.729   6.162   1.600
 6552TIP3    H219621   1.618   6.121   1.504
 6553TIP3   OH219622   7.041   0.663   5.610
 6553TIP3    H119623   7.087   0.644   5.528
 6553TIP3    H219624   6.957   0.699   5.582
 6554TIP3   OH219625   5.497   1.926   2.091
 6554TIP3    H119626   5.553   1.972   2.029
 6554TIP3    H219627   5.523   1.958   2.177
 6555TIP3   OH219628   0.232   4.288   0.394
 6555TIP3    H119629   0.294   4.264   0.325
 6555TIP3    H219630   0.147   4.259   0.362
 6556TIP3   OH219631   0.760   2.926   3.875
 6556TIP3    H119632   0.757   3.016   3.905
 6556TIP3    H219633   0.824   2.925   3.804
 6557TIP3   OH219634   2.744   1.460   5.846
 6557TIP3    H119635   2.705   1.386   5.892
 6557TIP3    H219636   2.788   1.421   5.770
 6558TIP3   OH219637   3.436   4.924   4.016
 6558TIP3    H119638   3.382   4.857   4.058
 6558TIP3    H219639   3.374   4.981   3.972
 6559TIP3   OH219640   0.317   2.159   5.111
 6559TIP3    H119641   0.223   2.179   5.118
 6559TIP3    H219642   0.346   2.209   5.034
 6560TIP3   OH219643   0.553   2.508   0.759
 6560TIP3    H119644   0.637   2.463   0.773
 6560TIP3    H219645   0.491   2.438   0.740
 6561TIP3   OH219646   6.991   3.080   5.466
 6561TIP3    H119647   6.916   3.031   5.499
 6561TIP3    H219648   6.962   3.113   5.381
 6562TIP3   OH219649   3.536   2.954   3.770
 6562TIP3    H119650   3.584   2.919   3.846
 6562TIP3    H219651   3.467   3.008   3.808
 6563TIP3   OH219652   4.154   6.050   2.275
 6563TIP3    H119653   4.168   6.105   2.351
 6563TIP3    H219654   4.226   5.986   2.278
 6564TIP3   OH219655   3.571   0.861   0.098
 6564TIP3    H119656   3.541   0.846   0.188
 6564TIP3    H219657   3.666   0.851   0.103
 6565TIP3   OH219658   3.921   1.162   0.513
 6565TIP3    H119659   3.935   1.131   0.424
 6565TIP3    H219660   3.827   1.154   0.527
 6566TIP3   OH219661   2.859   4.578   1.857
 6566TIP3    H119662   2.792   4.589   1.790
 6566TIP3    H219663   2.928   4.639   1.832
 6567TIP3   OH219664   0.864   6.724   3.475
 6567TIP3    H119665   0.861   6.791   3.544
 6567TIP3    H219666   0.773   6.699   3.462
 6568TIP3   OH219667   2.006   3.515   3.500
 6568TIP3    H119668   1.981   3.525   3.592
 6568TIP3    H219669   2.096   3.547   3.496
 6569TIP3   OH219670   3.561   6.595   4.068
 6569TIP3    H119671   3.643   6.546   4.060
 6569TIP3    H219672   3.579   6.660   4.136
 6570TIP3   OH219673   3.468   2.935   5.206
 6570TIP3    H119674   3.470   3.001   5.275
 6570TIP3    H219675   3.436   2.855   5.250
 6571TIP3   OH219676   0.413   5.886   5.443
 6571TIP3    H119677   0.472   5.818   5.412
 6571TIP3    H219678   0.404   5.869   5.537
 6572TIP3   OH219679   6.776   6.688   0.943
 6572TIP3    H119680   6.822   6.604   0.949
 6572TIP3    H219681   6.740   6.702   1.031
 6573TIP3   OH219682   5.972   3.559   0.280
 6573TIP3    H119683   6.051   3.513   0.309
 6573TIP3    H219684   5.901   3.521   0.332
 6574TIP3   OH219685   4.975   3.478   2.115
 6574TIP3    H119686   4.980   3.537   2.190
 6574TIP3    H219687   5.007   3.530   2.041
 6575TIP3   OH219688   5.296   1.669   0.086
 6575TIP3    H119689   5.235   1.693   0.016
 6575TIP3    H219690   5.258   1.590   0.125
 6576TIP3   OH219691   5.638   1.059   4.575
 6576TIP3    H119692   5.542   1.049   4.577
 6576TIP3    H219693   5.655   1.137   4.628
 6577TIP3   OH219694   1.305   4.142   2.161
 6577TIP3    H119695   1.232   4.196   2.191
 6577TIP3    H219696   1.309   4.069   2.223
 6578TIP3   OH219697   4.113   2.232   1.937
 6578TIP3    H119698   4.169   2.219   2.013
 6578TIP3    H219699   4.043   2.168   1.948
 6579TIP3   OH219700   6.643   0.425   2.755
 6579TIP3    H119701   6.711   0.359   2.743
 6579TIP3    H219702   6.689   0.502   2.788
 6580TIP3   OH219703   0.575   0.365   3.168
 6580TIP3    H119704   0.597   0.286   3.218
 6580TIP3    H219705   0.567   0.434   3.235
 6581TIP3   OH219706   0.694   5.397   2.504
 6581TIP3    H119707   0.782   5.406   2.540
 6581TIP3    H219708   0.707   5.359   2.417
 6582TIP3   OH219709   4.904   1.882   5.169
 6582TIP3    H119710   4.887   1.952   5.233
 6582TIP3    H219711   4.930   1.807   5.222
 6583TIP3   OH219712   2.861   3.715   3.817
 6583TIP3    H119713   2.874   3.649   3.886
 6583TIP3    H219714   2.797   3.776   3.854
 6584TIP3   OH219715   2.627   4.647   4.434
 6584TIP3    H119716   2.700   4.610   4.385
 6584TIP3    H219717   2.647   4.740   4.441
 6585TIP3   OH219718   6.962   0.393   5.132
 6585TIP3    H119719   7.013   0.335   5.076
 6585TIP3    H219720   6.907   0.443   5.072
 6586TIP3   OH219721   4.760   1.667   2.814
 6586TIP3    H119722   4.695   1.661   2.744
 6586TIP3    H219723   4.818   1.592   2.800
 6587TIP3   OH219724   3.784   3.318   1.653
 6587TIP3    H119725   3.693   3.346   1.660
 6587TIP3    H219726   3.830   3.371   1.718
 6588TIP3   OH219727   5.380   5.578   1.300
 6588TIP3    H119728   5.292   5.582   1.336
 6588TIP3    H219729   5.433   5.539   1.370
 6589TIP3   OH219730   6.002   0.081   3.649
 6589TIP3    H119731   5.967   0.140   3.581
 6589TIP3    H219732   6.013   0.136   3.726
 6590TIP3   OH219733   7.085   2.319   4.552
 6590TIP3    H119734   7.118   2.258   4.618
 6590TIP3    H219735   6.991   2.304   4.550
 6591TIP3   OH219736   7.021   5.000   3.082
 6591TIP3    H119737   7.054   4.911   3.097
 6591TIP3    H219738   7.068   5.054   3.145
 6592TIP3   OH219739   3.317   1.174   3.638
 6592TIP3    H119740   3.386   1.120   3.676
 6592TIP3    H219741   3.238   1.148   3.686
 6593TIP3   OH219742   3.152   0.366   4.017
 6593TIP3    H119743   3.078   0.385   3.960
 6593TIP3    H219744   3.135   0.416   4.097
 6594TIP3   OH219745   3.125   6.171   4.453
 6594TIP3    H119746   3.049   6.196   4.504
 6594TIP3    H219747   3.108   6.080   4.428
 6595TIP3   OH219748   4.246   5.404   1.466
 6595TIP3    H119749   4.186   5.402   1.540
 6595TIP3    H219750   4.313   5.339   1.487
 6596TIP3   OH219751   5.495   0.076   5.545
 6596TIP3    H119752   5.550   0.125   5.484
 6596TIP3    H219753   5.408   0.077   5.504
 6597TIP3   OH219754   6.420   0.521   3.134
 6597TIP3    H119755   6.458   0.553   3.215
 6597TIP3    H219756   6.347   0.581   3.117
 6598TIP3   OH219757   5.260   2.800   3.183
 6598TIP3    H119758   5.325   2.826   3.248
 6598TIP3    H219759   5.289   2.840   3.102
 6599TIP3   OH219760   4.432   3.444   5.035
 6599TIP3    H119761   4.505   3.442   4.973
 6599TIP3    H219762   4.359   3.407   4.987
 6600TIP3   OH219763   6.544   6.499   1.368
 6600TIP3    H119764   6.561   6.573   1.309
 6600TIP3    H219765   6.472   6.529   1.424
 6601TIP3   OH219766   0.070   0.310   4.197
 6601TIP3    H119767   0.021   0.389   4.217
 6601TIP3    H219768   0.162   0.337   4.200
 6602TIP3   OH219769   2.677   0.844   1.658
 6602TIP3    H119770   2.602   0.897   1.683
 6602TIP3    H219771   2.709   0.807   1.741
 6603TIP3   OH219772   6.756   6.328   1.506
 6603TIP3    H119773   6.712   6.401   1.462
 6603TIP3    H219774   6.695   6.302   1.576
 6604TIP3   OH219775   5.704   0.032   0.434
 6604TIP3    H119776   5.649  -0.045   0.451
 6604TIP3    H219777   5.641   0.101   0.410
 6605TIP3   OH219778   3.397   0.684   1.367
 6605TIP3    H119779   3.304   0.706   1.369
 6605TIP3    H219780   3.441   0.763   1.398
 6606TIP3   OH219781   3.122   1.644   3.885
 6606TIP3    H119782   3.194   1.585   3.862
 6606TIP3    H219783   3.066   1.592   3.942
 6607TIP3   OH219784   2.428   2.279   1.278
 6607TIP3    H119785   2.347   2.252   1.320
 6607TIP3    H219786   2.442   2.369   1.308
 6608TIP3   OH219787   3.442   4.326   0.413
 6608TIP3    H119788   3.418   4.234   0.402
 6608TIP3    H219789   3.364   4.374   0.383
 6609TIP3   OH219790   2.177   0.308   3.103
 6609TIP3    H119791   2.213   0.222   3.126
 6609TIP3    H219792   2.240   0.345   3.042
 6610TIP3   OH219793   6.694   5.083   4.670
 6610TIP3    H119794   6.719   4.995   4.699
 6610TIP3    H219795   6.601   5.075   4.647
 6611TIP3   OH219796   2.793   6.706   1.570
 6611TIP3    H119797   2.769   6.642   1.503
 6611TIP3    H219798   2.719   6.706   1.631
 6612TIP3   OH219799   3.035   2.171   3.000
 6612TIP3    H119800   3.020   2.153   3.092
 6612TIP3    H219801   3.123   2.137   2.983
 6613TIP3   OH219802   3.863   0.511   5.271
 6613TIP3    H119803   3.937   0.543   5.220
 6613TIP3    H219804   3.797   0.580   5.264
 6614TIP3   OH219805   5.546   4.801   3.460
 6614TIP3    H119806   5.470   4.826   3.512
 6614TIP3    H219807   5.517   4.725   3.410
 6615TIP3   OH219808   6.270   0.174   0.184
 6615TIP3    H119809   6.318   0.186   0.102
 6615TIP3    H219810   6.293   0.251   0.236
 6616TIP3   OH219811   5.095   5.842   2.787
 6616TIP3    H119812   5.185   5.857   2.758
 6616TIP3    H219813   5.056   5.930   2.791
 6617TIP3   OH219814   6.763   2.512   1.631
 6617TIP3    H119815   6.713   2.590   1.655
 6617TIP3    H219816   6.845   2.546   1.596
 6618TIP3   OH219817   3.792   2.288   4.737
 6618TIP3    H119818   3.822   2.227   4.805
 6618TIP3    H219819   3.789   2.235   4.657
 6619TIP3   OH219820   5.590   0.742   1.358
 6619TIP3    H119821   5.645   0.686   1.303
 6619TIP3    H219822   5.501   0.729   1.326
 6620TIP3   OH219823   3.688   1.271   3.308
 6620TIP3    H119824   3.754   1.328   3.348
 6620TIP3    H219825   3.705   1.278   3.214
 6621TIP3   OH219826   3.353   5.305   3.773
 6621TIP3    H119827   3.321   5.336   3.689
 6621TIP3    H219828   3.323   5.214   3.778
 6622TIP3   OH219829   0.154   0.041   3.142
 6622TIP3    H119830   0.215   0.069   3.211
 6622TIP3    H219831   0.071   0.081   3.167
 6623TIP3   OH219832   6.038   3.080   1.129
 6623TIP3    H119833   6.013   3.160   1.175
 6623TIP3    H219834   6.085   3.028   1.193
 6624TIP3   OH219835   5.053   0.674   0.586
 6624TIP3    H119836   5.009   0.590   0.587
 6624TIP3    H219837   5.060   0.700   0.678
 6625TIP3   OH219838   5.954   6.124   1.830
 6625TIP3    H119839   6.030   6.164   1.872
 6625TIP3    H219840   5.989   6.087   1.749
 6626TIP3   OH219841   0.740   0.789   0.710
 6626TIP3    H119842   0.799   0.757   0.642
 6626TIP3    H219843   0.753   0.730   0.783
 6627TIP3   OH219844   5.699   4.655   5.594
 6627TIP3    H119845   5.649   4.580   5.628
 6627TIP3    H219846   5.738   4.694   5.672
 6628TIP3   OH219847   3.468   6.353   5.049
 6628TIP3    H119848   3.398   6.413   5.024
 6628TIP3    H219849   3.545   6.386   5.004
 6629TIP3   OH219850   0.587   3.866   0.525
 6629TIP3    H119851   0.587   3.947   0.575
 6629TIP3    H219852   0.510   3.873   0.468
 6630TIP3   OH219853   6.306   2.372   5.060
 6630TIP3    H119854   6.278   2.451   5.106
 6630TIP3    H219855   6.225   2.331   5.030
 6631TIP3   OH219856   0.042   2.743   0.237
 6631TIP3    H119857  -0.041   2.721   0.193
 6631TIP3    H219858   0.076   2.817   0.187
 6632TIP3   OH219859   3.146   5.626   2.320
 6632TIP3    H119860   3.095   5.559   2.275
 6632TIP3    H219861   3.114   5.624   2.410
 6633TIP3   OH219862   3.620   6.491   5.589
 6633TIP3    H119863   3.645   6.471   5.498
 6633TIP3    H219864   3.579   6.411   5.620
 6634TIP3   OH219865   2.138   3.695   0.373
 6634TIP3    H119866   2.103   3.606   0.380
 6634TIP3    H219867   2.233   3.683   0.379
 6635TIP3   OH219868   4.401   5.480   0.963
 6635TIP3    H119869   4.394   5.428   0.882
 6635TIP3    H219870   4.416   5.569   0.933
 6636TIP3   OH219871   1.744   1.015   5.010
 6636TIP3    H119872   1.785   1.101   5.021
 6636TIP3    H219873   1.656   1.035   4.977
 6637TIP3   OH219874   6.158   2.148   4.342
 6637TIP3    H119875   6.192   2.099   4.417
 6637TIP3    H219876   6.063   2.151   4.357
 6638TIP3   OH219877   3.613   5.600   1.760
 6638TIP3    H119878   3.551   5.544   1.807
 6638TIP3    H219879   3.574   5.610   1.673
 6639TIP3   OH219880   6.591   4.378   4.130
 6639TIP3    H119881   6.650   4.304   4.120
 6639TIP3    H219882   6.533   4.372   4.054
 6640TIP3   OH219883   4.466   3.500   4.232
 6640TIP3    H119884   4.560   3.496   4.217
 6640TIP3    H219885   4.441   3.588   4.205
 6641TIP3   OH219886   5.118   4.768   4.575
 6641TIP3    H119887   5.082   4.846   4.533
 6641TIP3    H219888   5.076   4.695   4.531
 6642TIP3   OH219889   0.220   1.218   4.194
 6642TIP3    H119890   0.154   1.230   4.125
 6642TIP3    H219891   0.254   1.306   4.210
 6643TIP3   OH219892   6.929   6.569   1.331
 6643TIP3    H119893   7.005   6.522   1.298
 6643TIP3    H219894   6.857   6.540   1.275
 6644TIP3   OH219895   2.900   2.687   1.007
 6644TIP3    H119896   2.834   2.756   1.019
 6644TIP3    H219897   2.849   2.607   0.995
 6645TIP3   OH219898   0.087   2.973   0.089
 6645TIP3    H119899   0.112   3.028   0.164
 6645TIP3    H219900   0.169   2.963   0.039
 6646TIP3   OH219901   6.370   6.614   5.068
 6646TIP3    H119902   6.362   6.600   5.163
 6646TIP3    H219903   6.293   6.666   5.045
 6647TIP3   OH219904   6.547   2.337   5.819
 6647TIP3    H119905   6.589   2.390   5.751
 6647TIP3    H219906   6.589   2.252   5.813
 6648TIP3   OH219907   0.254   0.669   1.476
 6648TIP3    H119908   0.190   0.682   1.547
 6648TIP3    H219909   0.262   0.755   1.435
 6649TIP3   OH219910   2.830   4.019   2.248
 6649TIP3    H119911   2.887   3.941   2.252
 6649TIP3    H219912   2.807   4.036   2.340
 6650TIP3   OH219913   5.471   2.900   1.169
 6650TIP3    H119914   5.504   2.934   1.085
 6650TIP3    H219915   5.527   2.825   1.188
 6651TIP3   OH219916   6.507   3.712   2.445
 6651TIP3    H119917   6.423   3.753   2.466
 6651TIP3    H219918   6.559   3.723   2.524
 6652TIP3   OH219919   4.097   1.914   1.356
 6652TIP3    H119920   4.084   1.822   1.378
 6652TIP3    H219921   4.192   1.925   1.351
 6653TIP3   OH219922   0.453   1.910   3.154
 6653TIP3    H119923   0.421   1.928   3.066
 6653TIP3    H219924   0.547   1.923   3.149
 6654TIP3   OH219925   2.358   1.687   3.411
 6654TIP3    H119926   2.376   1.607   3.362
 6654TIP3    H219927   2.299   1.737   3.354
 6655TIP3   OH219928   6.800   6.253   3.487
 6655TIP3    H119929   6.759   6.195   3.551
 6655TIP3    H219930   6.756   6.233   3.404
 6656TIP3   OH219931   3.257   1.584   2.758
 6656TIP3    H119932   3.327   1.528   2.724
 6656TIP3    H219933   3.249   1.559   2.850
 6657TIP3   OH219934   0.289   6.138   5.550
 6657TIP3    H119935   0.309   6.045   5.533
 6657TIP3    H219936   0.196   6.146   5.527
 6658TIP3   OH219937   0.744   2.960   5.769
 6658TIP3    H119938   0.820   3.011   5.796
 6658TIP3    H219939   0.718   2.911   5.848
 6659TIP3   OH219940   5.545   4.735   5.177
 6659TIP3    H119941   5.625   4.702   5.217
 6659TIP3    H219942   5.474   4.691   5.225
 6660TIP3   OH219943   0.397   0.319   1.196
 6660TIP3    H119944   0.395   0.400   1.144
 6660TIP3    H219945   0.435   0.254   1.137
 6661TIP3   OH219946   1.036   5.534   3.796
 6661TIP3    H119947   1.034   5.496   3.883
 6661TIP3    H219948   1.090   5.474   3.744
 6662TIP3   OH219949   5.825   5.978   5.314
 6662TIP3    H119950   5.822   6.068   5.282
 6662TIP3    H219951   5.734   5.959   5.339
 6663TIP3   OH219952   4.623   5.503   2.156
 6663TIP3    H119953   4.587   5.482   2.069
 6663TIP3    H219954   4.717   5.509   2.142
 6664TIP3   OH219955   6.631   3.223   2.565
 6664TIP3    H119956   6.632   3.317   2.548
 6664TIP3    H219957   6.639   3.182   2.478
 6665TIP3   OH219958   1.480   1.186   1.754
 6665TIP3    H119959   1.441   1.234   1.681
 6665TIP3    H219960   1.432   1.217   1.831
 6666TIP3   OH219961   4.620   2.956   3.022
 6666TIP3    H119962   4.568   2.884   3.058
 6666TIP3    H219963   4.693   2.913   2.978
 6667TIP3   OH219964   7.005   5.930   5.386
 6667TIP3    H119965   6.928   5.958   5.436
 6667TIP3    H219966   6.982   5.949   5.295
 6668TIP3   OH219967   6.625   4.767   1.354
 6668TIP3    H119968   6.645   4.736   1.265
 6668TIP3    H219969   6.652   4.695   1.411
 6669TIP3   OH219970   6.293   2.028   5.408
 6669TIP3    H119971   6.253   1.982   5.482
 6669TIP3    H219972   6.299   1.961   5.339
 6670TIP3   OH219973   0.805   6.155   0.886
 6670TIP3    H119974   0.753   6.090   0.839
 6670TIP3    H219975   0.846   6.207   0.817
 6671TIP3   OH219976   2.580   1.764   0.495
 6671TIP3    H119977   2.519   1.692   0.504
 6671TIP3    H219978   2.603   1.788   0.585
 6672TIP3   OH219979   0.922   1.911   2.833
 6672TIP3    H119980   0.937   1.946   2.921
 6672TIP3    H219981   0.881   1.826   2.848
 6673TIP3   OH219982   2.816   3.142   0.643
 6673TIP3    H119983   2.812   3.059   0.692
 6673TIP3    H219984   2.895   3.185   0.676
 6674TIP3   OH219985   4.222   1.862   1.039
 6674TIP3    H119986   4.186   1.919   0.971
 6674TIP3    H219987   4.170   1.782   1.033
 6675TIP3   OH219988   1.240   2.654   4.453
 6675TIP3    H119989   1.206   2.571   4.420
 6675TIP3    H219990   1.329   2.634   4.480
 6676TIP3   OH219991   5.403   2.974   3.355
 6676TIP3    H119992   5.499   2.976   3.359
 6676TIP3    H219993   5.378   3.066   3.349
 6677TIP3   OH219994   5.334   4.078   0.307
 6677TIP3    H119995   5.282   4.146   0.264
 6677TIP3    H219996   5.275   4.002   0.311
 6678TIP3   OH219997   0.412   5.536   1.887
 6678TIP3    H119998   0.407   5.493   1.802
 6678TIP3    H219999   0.505   5.550   1.902
 6679TIP3   OH220000   1.131   5.064   2.154
 6679TIP3    H120001   1.143   5.145   2.104
 6679TIP3    H220002   1.200   5.006   2.123
 6680TIP3   OH220003   1.885   6.686   3.728
 6680TIP3    H120004   1.917   6.760   3.779
 6680TIP3    H220005   1.954   6.669   3.664
 6681TIP3   OH220006   2.983   5.168   1.467
 6681TIP3    H120007   3.044   5.115   1.415
 6681TIP3    H220008   2.999   5.258   1.439
 6682TIP3   OH220009   1.523   3.735   2.728
 6682TIP3    H120010   1.442   3.756   2.775
 6682TIP3    H220011   1.591   3.781   2.776
 6683TIP3   OH220012   0.047   2.344   4.917
 6683TIP3    H120013   0.046   2.341   5.012
 6683TIP3    H220014   0.139   2.355   4.893
 6684TIP3   OH220015   1.460   2.385   2.765
 6684TIP3    H120016   1.545   2.351   2.793
 6684TIP3    H220017   1.425   2.319   2.706
 6685TIP3   OH220018   0.500   2.705   3.678
 6685TIP3    H120019   0.515   2.697   3.584
 6685TIP3    H220020   0.527   2.621   3.715
 6686TIP3   OH220021   6.408   4.614   0.099
 6686TIP3    H120022   6.446   4.527   0.093
 6686TIP3    H220023   6.349   4.609   0.174
 6687TIP3   OH220024   0.248   2.346   2.702
 6687TIP3    H120025   0.185   2.273   2.699
 6687TIP3    H220026   0.214   2.410   2.640
 6688TIP3   OH220027   6.864   5.220   4.149
 6688TIP3    H120028   6.872   5.302   4.198
 6688TIP3    H220029   6.866   5.246   4.057
 6689TIP3   OH220030   1.715   4.432   5.610
 6689TIP3    H120031   1.645   4.477   5.563
 6689TIP3    H220032   1.734   4.355   5.557
 6690TIP3   OH220033   2.181   0.848   1.815
 6690TIP3    H120034   2.225   0.768   1.786
 6690TIP3    H220035   2.088   0.831   1.799
 6691TIP3   OH220036   0.864   0.039   4.029
 6691TIP3    H120037   0.803   0.054   3.957
 6691TIP3    H220038   0.939   0.095   4.010
 6692TIP3   OH220039   1.884   5.699   1.889
 6692TIP3    H120040   1.966   5.688   1.937
 6692TIP3    H220041   1.898   5.778   1.835
 6693TIP3   OH220042   0.220   5.040   0.655
 6693TIP3    H120043   0.271   4.972   0.699
 6693TIP3    H220044   0.130   5.007   0.654
 6694TIP3   OH220045   3.150   1.268   3.894
 6694TIP3    H120046   3.107   1.208   3.833
 6694TIP3    H220047   3.227   1.220   3.924
 6695TIP3   OH220048   3.118   0.800   2.456
 6695TIP3    H120049   3.115   0.727   2.395
 6695TIP3    H220050   3.191   0.780   2.515
 6696TIP3   OH220051   0.808   5.910   2.642
 6696TIP3    H120052   0.751   5.843   2.679
 6696TIP3    H220053   0.812   5.978   2.709
 6697TIP3   OH220054   6.965   1.779   2.563
 6697TIP3    H120055   6.898   1.820   2.508
 6697TIP3    H220056   6.916   1.725   2.625
 6698TIP3   OH220057   1.613   0.701   1.430
 6698TIP3    H120058   1.599   0.737   1.518
 6698TIP3    H220059   1.529   0.713   1.386
 6699TIP3   OH220060   4.531   2.683   3.087
 6699TIP3    H120061   4.555   2.593   3.108
 6699TIP3    H220062   4.497   2.679   2.997
 6700TIP3   OH220063   2.444   4.685   1.028
 6700TIP3    H120064   2.481   4.767   0.996
 6700TIP3    H220065   2.395   4.649   0.954
 6701TIP3   OH220066   6.080   2.281   2.797
 6701TIP3    H120067   5.985   2.274   2.793
 6701TIP3    H220068   6.100   2.303   2.888
 6702TIP3   OH220069   3.928   2.101   5.852
 6702TIP3    H120070   3.941   2.049   5.773
 6702TIP3    H220071   4.009   2.089   5.902
 6703TIP3   OH220072   4.093   3.121   4.199
 6703TIP3    H120073   4.075   3.157   4.112
 6703TIP3    H220074   4.135   3.193   4.246
 6704TIP3   OH220075   1.341   3.703   5.508
 6704TIP3    H120076   1.343   3.775   5.571
 6704TIP3    H220077   1.433   3.691   5.482
 6705TIP3   OH220078   3.946   6.101   2.821
 6705TIP3    H120079   3.975   6.192   2.808
 6705TIP3    H220080   3.888   6.105   2.897
 6706TIP3   OH220081   1.865   0.807   1.385
 6706TIP3    H120082   1.893   0.806   1.294
 6706TIP3    H220083   1.782   0.759   1.385
 6707TIP3   OH220084   4.535   3.666   3.885
 6707TIP3    H120085   4.483   3.743   3.908
 6707TIP3    H220086   4.626   3.696   3.891
 6708TIP3   OH220087   3.561   0.061   5.580
 6708TIP3    H120088   3.610  -0.010   5.538
 6708TIP3    H220089   3.567   0.133   5.518
 6709TIP3   OH220090   0.850   3.805   2.052
 6709TIP3    H120091   0.866   3.792   1.958
 6709TIP3    H220092   0.930   3.847   2.084
 6710TIP3   OH220093   1.849   0.190   4.007
 6710TIP3    H120094   1.847   0.212   3.914
 6710TIP3    H220095   1.897   0.107   4.011
 6711TIP3   OH220096   3.213   0.678   3.993
 6711TIP3    H120097   3.271   0.739   3.948
 6711TIP3    H220098   3.271   0.628   4.050
 6712TIP3   OH220099   1.911   5.639   5.542
 6712TIP3    H120100   1.923   5.714   5.601
 6712TIP3    H220101   1.845   5.585   5.586
 6713TIP3   OH220102   5.348   6.760   2.024
 6713TIP3    H120103   5.392   6.686   2.066
 6713TIP3    H220104   5.261   6.729   2.003
 6714TIP3   OH220105   1.226   3.193   3.167
 6714TIP3    H120106   1.266   3.200   3.080
 6714TIP3    H220107   1.212   3.100   3.180
 6715TIP3   OH220108   2.395   4.340   3.657
 6715TIP3    H120109   2.428   4.391   3.731
 6715TIP3    H220110   2.301   4.362   3.653
 6716TIP3   OH220111   5.900   1.848   1.601
 6716TIP3    H120112   5.857   1.763   1.600
 6716TIP3    H220113   5.941   1.855   1.514
 6717TIP3   OH220114   6.271   1.738   2.625
 6717TIP3    H120115   6.274   1.695   2.539
 6717TIP3    H220116   6.349   1.706   2.671
 6718TIP3   OH220117   2.773   2.188   1.930
 6718TIP3    H120118   2.751   2.173   1.838
 6718TIP3    H220119   2.830   2.265   1.930
 6719TIP3   OH220120   5.935   5.229   5.617
 6719TIP3    H120121   6.011   5.238   5.560
 6719TIP3    H220122   5.880   5.305   5.596
 6720TIP3   OH220123   2.403   0.442   3.415
 6720TIP3    H120124   2.363   0.489   3.488
 6720TIP3    H220125   2.362   0.480   3.337
 6721TIP3   OH220126   0.279   1.192   2.924
 6721TIP3    H120127   0.275   1.097   2.928
 6721TIP3    H220128   0.192   1.221   2.952
 6722TIP3   OH220129   2.009   4.913   3.874
 6722TIP3    H120130   1.966   4.828   3.885
 6722TIP3    H220131   1.940   4.977   3.895
 6723TIP3   OH220132   4.637   1.216   0.747
 6723TIP3    H120133   4.723   1.178   0.730
 6723TIP3    H220134   4.638   1.239   0.840
 6724TIP3   OH220135   2.829   0.538   2.610
 6724TIP3    H120136   2.879   0.516   2.689
 6724TIP3    H220137   2.845   0.631   2.597
 6725TIP3   OH220138   4.015   5.761   0.075
 6725TIP3    H120139   4.019   5.695   0.144
 6725TIP3    H220140   4.094   5.748   0.023
 6726TIP3   OH220141   0.617   6.766   0.155
 6726TIP3    H120142   0.643   6.761   0.247
 6726TIP3    H220143   0.641   6.854   0.128
 6727TIP3   OH220144   1.615   4.714   0.016
 6727TIP3    H120145   1.559   4.674  -0.051
 6727TIP3    H220146   1.559   4.777   0.060
 6728TIP3   OH220147   0.405   5.024   5.077
 6728TIP3    H120148   0.499   5.017   5.057
 6728TIP3    H220149   0.368   5.070   5.002
 6729TIP3   OH220150   3.622   2.689   3.935
 6729TIP3    H120151   3.561   2.619   3.911
 6729TIP3    H220152   3.708   2.647   3.931
 6730TIP3   OH220153   5.663   0.808   5.804
 6730TIP3    H120154   5.694   0.804   5.894
 6730TIP3    H220155   5.572   0.837   5.810
 6731TIP3   OH220156   2.845   0.104   3.536
 6731TIP3    H120157   2.768   0.098   3.592
 6731TIP3    H220158   2.916   0.132   3.595
 6732TIP3   OH220159   0.875   3.331   2.931
 6732TIP3    H120160   0.794   3.334   2.880
 6732TIP3    H220161   0.858   3.387   3.006
 6733TIP3   OH220162   4.755   0.084   4.323
 6733TIP3    H120163   4.742   0.036   4.241
 6733TIP3    H220164   4.668   0.119   4.344
 6734TIP3   OH220165   2.543   5.475   2.026
 6734TIP3    H120166   2.575   5.441   1.943
 6734TIP3    H220167   2.506   5.561   2.005
 6735TIP3   OH220168   4.957   4.642   2.587
 6735TIP3    H120169   4.921   4.562   2.625
 6735TIP3    H220170   4.904   4.712   2.625
 6736TIP3   OH220171   5.998   5.468   4.201
 6736TIP3    H120172   5.936   5.541   4.196
 6736TIP3    H220173   6.084   5.511   4.204
 6737TIP3   OH220174   6.759   3.286   3.977
 6737TIP3    H120175   6.771   3.195   4.003
 6737TIP3    H220176   6.673   3.310   4.011
 6738TIP3   OH220177   4.412   6.172   0.902
 6738TIP3    H120178   4.378   6.237   0.841
 6738TIP3    H220179   4.479   6.126   0.852
 6739TIP3   OH220180   0.289   2.929   2.561
 6739TIP3    H120181   0.209   2.896   2.603
 6739TIP3    H220182   0.258   2.976   2.483
 6740TIP3   OH220183   1.610   0.078   1.452
 6740TIP3    H120184   1.666   0.034   1.517
 6740TIP3    H220185   1.671   0.109   1.385
 6741TIP3   OH220186   0.758   4.607   1.927
 6741TIP3    H120187   0.849   4.611   1.955
 6741TIP3    H220188   0.762   4.593   1.833
 6742TIP3   OH220189   5.273   2.499   1.468
 6742TIP3    H120190   5.198   2.550   1.436
 6742TIP3    H220191   5.261   2.413   1.427
 6743TIP3   OH220192   6.706   0.765   4.197
 6743TIP3    H120193   6.709   0.843   4.141
 6743TIP3    H220194   6.613   0.749   4.212
 6744TIP3   OH220195   1.021   2.316   0.955
 6744TIP3    H120196   0.971   2.375   0.898
 6744TIP3    H220197   0.987   2.332   1.043
 6745TIP3   OH220198   6.194   4.276   4.259
 6745TIP3    H120199   6.129   4.321   4.206
 6745TIP3    H220200   6.210   4.194   4.212
 6746TIP3   OH220201   0.785   0.471   5.805
 6746TIP3    H120202   0.819   0.521   5.731
 6746TIP3    H220203   0.718   0.414   5.768
 6747TIP3   OH220204   5.219   4.884   1.637
 6747TIP3    H120205   5.222   4.816   1.570
 6747TIP3    H220206   5.241   4.839   1.719
 6748TIP3   OH220207   3.305   3.815   2.856
 6748TIP3    H120208   3.270   3.882   2.914
 6748TIP3    H220209   3.378   3.857   2.811
 6749TIP3   OH220210   4.495   6.295   2.527
 6749TIP3    H120211   4.477   6.329   2.615
 6749TIP3    H220212   4.588   6.312   2.513
 6750TIP3   OH220213   2.952   2.669   1.428
 6750TIP3    H120214   3.031   2.664   1.482
 6750TIP3    H220215   2.971   2.738   1.364
 6751TIP3   OH220216   6.826   5.406   1.983
 6751TIP3    H120217   6.902   5.392   1.927
 6751TIP3    H220218   6.766   5.334   1.962
 6752TIP3   OH220219   5.680   2.302   5.647
 6752TIP3    H120220   5.691   2.387   5.605
 6752TIP3    H220221   5.763   2.287   5.692
 6753TIP3   OH220222   3.329   5.303   4.265
 6753TIP3    H120223   3.254   5.335   4.214
 6753TIP3    H220224   3.305   5.213   4.288
 6754TIP3   OH220225   4.875   2.833   4.658
 6754TIP3    H120226   4.922   2.754   4.634
 6754TIP3    H220227   4.894   2.895   4.587
 6755TIP3   OH220228   0.182   1.391   4.493
 6755TIP3    H120229   0.217   1.469   4.536
 6755TIP3    H220230   0.096   1.418   4.461
 6756TIP3   OH220231   0.639   3.005   3.432
 6756TIP3    H120232   0.636   2.972   3.342
 6756TIP3    H220233   0.655   2.927   3.485
 6757TIP3   OH220234   1.859   4.435   2.815
 6757TIP3    H120235   1.955   4.438   2.807
 6757TIP3    H220236   1.833   4.527   2.823
 6758TIP3   OH220237   3.698   5.289   5.614
 6758TIP3    H120238   3.640   5.227   5.569
 6758TIP3    H220239   3.665   5.375   5.590
 6759TIP3   OH220240   0.760   1.512   5.787
 6759TIP3    H120241   0.702   1.581   5.754
 6759TIP3    H220242   0.827   1.558   5.836
 6760TIP3   OH220243   7.065   2.555   4.832
 6760TIP3    H120244   7.120   2.480   4.856
 6760TIP3    H220245   7.124   2.613   4.782
 6761TIP3   OH220246   3.428   3.702   4.097
 6761TIP3    H120247   3.391   3.747   4.021
 6761TIP3    H220248   3.483   3.633   4.060
 6762TIP3   OH220249   5.751   3.316   5.467
 6762TIP3    H120250   5.761   3.401   5.509
 6762TIP3    H220251   5.660   3.313   5.437
 6763TIP3   OH220252   1.607   4.809   1.460
 6763TIP3    H120253   1.667   4.842   1.394
 6763TIP3    H220254   1.545   4.754   1.412
 6764TIP3   OH220255   3.921   0.727   5.007
 6764TIP3    H120256   3.983   0.696   5.072
 6764TIP3    H220257   3.966   0.799   4.962
 6765TIP3   OH220258   3.351   3.245   1.303
 6765TIP3    H120259   3.416   3.214   1.240
 6765TIP3    H220260   3.277   3.185   1.293
 6766TIP3   OH220261   2.680   0.988   2.042
 6766TIP3    H120262   2.610   1.044   2.076
 6766TIP3    H220263   2.741   0.977   2.115
 6767TIP3   OH220264   4.065   4.380   0.791
 6767TIP3    H120265   3.993   4.374   0.728
 6767TIP3    H220266   4.078   4.474   0.804
 6768TIP3   OH220267   0.485   4.653   0.353
 6768TIP3    H120268   0.443   4.740   0.353
 6768TIP3    H220269   0.476   4.623   0.444
 6769TIP3   OH220270   6.061   0.412   4.435
 6769TIP3    H120271   6.084   0.319   4.427
 6769TIP3    H220272   5.984   0.423   4.379
 6770TIP3   OH220273   3.318   6.587   5.053
 6770TIP3    H120274   3.294   6.608   5.144
 6770TIP3    H220275   3.245   6.619   5.001
 6771TIP3   OH220276   3.871   6.442   2.683
 6771TIP3    H120277   3.867   6.511   2.750
 6771TIP3    H220278   3.824   6.368   2.721
 6772TIP3   OH220279   4.820   4.659   0.036
 6772TIP3    H120280   4.835   4.717  -0.039
 6772TIP3    H220281   4.727   4.637   0.031
 6773TIP3   OH220282   3.199   0.566   2.299
 6773TIP3    H120283   3.289   0.547   2.270
 6773TIP3    H220284   3.149   0.489   2.271
 6774TIP3   OH220285   6.817   6.415   4.993
 6774TIP3    H120286   6.864   6.376   4.920
 6774TIP3    H220287   6.876   6.482   5.027
 6775TIP3   OH220288   0.922   2.966   4.995
 6775TIP3    H120289   0.900   2.937   5.083
 6775TIP3    H220290   1.017   2.980   4.997
 6776TIP3   OH220291   1.703   3.366   0.475
 6776TIP3    H120292   1.745   3.292   0.431
 6776TIP3    H220293   1.695   3.433   0.407
 6777TIP3   OH220294   4.539   2.846   3.832
 6777TIP3    H120295   4.565   2.834   3.741
 6777TIP3    H220296   4.550   2.940   3.848
 6778TIP3   OH220297   6.203   1.068   3.433
 6778TIP3    H120298   6.188   1.102   3.345
 6778TIP3    H220299   6.214   1.146   3.488
 6779TIP3   OH220300   3.094   4.096   0.074
 6779TIP3    H120301   3.154   4.164   0.044
 6779TIP3    H220302   3.129   4.015   0.038
 6780TIP3   OH220303   4.706   3.196   0.553
 6780TIP3    H120304   4.757   3.277   0.552
 6780TIP3    H220305   4.615   3.224   0.560
 6781TIP3   OH220306   2.299   3.768   1.608
 6781TIP3    H120307   2.281   3.761   1.702
 6781TIP3    H220308   2.233   3.713   1.567
 6782TIP3   OH220309   5.909   2.892   3.720
 6782TIP3    H120310   5.852   2.828   3.763
 6782TIP3    H220311   5.981   2.840   3.686
 6783TIP3   OH220312   3.743   0.084   2.468
 6783TIP3    H120313   3.792   0.155   2.425
 6783TIP3    H220314   3.680   0.129   2.523
 6784TIP3   OH220315   4.030   2.862   2.998
 6784TIP3    H120316   4.041   2.807   3.076
 6784TIP3    H220317   3.960   2.819   2.948
 6785TIP3   OH220318   4.998   6.249   5.156
 6785TIP3    H120319   5.026   6.330   5.113
 6785TIP3    H220320   4.921   6.221   5.107
 6786TIP3   OH220321   1.507   0.965   3.043
 6786TIP3    H120322   1.451   1.041   3.031
 6786TIP3    H220323   1.559   0.960   2.962
 6787TIP3   OH220324   3.487   5.753   2.923
 6787TIP3    H120325   3.503   5.811   2.848
 6787TIP3    H220326   3.494   5.810   2.999
 6788TIP3   OH220327   7.090   2.332   1.051
 6788TIP3    H120328   7.036   2.409   1.071
 6788TIP3    H220329   7.097   2.286   1.134
 6789TIP3   OH220330   2.357   5.179   2.591
 6789TIP3    H120331   2.412   5.160   2.515
 6789TIP3    H220332   2.282   5.121   2.581
 6790TIP3   OH220333   3.646   0.259   4.782
 6790TIP3    H120334   3.569   0.298   4.822
 6790TIP3    H220335   3.641   0.283   4.690
 6791TIP3   OH220336   6.501   5.892   5.760
 6791TIP3    H120337   6.440   5.963   5.780
 6791TIP3    H220338   6.501   5.888   5.664
 6792TIP3   OH220339   3.277   2.811   3.714
 6792TIP3    H120340   3.222   2.886   3.691
 6792TIP3    H220341   3.214   2.743   3.741
 6793TIP3   OH220342   3.857   4.867   1.961
 6793TIP3    H120343   3.847   4.875   1.866
 6793TIP3    H220344   3.832   4.953   1.994
 6794TIP3   OH220345   3.992   5.286   5.707
 6794TIP3    H120346   3.919   5.301   5.647
 6794TIP3    H220347   4.057   5.240   5.654
 6795TIP3   OH220348   6.408   0.758   4.050
 6795TIP3    H120349   6.433   0.734   4.140
 6795TIP3    H220350   6.336   0.820   4.061
 6796TIP3   OH220351   6.366   0.098   3.217
 6796TIP3    H120352   6.459   0.093   3.237
 6796TIP3    H220353   6.337   0.181   3.256
 6797TIP3   OH220354   0.696   0.308   5.607
 6797TIP3    H120355   0.674   0.216   5.619
 6797TIP3    H220356   0.761   0.309   5.536
 6798TIP3   OH220357   2.160   0.166   3.779
 6798TIP3    H120358   2.198   0.230   3.839
 6798TIP3    H220359   2.230   0.149   3.716
 6799TIP3   OH220360   6.422   1.186   5.203
 6799TIP3    H120361   6.354   1.253   5.202
 6799TIP3    H220362   6.385   1.114   5.152
 6800TIP3   OH220363   0.447   2.571   5.013
 6800TIP3    H120364   0.373   2.577   4.952
 6800TIP3    H220365   0.512   2.631   4.977
 6801TIP3   OH220366   4.375   5.632   4.864
 6801TIP3    H120367   4.343   5.588   4.786
 6801TIP3    H220368   4.456   5.676   4.836
 6802TIP3   OH220369   5.346   6.776   0.661
 6802TIP3    H120370   5.401   6.713   0.710
 6802TIP3    H220371   5.370   6.861   0.698
 6803TIP3   OH220372   6.230   3.739   3.056
 6803TIP3    H120373   6.303   3.788   3.017
 6803TIP3    H220374   6.176   3.713   2.981
 6804TIP3   OH220375   6.309   5.455   4.330
 6804TIP3    H120376   6.399   5.429   4.348
 6804TIP3    H220377   6.259   5.374   4.337
 6805TIP3   OH220378   5.462   1.929   3.471
 6805TIP3    H120379   5.529   1.861   3.471
 6805TIP3    H220380   5.430   1.931   3.381
 6806TIP3   OH220381   6.584   0.200   4.600
 6806TIP3    H120382   6.502   0.169   4.562
 6806TIP3    H220383   6.606   0.278   4.548
 6807TIP3   OH220384   0.993   6.651   3.996
 6807TIP3    H120385   1.030   6.729   3.956
 6807TIP3    H220386   1.002   6.583   3.929
 6808TIP3   OH220387   5.866   4.285   5.331
 6808TIP3    H120388   5.956   4.316   5.338
 6808TIP3    H220389   5.863   4.236   5.249
 6809TIP3   OH220390   5.929   6.106   4.892
 6809TIP3    H120391   5.917   6.037   4.957
 6809TIP3    H220392   6.000   6.075   4.836
 6810TIP3   OH220393   1.573   6.029   5.005
 6810TIP3    H120394   1.500   5.979   5.041
 6810TIP3    H220395   1.650   5.973   5.019
 6811TIP3   OH220396   5.744   2.956   1.879
 6811TIP3    H120397   5.693   3.037   1.877
 6811TIP3    H220398   5.835   2.986   1.878
 6812TIP3   OH220399   5.304   1.304   0.878
 6812TIP3    H120400   5.392   1.306   0.917
 6812TIP3    H220401   5.282   1.211   0.873
 6813TIP3   OH220402   6.558   6.010   0.319
 6813TIP3    H120403   6.556   6.038   0.411
 6813TIP3    H220404   6.602   5.925   0.321
 6814TIP3   OH220405   1.888   2.196   0.520
 6814TIP3    H120406   1.850   2.143   0.450
 6814TIP3    H220407   1.818   2.204   0.585
 6815TIP3   OH220408   2.888   1.517   4.429
 6815TIP3    H120409   2.793   1.526   4.417
 6815TIP3    H220410   2.899   1.435   4.476
 6816TIP3   OH220411   6.266   0.687   1.714
 6816TIP3    H120412   6.301   0.602   1.684
 6816TIP3    H220413   6.212   0.717   1.641
 6817TIP3   OH220414   5.038   3.606   1.378
 6817TIP3    H120415   4.964   3.551   1.356
 6817TIP3    H220416   5.059   3.584   1.469
 6818TIP3   OH220417   7.196   0.183   5.587
 6818TIP3    H120418   7.129   0.238   5.548
 6818TIP3    H220419   7.208   0.111   5.524
 6819TIP3   OH220420   4.015   0.174   4.398
 6819TIP3    H120421   4.042   0.219   4.478
 6819TIP3    H220422   3.935   0.219   4.370
 6820TIP3   OH220423   0.794   5.885   1.424
 6820TIP3    H120424   0.759   5.821   1.487
 6820TIP3    H220425   0.872   5.843   1.388
 6821TIP3   OH220426   3.820   0.594   2.516
 6821TIP3    H120427   3.839   0.503   2.496
 6821TIP3    H220428   3.781   0.629   2.436
 6822TIP3   OH220429   0.460   3.912   3.564
 6822TIP3    H120430   0.545   3.875   3.590
 6822TIP3    H220431   0.460   4.001   3.599
 6823TIP3   OH220432   0.283   0.228   0.262
 6823TIP3    H120433   0.351   0.288   0.234
 6823TIP3    H220434   0.282   0.235   0.357
 6824TIP3   OH220435   6.261   0.107   2.942
 6824TIP3    H120436   6.282   0.094   3.035
 6824TIP3    H220437   6.312   0.184   2.918
 6825TIP3   OH220438   5.216   4.536   0.672
 6825TIP3    H120439   5.132   4.515   0.711
 6825TIP3    H220440   5.206   4.515   0.579
 6826TIP3   OH220441   6.987   5.223   5.471
 6826TIP3    H120442   7.066   5.268   5.441
 6826TIP3    H220443   6.996   5.218   5.566
 6827TIP3   OH220444   6.667   2.918   0.462
 6827TIP3    H120445   6.600   2.909   0.529
 6827TIP3    H220446   6.637   2.864   0.389
 6828TIP3   OH220447   1.793   3.466   5.857
 6828TIP3    H120448   1.793   3.480   5.762
 6828TIP3    H220449   1.722   3.403   5.871
 6829TIP3   OH220450   3.703   6.421   3.102
 6829TIP3    H120451   3.612   6.452   3.097
 6829TIP3    H220452   3.728   6.434   3.193
 6830TIP3   OH220453   2.273   1.852   0.355
 6830TIP3    H120454   2.195   1.891   0.393
 6830TIP3    H220455   2.297   1.782   0.417
 6831TIP3   OH220456   5.747   0.917   4.789
 6831TIP3    H120457   5.696   0.836   4.801
 6831TIP3    H220458   5.711   0.957   4.710
 6832TIP3   OH220459   4.234   6.503   4.333
 6832TIP3    H120460   4.237   6.434   4.267
 6832TIP3    H220461   4.200   6.579   4.286
 6833TIP3   OH220462   1.773   6.445   3.781
 6833TIP3    H120463   1.806   6.535   3.781
 6833TIP3    H220464   1.699   6.446   3.842
 6834TIP3   OH220465   6.307   1.750   3.592
 6834TIP3    H120466   6.365   1.715   3.660
 6834TIP3    H220467   6.237   1.685   3.585
 6835TIP3   OH220468   3.322   5.985   1.116
 6835TIP3    H120469   3.386   5.944   1.174
 6835TIP3    H220470   3.331   6.079   1.134
 6836TIP3   OH220471   2.162   0.184   4.850
 6836TIP3    H120472   2.089   0.205   4.908
 6836TIP3    H220473   2.221   0.260   4.857
 6837TIP3   OH220474   3.830   3.431   5.502
 6837TIP3    H120475   3.900   3.454   5.442
 6837TIP3    H220476   3.875   3.401   5.582
 6838TIP3   OH220477   1.690   2.266   5.229
 6838TIP3    H120478   1.735   2.203   5.173
 6838TIP3    H220479   1.721   2.351   5.200
 6839TIP3   OH220480   5.446   2.245   5.222
 6839TIP3    H120481   5.352   2.233   5.207
 6839TIP3    H220482   5.467   2.327   5.179
 6840TIP3   OH220483   0.137   5.632   4.347
 6840TIP3    H120484   0.049   5.667   4.363
 6840TIP3    H220485   0.193   5.677   4.410
 6841TIP3   OH220486   3.407   3.296   4.513
 6841TIP3    H120487   3.412   3.385   4.476
 6841TIP3    H220488   3.357   3.246   4.448
 6842TIP3   OH220489   3.735   4.784   2.301
 6842TIP3    H120490   3.699   4.748   2.382
 6842TIP3    H220491   3.671   4.850   2.274
 6843TIP3   OH220492   2.788   5.652   2.198
 6843TIP3    H120493   2.733   5.578   2.172
 6843TIP3    H220494   2.830   5.680   2.117
 6844TIP3   OH220495   4.776   4.254   5.080
 6844TIP3    H120496   4.726   4.233   5.001
 6844TIP3    H220497   4.725   4.321   5.124
 6845TIP3   OH220498   6.337   3.549   1.627
 6845TIP3    H120499   6.382   3.620   1.671
 6845TIP3    H220500   6.299   3.590   1.549
 6846TIP3   OH220501   0.339   4.383   5.188
 6846TIP3    H120502   0.314   4.369   5.097
 6846TIP3    H220503   0.317   4.300   5.231
 6847TIP3   OH220504   6.035   4.504   1.949
 6847TIP3    H120505   6.095   4.529   1.879
 6847TIP3    H220506   5.989   4.585   1.971
 6848TIP3   OH220507   1.134   6.769   1.891
 6848TIP3    H120508   1.189   6.760   1.813
 6848TIP3    H220509   1.044   6.761   1.857
 6849TIP3   OH220510   6.242   3.832   2.468
 6849TIP3    H120511   6.195   3.885   2.532
 6849TIP3    H220512   6.179   3.815   2.399
 6850TIP3   OH220513   3.847   4.257   3.578
 6850TIP3    H120514   3.842   4.180   3.521
 6850TIP3    H220515   3.940   4.263   3.601
 6851TIP3   OH220516   0.353   2.013   2.940
 6851TIP3    H120517   0.411   2.086   2.921
 6851TIP3    H220518   0.272   2.033   2.892
 6852TIP3   OH220519   2.736   4.500   5.843
 6852TIP3    H120520   2.768   4.425   5.794
 6852TIP3    H220521   2.736   4.471   5.934
 6853TIP3   OH220522   3.479   3.667   1.299
 6853TIP3    H120523   3.419   3.643   1.369
 6853TIP3    H220524   3.464   3.601   1.231
 6854TIP3   OH220525   1.200   1.515   3.889
 6854TIP3    H120526   1.222   1.544   3.801
 6854TIP3    H220527   1.179   1.595   3.937
 6855TIP3   OH220528   4.848   6.410   3.367
 6855TIP3    H120529   4.907   6.418   3.442
 6855TIP3    H220530   4.835   6.316   3.355
 6856TIP3   OH220531   1.206   0.614   5.537
 6856TIP3    H120532   1.272   0.558   5.496
 6856TIP3    H220533   1.219   0.602   5.631
 6857TIP3   OH220534   2.759   0.159   1.653
 6857TIP3    H120535   2.729   0.178   1.742
 6857TIP3    H220536   2.679   0.163   1.600
 6858TIP3   OH220537   3.405   2.786   2.792
 6858TIP3    H120538   3.382   2.697   2.817
 6858TIP3    H220539   3.324   2.822   2.756
 6859TIP3   OH220540   6.608   6.651   4.381
 6859TIP3    H120541   6.586   6.574   4.432
 6859TIP3    H220542   6.661   6.705   4.441
 6860TIP3   OH220543   4.395   6.749   1.014
 6860TIP3    H120544   4.375   6.731   0.922
 6860TIP3    H220545   4.443   6.831   1.012
 6861TIP3   OH220546   0.347   3.498   1.935
 6861TIP3    H120547   0.295   3.565   1.891
 6861TIP3    H220548   0.283   3.445   1.981
 6862TIP3   OH220549   4.649   1.308   3.222
 6862TIP3    H120550   4.617   1.345   3.139
 6862TIP3    H220551   4.575   1.315   3.282
 6863TIP3   OH220552   4.167   4.910   5.724
 6863TIP3    H120553   4.246   4.961   5.742
 6863TIP3    H220554   4.178   4.879   5.634
 6864TIP3   OH220555   6.386   1.571   5.189
 6864TIP3    H120556   6.292   1.563   5.174
 6864TIP3    H220557   6.398   1.662   5.216
 6865TIP3   OH220558   3.612   6.739   3.333
 6865TIP3    H120559   3.620   6.833   3.350
 6865TIP3    H220560   3.679   6.700   3.390
 6866TIP3   OH220561   2.534   2.307   5.860
 6866TIP3    H120562   2.516   2.374   5.795
 6866TIP3    H220563   2.542   2.226   5.809
 6867TIP3   OH220564   2.486   5.184   0.966
 6867TIP3    H120565   2.575   5.150   0.964
 6867TIP3    H220566   2.443   5.143   0.891
 6868TIP3   OH220567   0.005   5.648   4.018
 6868TIP3    H120568   0.062   5.710   4.063
 6868TIP3    H220569   0.065   5.587   3.975
 6869TIP3   OH220570   2.092   4.844   1.542
 6869TIP3    H120571   2.108   4.885   1.627
 6869TIP3    H220572   2.075   4.917   1.483
 6870TIP3   OH220573   3.775   0.837   0.888
 6870TIP3    H120574   3.847   0.777   0.904
 6870TIP3    H220575   3.801   0.919   0.931
 6871TIP3   OH220576   1.683   3.991   5.821
 6871TIP3    H120577   1.626   4.051   5.772
 6871TIP3    H220578   1.637   3.907   5.819
 6872TIP3   OH220579   7.100   3.778   5.725
 6872TIP3    H120580   7.035   3.808   5.661
 6872TIP3    H220581   7.183   3.781   5.678
 6873TIP3   OH220582   0.433   5.753   5.109
 6873TIP3    H120583   0.390   5.827   5.065
 6873TIP3    H220584   0.389   5.676   5.073
 6874TIP3   OH220585   2.765   3.714   4.194
 6874TIP3    H120586   2.809   3.647   4.143
 6874TIP3    H220587   2.676   3.716   4.159
 6875TIP3   OH220588   6.444   1.331   3.995
 6875TIP3    H120589   6.473   1.405   3.942
 6875TIP3    H220590   6.380   1.285   3.940
 6876TIP3   OH220591   4.848   2.230   1.456
 6876TIP3    H120592   4.757   2.213   1.480
 6876TIP3    H220593   4.874   2.153   1.405
 6877TIP3   OH220594   1.167   1.486   2.535
 6877TIP3    H120595   1.191   1.575   2.509
 6877TIP3    H220596   1.146   1.492   2.628
 6878TIP3   OH220597   1.667   0.958   2.825
 6878TIP3    H120598   1.747   0.906   2.816
 6878TIP3    H220599   1.670   1.020   2.751
 6879TIP3   OH220600   6.069   1.759   0.363
 6879TIP3    H120601   6.075   1.716   0.277
 6879TIP3    H220602   6.151   1.809   0.369
 6880TIP3   OH220603   2.404   6.159   1.435
 6880TIP3    H120604   2.491   6.166   1.397
 6880TIP3    H220605   2.366   6.081   1.394
 6881TIP3   OH220606   1.553   3.225   0.137
 6881TIP3    H120607   1.581   3.134   0.125
 6881TIP3    H220608   1.515   3.226   0.225
 6882TIP3   OH220609   3.479   4.539   1.979
 6882TIP3    H120610   3.547   4.518   1.915
 6882TIP3    H220611   3.404   4.486   1.952
 6883TIP3   OH220612   4.810   5.140   0.226
 6883TIP3    H120613   4.719   5.136   0.197
 6883TIP3    H220614   4.834   5.232   0.219
 6884TIP3   OH220615   1.608   5.753   1.706
 6884TIP3    H120616   1.546   5.798   1.648
 6884TIP3    H220617   1.664   5.822   1.739
 6885TIP3   OH220618   1.538   2.026   3.169
 6885TIP3    H120619   1.481   2.089   3.125
 6885TIP3    H220620   1.626   2.053   3.145
 6886TIP3   OH220621   6.055   4.745   0.198
 6886TIP3    H120622   6.051   4.816   0.262
 6886TIP3    H220623   6.069   4.790   0.114
 6887TIP3   OH220624   0.609   4.926   5.534
 6887TIP3    H120625   0.656   4.883   5.462
 6887TIP3    H220626   0.557   4.856   5.573
 6888TIP3   OH220627   6.905   5.354   3.144
 6888TIP3    H120628   6.860   5.295   3.084
 6888TIP3    H220629   6.930   5.429   3.089
 6889TIP3   OH220630   3.071   4.366   1.754
 6889TIP3    H120631   2.994   4.387   1.807
 6889TIP3    H220632   3.054   4.278   1.721
 6890TIP3   OH220633   1.848   2.146   2.406
 6890TIP3    H120634   1.770   2.114   2.450
 6890TIP3    H220635   1.873   2.225   2.454
 6891TIP3   OH220636   3.454   1.202   5.525
 6891TIP3    H120637   3.460   1.292   5.491
 6891TIP3    H220638   3.477   1.211   5.618
 6892TIP3   OH220639   2.170   5.274   5.142
 6892TIP3    H120640   2.117   5.310   5.071
 6892TIP3    H220641   2.133   5.311   5.221
 6893TIP3   OH220642   5.455   5.637   2.050
 6893TIP3    H120643   5.495   5.658   1.966
 6893TIP3    H220644   5.523   5.590   2.098
 6894TIP3   OH220645   6.815   0.436   5.363
 6894TIP3    H120646   6.845   0.393   5.283
 6894TIP3    H220647   6.757   0.506   5.334
 6895TIP3   OH220648   4.829   0.674   5.310
 6895TIP3    H120649   4.796   0.697   5.223
 6895TIP3    H220650   4.877   0.751   5.339
 6896TIP3   OH220651   4.660   0.210   5.470
 6896TIP3    H120652   4.591   0.276   5.473
 6896TIP3    H220653   4.619   0.134   5.430
 6897TIP3   OH220654   1.160   3.090   5.674
 6897TIP3    H120655   1.133   2.999   5.658
 6897TIP3    H220656   1.210   3.113   5.596
 6898TIP3   OH220657   2.657   6.318   1.373
 6898TIP3    H120658   2.620   6.351   1.455
 6898TIP3    H220659   2.673   6.225   1.389
 6899TIP3   OH220660   4.227   1.032   3.135
 6899TIP3    H120661   4.133   1.048   3.143
 6899TIP3    H220662   4.246   0.965   3.201
 6900TIP3   OH220663   5.657   6.038   3.056
 6900TIP3    H120664   5.748   6.062   3.040
 6900TIP3    H220665   5.660   5.944   3.074
 6901TIP3   OH220666   0.526   2.251   1.923
 6901TIP3    H120667   0.587   2.243   1.849
 6901TIP3    H220668   0.452   2.195   1.899
 6902TIP3   OH220669   0.843   5.822   0.027
 6902TIP3    H120670   0.847   5.746   0.086
 6902TIP3    H220671   0.832   5.783  -0.060
 6903TIP3   OH220672   3.518   1.920   2.946
 6903TIP3    H120673   3.426   1.940   2.965
 6903TIP3    H220674   3.514   1.862   2.870
 6904TIP3   OH220675   3.066   2.326   5.070
 6904TIP3    H120676   3.120   2.279   5.132
 6904TIP3    H220677   3.088   2.418   5.084
 6905TIP3   OH220678   2.366   3.871   4.225
 6905TIP3    H120679   2.440   3.927   4.201
 6905TIP3    H220680   2.291   3.930   4.222
 6906TIP3   OH220681   1.134   0.356   0.812
 6906TIP3    H120682   1.188   0.286   0.850
 6906TIP3    H220683   1.195   0.427   0.794
 6907TIP3   OH220684   0.938   5.938   0.991
 6907TIP3    H120685   0.860   5.987   1.017
 6907TIP3    H220686   0.952   5.962   0.899
 6908TIP3   OH220687   6.396   1.705   4.445
 6908TIP3    H120688   6.301   1.695   4.449
 6908TIP3    H220689   6.420   1.674   4.358
 6909TIP3   OH220690   6.240   3.883   3.725
 6909TIP3    H120691   6.212   3.922   3.642
 6909TIP3    H220692   6.333   3.902   3.731
 6910TIP3   OH220693   0.458   5.730   3.801
 6910TIP3    H120694   0.381   5.775   3.766
 6910TIP3    H220695   0.501   5.796   3.857
 6911TIP3   OH220696   1.396   0.010   5.182
 6911TIP3    H120697   1.361   0.031   5.269
 6911TIP3    H220698   1.491   0.009   5.194
 6912TIP3   OH220699   3.778   3.154   4.454
 6912TIP3    H120700   3.873   3.157   4.451
 6912TIP3    H220701   3.753   3.084   4.395
 6913TIP3   OH220702   3.077   1.480   0.128
 6913TIP3    H120703   3.130   1.494   0.207
 6913TIP3    H220704   3.015   1.411   0.153
 6914TIP3   OH220705   3.243   1.452   5.685
 6914TIP3    H120706   3.229   1.373   5.633
 6914TIP3    H220707   3.293   1.510   5.628
 6915TIP3   OH220708   1.236   0.652   0.940
 6915TIP3    H120709   1.211   0.636   0.849
 6915TIP3    H220710   1.293   0.729   0.936
 6916TIP3   OH220711   7.003   0.681   5.870
 6916TIP3    H120712   7.034   0.703   5.782
 6916TIP3    H220713   6.986   0.765   5.912
 6917TIP3   OH220714   6.612   3.194   1.315
 6917TIP3    H120715   6.618   3.114   1.366
 6917TIP3    H220716   6.634   3.264   1.377
 6918TIP3   OH220717   0.829   0.204   1.060
 6918TIP3    H120718   0.920   0.215   1.086
 6918TIP3    H220719   0.796   0.293   1.047
 6919TIP3   OH220720   2.967   6.719   1.137
 6919TIP3    H120721   2.881   6.761   1.130
 6919TIP3    H220722   3.028   6.791   1.151
 6920TIP3   OH220723   5.003   3.277   1.579
 6920TIP3    H120724   5.016   3.188   1.546
 6920TIP3    H220725   4.912   3.279   1.608
 6921TIP3   OH220726   2.188   0.434   5.390
 6921TIP3    H120727   2.258   0.486   5.351
 6921TIP3    H220728   2.118   0.497   5.409
 6922TIP3   OH220729   3.232   0.885   5.002
 6922TIP3    H120730   3.327   0.884   5.013
 6922TIP3    H220731   3.199   0.827   5.071
 6923TIP3   OH220732   0.978   4.636   4.851
 6923TIP3    H120733   0.948   4.554   4.889
 6923TIP3    H220734   1.073   4.628   4.850
 6924TIP3   OH220735   1.052   3.970   2.180
 6924TIP3    H120736   1.006   3.956   2.263
 6924TIP3    H220737   1.073   4.064   2.180
 6925TIP3   OH220738   1.755   4.542   5.873
 6925TIP3    H120739   1.728   4.482   5.803
 6925TIP3    H220740   1.843   4.513   5.895
 6926TIP3   OH220741   3.408   0.619   5.664
 6926TIP3    H120742   3.337   0.591   5.721
 6926TIP3    H220743   3.421   0.545   5.604
 6927TIP3   OH220744   6.951   6.233   3.758
 6927TIP3    H120745   6.995   6.166   3.810
 6927TIP3    H220746   6.907   6.185   3.688
 6928TIP3   OH220747   1.298   1.635   3.646
 6928TIP3    H120748   1.276   1.726   3.665
 6928TIP3    H220749   1.390   1.637   3.618
 6929TIP3   OH220750   2.888   6.093   1.187
 6929TIP3    H120751   2.817   6.135   1.139
 6929TIP3    H220752   2.929   6.034   1.123
 6930TIP3   OH220753   3.005   0.207   3.726
 6930TIP3    H120754   3.047   0.281   3.683
 6930TIP3    H220755   2.947   0.247   3.791
 6931TIP3   OH220756   5.562   0.082   2.440
 6931TIP3    H120757   5.558  -0.012   2.428
 6931TIP3    H220758   5.644   0.098   2.486
 6932TIP3   OH220759   3.235   5.624   1.633
 6932TIP3    H120760   3.305   5.582   1.582
 6932TIP3    H220761   3.208   5.698   1.579
 6933TIP3   OH220762   6.139   4.506   0.342
 6933TIP3    H120763   6.100   4.570   0.282
 6933TIP3    H220764   6.182   4.559   0.409
 6934TIP3   OH220765   2.832   4.037   1.780
 6934TIP3    H120766   2.926   4.021   1.792
 6934TIP3    H220767   2.823   4.132   1.781
 6935TIP3   OH220768   5.591   1.466   3.048
 6935TIP3    H120769   5.617   1.379   3.079
 6935TIP3    H220770   5.572   1.515   3.127
 6936TIP3   OH220771   4.007   3.126   2.201
 6936TIP3    H120772   4.018   3.053   2.263
 6936TIP3    H220773   3.926   3.169   2.228
 6937TIP3   OH220774   0.619   5.717   5.317
 6937TIP3    H120775   0.560   5.720   5.242
 6937TIP3    H220776   0.702   5.686   5.282
 6938TIP3   OH220777   5.202   3.267   1.815
 6938TIP3    H120778   5.274   3.206   1.800
 6938TIP3    H220779   5.133   3.238   1.756
 6939TIP3   OH220780   1.022   4.626   0.635
 6939TIP3    H120781   1.108   4.666   0.617
 6939TIP3    H220782   0.999   4.582   0.553
 6940TIP3   OH220783   5.120   2.569   0.578
 6940TIP3    H120784   5.102   2.504   0.646
 6940TIP3    H220785   5.105   2.653   0.620
 6941TIP3   OH220786   5.349   1.709   2.892
 6941TIP3    H120787   5.407   1.780   2.920
 6941TIP3    H220788   5.293   1.750   2.826
 6942TIP3   OH220789   3.230   6.692   0.924
 6942TIP3    H120790   3.246   6.706   1.017
 6942TIP3    H220791   3.301   6.635   0.895
 6943TIP3   OH220792   4.884   6.490   5.841
 6943TIP3    H120793   4.859   6.400   5.857
 6943TIP3    H220794   4.916   6.522   5.925
 6944TIP3   OH220795   4.022   4.515   4.957
 6944TIP3    H120796   4.112   4.521   4.989
 6944TIP3    H220797   3.975   4.584   5.004
 6945TIP3   OH220798   4.493   0.905   0.548
 6945TIP3    H120799   4.439   0.984   0.559
 6945TIP3    H220800   4.432   0.840   0.513
 6946TIP3   OH220801   1.687   3.311   1.179
 6946TIP3    H120802   1.706   3.229   1.132
 6946TIP3    H220803   1.682   3.377   1.110
 6947TIP3   OH220804   7.098   2.068   4.397
 6947TIP3    H120805   7.165   2.007   4.426
 6947TIP3    H220806   7.145   2.146   4.370
 6948TIP3   OH220807   1.700   2.909   5.890
 6948TIP3    H120808   1.678   2.820   5.916
 6948TIP3    H220809   1.660   2.920   5.804
 6949TIP3   OH220810   1.721   2.220   0.739
 6949TIP3    H120811   1.649   2.282   0.733
 6949TIP3    H220812   1.767   2.244   0.820
 6950TIP3   OH220813   6.169   0.587   1.226
 6950TIP3    H120814   6.095   0.526   1.221
 6950TIP3    H220815   6.247   0.530   1.225
 6951TIP3   OH220816   4.590   1.456   4.924
 6951TIP3    H120817   4.556   1.541   4.896
 6951TIP3    H220818   4.548   1.393   4.866
 6952TIP3   OH220819   4.556   1.291   1.934
 6952TIP3    H120820   4.578   1.247   2.017
 6952TIP3    H220821   4.460   1.287   1.930
 6953TIP3   OH220822   0.915   4.270   5.761
 6953TIP3    H120823   0.860   4.317   5.825
 6953TIP3    H220824   0.928   4.333   5.691
 6954TIP3   OH220825   3.384   6.090   5.119
 6954TIP3    H120826   3.412   6.178   5.093
 6954TIP3    H220827   3.444   6.031   5.072
 6955TIP3   OH220828   6.460   5.476   3.144
 6955TIP3    H120829   6.478   5.382   3.147
 6955TIP3    H220830   6.373   5.482   3.105
 6956TIP3   OH220831   2.003   0.904   3.959
 6956TIP3    H120832   1.994   0.809   3.970
 6956TIP3    H220833   2.068   0.913   3.889
 6957TIP3   OH220834   0.551   3.221   4.133
 6957TIP3    H120835   0.481   3.177   4.182
 6957TIP3    H220836   0.628   3.166   4.148
 6958TIP3   OH220837   2.110   1.124   4.088
 6958TIP3    H120838   2.049   1.122   4.162
 6958TIP3    H220839   2.083   1.051   4.033
 6959TIP3   OH220840   3.791   6.538   5.099
 6959TIP3    H120841   3.876   6.504   5.071
 6959TIP3    H220842   3.793   6.631   5.076
 6960TIP3   OH220843   1.583   4.860   5.185
 6960TIP3    H120844   1.592   4.954   5.194
 6960TIP3    H220845   1.488   4.845   5.178
 6961TIP3   OH220846   7.028   6.483   3.196
 6961TIP3    H120847   7.105   6.538   3.209
 6961TIP3    H220848   6.969   6.536   3.142
 6962TIP3   OH220849   6.979   4.422   3.490
 6962TIP3    H120850   6.908   4.439   3.552
 6962TIP3    H220851   6.972   4.328   3.472
 6963TIP3   OH220852  -0.006   0.922   0.815
 6963TIP3    H120853   0.021   1.009   0.844
 6963TIP3    H220854   0.075   0.881   0.783
 6964TIP3   OH220855   6.010   5.259   4.387
 6964TIP3    H120856   5.996   5.324   4.318
 6964TIP3    H220857   6.092   5.216   4.363
 6965TIP3   OH220858   2.401   0.448   4.008
 6965TIP3    H120859   2.466   0.476   3.944
 6965TIP3    H220860   2.453   0.417   4.082
 6966TIP3   OH220861   6.891   2.848   5.922
 6966TIP3    H120862   6.876   2.884   5.835
 6966TIP3    H220863   6.891   2.753   5.909
 6967TIP3   OH220864   2.720   2.940   3.283
 6967TIP3    H120865   2.757   2.934   3.196
 6967TIP3    H220866   2.779   2.999   3.331
 6968TIP3   OH220867   1.449   4.127   5.747
 6968TIP3    H120868   1.440   4.069   5.671
 6968TIP3    H220869   1.390   4.200   5.728
 6969TIP3   OH220870   1.361   4.530   4.175
 6969TIP3    H120871   1.310   4.570   4.104
 6969TIP3    H220872   1.308   4.545   4.254
 6970TIP3   OH220873   1.510   0.597   3.869
 6970TIP3    H120874   1.583   0.651   3.897
 6970TIP3    H220875   1.506   0.609   3.774
 6971TIP3   OH220876   6.041   6.224   0.905
 6971TIP3    H120877   6.073   6.247   0.992
 6971TIP3    H220878   6.038   6.128   0.905
 6972TIP3   OH220879   5.912   1.362   3.289
 6972TIP3    H120880   5.996   1.398   3.262
 6972TIP3    H220881   5.866   1.345   3.207
 6973TIP3   OH220882   0.905   5.626   2.038
 6973TIP3    H120883   0.833   5.608   2.099
 6973TIP3    H220884   0.940   5.710   2.068
 6974TIP3   OH220885   1.419   5.048   5.568
 6974TIP3    H120886   1.424   5.138   5.598
 6974TIP3    H220887   1.500   5.007   5.599
 6975TIP3   OH220888   2.296   0.053   3.123
 6975TIP3    H120889   2.359   0.068   3.193
 6975TIP3    H220890   2.255  -0.031   3.145
 6976TIP3   OH220891   1.570   4.164   1.416
 6976TIP3    H120892   1.607   4.108   1.347
 6976TIP3    H220893   1.510   4.107   1.463
 6977TIP3   OH220894   2.975   6.167   5.890
 6977TIP3    H120895   3.023   6.085   5.898
 6977TIP3    H220896   3.029   6.222   5.833
 6978TIP3   OH220897   0.776   0.480   1.965
 6978TIP3    H120898   0.688   0.508   1.988
 6978TIP3    H220899   0.766   0.437   1.880
 6979TIP3   OH220900   4.862   6.560   4.612
 6979TIP3    H120901   4.933   6.598   4.559
 6979TIP3    H220902   4.828   6.635   4.662
 6980TIP3   OH220903   3.243   3.788   1.570
 6980TIP3    H120904   3.230   3.820   1.481
 6980TIP3    H220905   3.301   3.852   1.610
 6981TIP3   OH220906   1.141   4.889   4.189
 6981TIP3    H120907   1.198   4.958   4.157
 6981TIP3    H220908   1.053   4.918   4.164
 6982TIP3   OH220909   1.554   5.169   3.852
 6982TIP3    H120910   1.599   5.199   3.772
 6982TIP3    H220911   1.623   5.129   3.905
 6983TIP3   OH220912   1.144   3.516   5.795
 6983TIP3    H120913   1.145   3.612   5.794
 6983TIP3    H220914   1.062   3.492   5.751
 6984TIP3   OH220915   1.527   4.007   5.477
 6984TIP3    H120916   1.599   4.068   5.490
 6984TIP3    H220917   1.549   3.960   5.397
 6985TIP3   OH220918   5.584   4.632   3.034
 6985TIP3    H120919   5.515   4.577   2.999
 6985TIP3    H220920   5.648   4.638   2.964
 6986TIP3   OH220921   0.588   4.673   4.847
 6986TIP3    H120922   0.522   4.603   4.847
 6986TIP3    H220923   0.539   4.751   4.823
 6987TIP3   OH220924   4.216   0.103   4.678
 6987TIP3    H120925   4.271   0.179   4.696
 6987TIP3    H220926   4.127   0.133   4.697
 6988TIP3   OH220927   4.182   2.252   5.723
 6988TIP3    H120928   4.210   2.168   5.760
 6988TIP3    H220929   4.183   2.238   5.628
 6989TIP3   OH220930   5.507   2.100   5.728
 6989TIP3    H120931   5.501   2.131   5.638
 6989TIP3    H220932   5.580   2.150   5.766
 6990TIP3   OH220933   1.725   2.815   2.736
 6990TIP3    H120934   1.763   2.787   2.820
 6990TIP3    H220935   1.797   2.859   2.691
 6991TIP3   OH220936   4.476   0.395   5.497
 6991TIP3    H120937   4.387   0.362   5.479
 6991TIP3    H220938   4.486   0.469   5.438
 6992TIP3   OH220939   5.887   2.873   2.430
 6992TIP3    H120940   5.968   2.833   2.459
 6992TIP3    H220941   5.823   2.851   2.498
 6993TIP3   OH220942   2.834   4.102   4.244
 6993TIP3    H120943   2.923   4.131   4.224
 6993TIP3    H220944   2.804   4.162   4.312
 6994TIP3   OH220945   2.637   2.253   4.268
 6994TIP3    H120946   2.697   2.272   4.341
 6994TIP3    H220947   2.692   2.258   4.190
 6995TIP3   OH220948   5.249   6.548   4.766
 6995TIP3    H120949   5.344   6.553   4.754
 6995TIP3    H220950   5.221   6.477   4.709
 6996TIP3   OH220951   5.656   0.506   4.141
 6996TIP3    H120952   5.634   0.417   4.116
 6996TIP3    H220953   5.681   0.549   4.059
 6997TIP3   OH220954   1.125   1.952   5.257
 6997TIP3    H120955   1.048   1.953   5.314
 6997TIP3    H220956   1.140   2.045   5.236
 6998TIP3   OH220957   5.559   3.620   5.362
 6998TIP3    H120958   5.620   3.593   5.431
 6998TIP3    H220959   5.604   3.690   5.316
 6999TIP3   OH220960   3.572   6.764   5.197
 6999TIP3    H120961   3.488   6.759   5.242
 6999TIP3    H220962   3.635   6.728   5.260
 7000TIP3   OH220963   6.202   1.549   3.889
 7000TIP3    H120964   6.182   1.467   3.844
 7000TIP3    H220965   6.293   1.568   3.865
 7001TIP3   OH220966   6.465   6.388   2.346
 7001TIP3    H120967   6.502   6.396   2.434
 7001TIP3    H220968   6.393   6.451   2.344
 7002TIP3   OH220969   1.527   4.893   3.036
 7002TIP3    H120970   1.509   4.962   2.972
 7002TIP3    H220971   1.570   4.937   3.109
 7003TIP3   OH220972   2.636   1.896   3.067
 7003TIP3    H120973   2.641   1.842   3.146
 7003TIP3    H220974   2.717   1.876   3.020
 7004TIP3   OH220975   2.817   4.400   1.507
 7004TIP3    H120976   2.794   4.487   1.539
 7004TIP3    H220977   2.755   4.341   1.550
 7005TIP3   OH220978   2.047   6.126   3.606
 7005TIP3    H120979   1.962   6.141   3.563
 7005TIP3    H220980   2.025   6.081   3.687
 7006TIP3   OH220981   5.196   0.130   4.778
 7006TIP3    H120982   5.114   0.153   4.735
 7006TIP3    H220983   5.192   0.035   4.789
 7007TIP3   OH220984   6.402   6.002   3.116
 7007TIP3    H120985   6.340   5.958   3.057
 7007TIP3    H220986   6.351   6.073   3.155
 7008TIP3   OH220987   4.782   1.953   2.822
 7008TIP3    H120988   4.772   1.858   2.815
 7008TIP3    H220989   4.768   1.971   2.915
 7009TIP3   OH220990   1.198   1.309   2.288
 7009TIP3    H120991   1.179   1.219   2.264
 7009TIP3    H220992   1.244   1.345   2.212
 7010TIP3   OH220993   6.956   3.743   4.372
 7010TIP3    H120994   6.926   3.756   4.462
 7010TIP3    H220995   6.963   3.648   4.362
 7011TIP3   OH220996   7.002   3.457   4.434
 7011TIP3    H120997   7.022   3.363   4.438
 7011TIP3    H220998   7.066   3.497   4.492
 7012TIP3   OH220999   3.921   0.167   5.092
 7012TIP3    H121000   3.854   0.193   5.156
 7012TIP3    H221001   3.973   0.101   5.138
 7013TIP3   OH221002   2.962   5.890   1.578
 7013TIP3    H121003   3.011   5.909   1.498
 7013TIP3    H221004   3.015   5.925   1.648
 7014TIP3   OH221005   6.297   2.085   2.890
 7014TIP3    H121006   6.244   2.130   2.824
 7014TIP3    H221007   6.331   2.155   2.945
 7015TIP3   OH221008   3.312   3.037   4.902
 7015TIP3    H121009   3.392   3.084   4.925
 7015TIP3    H221010   3.243   3.103   4.909
 7016TIP3   OH221011   6.326   0.303   2.141
 7016TIP3    H121012   6.415   0.288   2.173
 7016TIP3    H221013   6.337   0.326   2.049
 7017TIP3   OH221014   1.042   6.782   0.526
 7017TIP3    H121015   1.044   6.824   0.440
 7017TIP3    H221016   1.096   6.703   0.516
 7018TIP3   OH221017   3.305   1.692   4.849
 7018TIP3    H121018   3.259   1.772   4.823
 7018TIP3    H221019   3.253   1.657   4.922
 7019TIP3   OH221020   0.979   0.501   1.289
 7019TIP3    H121021   0.936   0.586   1.302
 7019TIP3    H221022   0.950   0.448   1.363
 7020TIP3   OH221023   1.918   0.343   5.605
 7020TIP3    H121024   1.949   0.425   5.566
 7020TIP3    H221025   1.979   0.277   5.575
 7021TIP3   OH221026   3.501   0.685   2.495
 7021TIP3    H121027   3.525   0.628   2.422
 7021TIP3    H221028   3.440   0.633   2.548
 7022TIP3   OH221029   3.198   3.983   3.043
 7022TIP3    H121030   3.229   3.949   3.128
 7022TIP3    H221031   3.106   3.957   3.040
 7023TIP3   OH221032   6.849   2.031   5.002
 7023TIP3    H121033   6.871   2.123   5.019
 7023TIP3    H221034   6.783   2.036   4.932
 7024TIP3   OH221035   0.142   1.316   2.074
 7024TIP3    H121036   0.125   1.226   2.099
 7024TIP3    H221037   0.064   1.343   2.026
 7025TIP3   OH221038   3.677   2.127   2.303
 7025TIP3    H121039   3.677   2.184   2.226
 7025TIP3    H221040   3.719   2.178   2.371
 7026TIP3   OH221041   4.415   3.522   3.152
 7026TIP3    H121042   4.322   3.541   3.164
 7026TIP3    H221043   4.448   3.506   3.240
 7027TIP3   OH221044   4.606   0.041   2.611
 7027TIP3    H121045   4.619   0.091   2.530
 7027TIP3    H221046   4.603  -0.050   2.582
 7028TIP3   OH221047   2.920   0.030   4.007
 7028TIP3    H121048   3.001   0.020   3.956
 7028TIP3    H221049   2.867  -0.046   3.981
 7029TIP3   OH221050   2.389   3.352   0.500
 7029TIP3    H121051   2.363   3.298   0.426
 7029TIP3    H221052   2.345   3.315   0.576
 7030TIP3   OH221053   5.042   1.583   5.197
 7030TIP3    H121054   5.128   1.611   5.229
 7030TIP3    H221055   5.049   1.591   5.102
 7031TIP3   OH221056   3.774   5.950   0.991
 7031TIP3    H121057   3.777   5.860   1.025
 7031TIP3    H221058   3.757   6.004   1.067
 7032TIP3   OH221059   6.153   3.352   1.736
 7032TIP3    H121060   6.071   3.389   1.769
 7032TIP3    H221061   6.210   3.427   1.724
 7033TIP3   OH221062   3.126   3.112   1.246
 7033TIP3    H121063   3.062   3.182   1.238
 7033TIP3    H221064   3.074   3.035   1.271
 7034TIP3   OH221065   2.277   6.483   2.777
 7034TIP3    H121066   2.326   6.541   2.835
 7034TIP3    H221067   2.271   6.531   2.695
 7035TIP3   OH221068   7.118   4.273   4.799
 7035TIP3    H121069   7.059   4.321   4.741
 7035TIP3    H221070   7.176   4.339   4.836
 7036TIP3   OH221071   3.006   0.997   4.566
 7036TIP3    H121072   3.081   0.942   4.589
 7036TIP3    H221073   2.945   0.987   4.639
 7037TIP3   OH221074   4.242   6.304   1.348
 7037TIP3    H121075   4.288   6.349   1.278
 7037TIP3    H221076   4.200   6.375   1.398
 7038TIP3   OH221077   3.961   3.093   5.512
 7038TIP3    H121078   3.972   3.136   5.428
 7038TIP3    H221079   4.035   3.124   5.565
 7039TIP3   OH221080   5.360   1.920   0.441
 7039TIP3    H121081   5.405   1.891   0.520
 7039TIP3    H221082   5.391   2.010   0.427
 7040TIP3   OH221083   4.306   6.295   4.141
 7040TIP3    H121084   4.265   6.270   4.224
 7040TIP3    H221085   4.400   6.288   4.158
 7041TIP3   OH221086   4.683   6.601   2.560
 7041TIP3    H121087   4.768   6.644   2.567
 7041TIP3    H221088   4.621   6.663   2.597
 7042TIP3   OH221089   0.697   0.901   4.668
 7042TIP3    H121090   0.614   0.946   4.683
 7042TIP3    H221091   0.723   0.929   4.579
 7043TIP3   OH221092   4.662   2.543   4.601
 7043TIP3    H121093   4.631   2.633   4.593
 7043TIP3    H221094   4.756   2.549   4.585
 7044TIP3   OH221095   5.050   4.315   5.175
 7044TIP3    H121096   5.105   4.373   5.122
 7044TIP3    H221097   4.963   4.321   5.135
 7045TIP3   OH221098   3.893   2.584   3.431
 7045TIP3    H121099   3.949   2.593   3.508
 7045TIP3    H221100   3.884   2.489   3.419
 7046TIP3   OH221101   6.234   3.603   0.457
 7046TIP3    H121102   6.297   3.557   0.401
 7046TIP3    H221103   6.276   3.686   0.478
 7047TIP3   OH221104   4.537   2.038   1.249
 7047TIP3    H121105   4.483   1.959   1.246
 7047TIP3    H221106   4.495   2.099   1.189
 7048TIP3   OH221107   2.071   2.880   3.138
 7048TIP3    H121108   2.026   2.960   3.110
 7048TIP3    H221109   2.020   2.848   3.212
 7049TIP3   OH221110   6.823   3.284   3.692
 7049TIP3    H121111   6.798   3.261   3.781
 7049TIP3    H221112   6.740   3.308   3.650
 7050TIP3   OH221113   0.419   4.565   2.461
 7050TIP3    H121114   0.460   4.630   2.404
 7050TIP3    H221115   0.418   4.485   2.408
 7051TIP3   OH221116   4.105   6.102   4.787
 7051TIP3    H121117   4.106   6.146   4.702
 7051TIP3    H221118   4.045   6.154   4.840
 7052TIP3   OH221119   0.416   1.616   3.110
 7052TIP3    H121120   0.378   1.531   3.133
 7052TIP3    H221121   0.380   1.635   3.024
 7053TIP3   OH221122   5.736   1.085   2.432
 7053TIP3    H121123   5.769   1.007   2.478
 7053TIP3    H221124   5.679   1.050   2.364
 7054TIP3   OH221125   5.778   3.551   3.141
 7054TIP3    H121126   5.720   3.509   3.205
 7054TIP3    H221127   5.801   3.635   3.181
 7055TIP3   OH221128   7.073   5.930   1.886
 7055TIP3    H121129   6.993   5.974   1.914
 7055TIP3    H221130   7.112   5.991   1.822
 7056TIP3   OH221131   6.773   5.080   3.611
 7056TIP3    H121132   6.701   5.082   3.674
 7056TIP3    H221133   6.753   5.150   3.549
 7057TIP3   OH221134   6.222   4.778   2.717
 7057TIP3    H121135   6.164   4.764   2.792
 7057TIP3    H221136   6.304   4.735   2.740
 7058TIP3   OH221137   7.023   2.621   1.639
 7058TIP3    H121138   7.082   2.585   1.706
 7058TIP3    H221139   7.076   2.627   1.560
 7059TIP3   OH221140   6.790   0.278   3.042
 7059TIP3    H121141   6.863   0.257   2.983
 7059TIP3    H221142   6.825   0.344   3.101
 7060TIP3   OH221143   4.653   3.874   3.588
 7060TIP3    H121144   4.607   3.795   3.615
 7060TIP3    H221145   4.678   3.858   3.497
 7061TIP3   OH221146   1.158   5.332   1.060
 7061TIP3    H121147   1.147   5.237   1.065
 7061TIP3    H221148   1.084   5.362   1.007
 7062TIP3   OH221149   1.729   6.499   0.215
 7062TIP3    H121150   1.721   6.592   0.235
 7062TIP3    H221151   1.823   6.482   0.217
 7063TIP3   OH221152   5.385   1.116   2.343
 7063TIP3    H121153   5.373   1.124   2.248
 7063TIP3    H221154   5.417   1.202   2.371
 7064TIP3   OH221155   6.173   4.040   2.137
 7064TIP3    H121156   6.123   3.968   2.176
 7064TIP3    H221157   6.171   4.109   2.204
 7065TIP3   OH221158   2.063   0.841   5.141
 7065TIP3    H121159   2.002   0.784   5.094
 7065TIP3    H221160   2.114   0.883   5.072
 7066TIP3   OH221161   2.479   1.923   1.045
 7066TIP3    H121162   2.518   1.885   0.966
 7066TIP3    H221163   2.504   2.015   1.042
 7067TIP3   OH221164   2.007   0.107   0.382
 7067TIP3    H121165   2.001   0.141   0.293
 7067TIP3    H221166   1.977   0.179   0.438
 7068TIP3   OH221167   6.620   2.870   3.222
 7068TIP3    H121168   6.699   2.877   3.276
 7068TIP3    H221169   6.549   2.900   3.280
 7069TIP3   OH221170   3.202   5.194   3.489
 7069TIP3    H121171   3.286   5.159   3.521
 7069TIP3    H221172   3.136   5.144   3.537
 7070TIP3   OH221173   4.851   1.864   2.033
 7070TIP3    H121174   4.894   1.836   2.114
 7070TIP3    H221175   4.845   1.785   1.980
 7071TIP3   OH221176   5.721   2.860   2.650
 7071TIP3    H121177   5.741   2.954   2.652
 7071TIP3    H221178   5.674   2.844   2.732
 7072TIP3   OH221179   2.082   2.839   0.707
 7072TIP3    H121180   2.006   2.781   0.710
 7072TIP3    H221181   2.059   2.903   0.639
 7073TIP3   OH221182   2.924   4.443   0.613
 7073TIP3    H121183   2.989   4.401   0.557
 7073TIP3    H221184   2.874   4.500   0.555
 7074TIP3   OH221185   4.730   6.010   3.949
 7074TIP3    H121186   4.731   6.094   3.903
 7074TIP3    H221187   4.642   6.005   3.987
 7075TIP3   OH221188   1.652   3.462   0.928
 7075TIP3    H121189   1.636   3.404   0.854
 7075TIP3    H221190   1.735   3.505   0.908
 7076TIP3   OH221191   5.348   2.541   3.604
 7076TIP3    H121192   5.316   2.631   3.608
 7076TIP3    H221193   5.316   2.500   3.684
 7077TIP3   OH221194   3.146   4.398   4.991
 7077TIP3    H121195   3.157   4.321   4.935
 7077TIP3    H221196   3.220   4.394   5.052
 7078TIP3   OH221197   3.659   4.166   1.318
 7078TIP3    H121198   3.723   4.109   1.358
 7078TIP3    H221199   3.668   4.150   1.224
 7079TIP3   OH221200   0.585   5.867   3.999
 7079TIP3    H121201   0.621   5.954   4.017
 7079TIP3    H221202   0.618   5.812   4.070
 7080TIP3   OH221203   4.708   1.806   1.217
 7080TIP3    H121204   4.680   1.800   1.126
 7080TIP3    H221205   4.713   1.900   1.234
 7081TIP3   OH221206   3.707   0.312   1.218
 7081TIP3    H121207   3.779   0.372   1.197
 7081TIP3    H221208   3.716   0.241   1.154
 7082TIP3   OH221209   3.343   1.281   1.557
 7082TIP3    H121210   3.363   1.335   1.633
 7082TIP3    H221211   3.346   1.342   1.483
 7083TIP3   OH221212   6.699   3.952   3.684
 7083TIP3    H121213   6.670   3.955   3.775
 7083TIP3    H221214   6.717   3.860   3.667
 7084TIP3   OH221215   2.144   0.461   3.925
 7084TIP3    H121216   2.098   0.500   4.000
 7084TIP3    H221217   2.234   0.448   3.957
 7085TIP3   OH221218   6.135   4.615   3.659
 7085TIP3    H121219   6.168   4.690   3.610
 7085TIP3    H221220   6.125   4.546   3.594
 7086TIP3   OH221221   1.178   1.215   4.216
 7086TIP3    H121222   1.259   1.216   4.268
 7086TIP3    H221223   1.144   1.304   4.223
 7087TIP3   OH221224   1.576   3.069   4.936
 7087TIP3    H121225   1.630   3.062   4.857
 7087TIP3    H221226   1.515   3.140   4.918
 7088TIP3   OH221227   3.175   1.524   3.576
 7088TIP3    H121228   3.250   1.490   3.527
 7088TIP3    H221229   3.169   1.616   3.552
 7089TIP3   OH221230   0.972   6.679   0.117
 7089TIP3    H121231   0.951   6.719   0.202
 7089TIP3    H221232   0.928   6.594   0.119
 7090TIP3   OH221233   2.137   4.329   3.159
 7090TIP3    H121234   2.067   4.291   3.106
 7090TIP3    H221235   2.116   4.422   3.162
 7091TIP3   OH221236   5.081   3.589   1.898
 7091TIP3    H121237   5.173   3.608   1.882
 7091TIP3    H221238   5.040   3.589   1.812
 7092TIP3   OH221239   1.890   0.781   2.030
 7092TIP3    H121240   1.889   0.857   1.971
 7092TIP3    H221241   1.806   0.786   2.076
 7093TIP3   OH221242   2.776   3.404   1.667
 7093TIP3    H121243   2.794   3.444   1.582
 7093TIP3    H221244   2.685   3.426   1.685
 7094TIP3   OH221245   0.258   1.661   1.120
 7094TIP3    H121246   0.232   1.623   1.204
 7094TIP3    H221247   0.304   1.742   1.143
 7095TIP3   OH221248   5.116   0.182   1.722
 7095TIP3    H121249   5.042   0.197   1.664
 7095TIP3    H221250   5.193   0.197   1.667
 7096TIP3   OH221251   6.832   3.486   2.189
 7096TIP3    H121252   6.851   3.395   2.213
 7096TIP3    H221253   6.886   3.502   2.112
 7097TIP3   OH221254   0.253   4.161   5.347
 7097TIP3    H121255   0.184   4.120   5.399
 7097TIP3    H221256   0.319   4.188   5.410
 7098TIP3   OH221257   3.522   3.269   2.617
 7098TIP3    H121258   3.431   3.250   2.594
 7098TIP3    H221259   3.568   3.187   2.598
 7099TIP3   OH221260   6.992   6.738   4.378
 7099TIP3    H121261   7.073   6.748   4.428
 7099TIP3    H221262   7.020   6.701   4.294
 7100TIP3   OH221263   4.521   0.570   0.483
 7100TIP3    H121264   4.446   0.624   0.458
 7100TIP3    H221265   4.582   0.632   0.523
 7101TIP3   OH221266   4.693   1.886   0.571
 7101TIP3    H121267   4.619   1.885   0.631
 7101TIP3    H221268   4.655   1.867   0.486
 7102TIP3   OH221269   1.770   2.192   5.807
 7102TIP3    H121270   1.718   2.124   5.850
 7102TIP3    H221271   1.783   2.160   5.718
 7103TIP3   OH221272   1.106   5.495   0.608
 7103TIP3    H121273   1.081   5.408   0.579
 7103TIP3    H221274   1.028   5.530   0.651
 7104TIP3   OH221275   5.976   5.623   2.750
 7104TIP3    H121276   5.948   5.535   2.776
 7104TIP3    H221277   6.070   5.615   2.736
 7105TIP3   OH221278   1.325   0.636   0.455
 7105TIP3    H121279   1.343   0.730   0.455
 7105TIP3    H221280   1.306   0.615   0.364
 7106TIP3   OH221281   2.581   1.887   1.838
 7106TIP3    H121282   2.672   1.857   1.838
 7106TIP3    H221283   2.530   1.807   1.828
 7107TIP3   OH221284   1.031   3.360   3.270
 7107TIP3    H121285   0.985   3.290   3.316
 7107TIP3    H221286   1.102   3.315   3.223
 7108TIP3   OH221287   3.924   6.670   4.418
 7108TIP3    H121288   3.887   6.582   4.413
 7108TIP3    H221289   3.996   6.670   4.355
 7109TIP3   OH221290   6.376   2.017   0.979
 7109TIP3    H121291   6.287   2.048   0.963
 7109TIP3    H221292   6.370   1.922   0.975
 7110TIP3   OH221293   5.728   6.269   2.410
 7110TIP3    H121294   5.751   6.228   2.494
 7110TIP3    H221295   5.787   6.228   2.347
 7111TIP3   OH221296   3.165   3.850   1.310
 7111TIP3    H121297   3.242   3.846   1.253
 7111TIP3    H221298   3.118   3.768   1.294
 7112TIP3   OH221299   6.178   5.168   2.983
 7112TIP3    H121300   6.210   5.094   2.932
 7112TIP3    H221301   6.122   5.129   3.050
 7113TIP3   OH221302   2.547   4.467   5.415
 7113TIP3    H121303   2.475   4.458   5.352
 7113TIP3    H221304   2.619   4.505   5.364
 7114TIP3   OH221305   0.997   3.444   1.895
 7114TIP3    H121306   1.025   3.512   1.834
 7114TIP3    H221307   1.078   3.397   1.917
 7115TIP3   OH221308   6.048   6.168   2.591
 7115TIP3    H121309   6.065   6.225   2.666
 7115TIP3    H221310   6.126   6.176   2.537
 7116TIP3   OH221311   4.355   6.062   1.990
 7116TIP3    H121312   4.370   6.096   2.079
 7116TIP3    H221313   4.263   6.080   1.973
 7117TIP3   OH221314   5.920   2.589   3.195
 7117TIP3    H121315   5.936   2.533   3.271
 7117TIP3    H221316   5.931   2.678   3.228
 7118TIP3   OH221317   5.003   3.842   4.445
 7118TIP3    H121318   4.928   3.791   4.477
 7118TIP3    H221319   5.021   3.904   4.515
 7119TIP3   OH221320   1.164   2.514   1.664
 7119TIP3    H121321   1.133   2.604   1.659
 7119TIP3    H221322   1.220   2.512   1.741
 7120TIP3   OH221323   6.511   5.151   1.507
 7120TIP3    H121324   6.444   5.083   1.502
 7120TIP3    H221325   6.574   5.128   1.439
 7121TIP3   OH221326   2.650   5.446   4.929
 7121TIP3    H121327   2.685   5.531   4.954
 7121TIP3    H221328   2.582   5.428   4.994
 7122TIP3   OH221329   0.366   0.383   3.689
 7122TIP3    H121330   0.336   0.462   3.735
 7122TIP3    H221331   0.373   0.410   3.598
 7123TIP3   OH221332   2.505   2.359   2.661
 7123TIP3    H121333   2.599   2.342   2.669
 7123TIP3    H221334   2.474   2.294   2.598
 7124TIP3   OH221335   3.391   0.859   1.864
 7124TIP3    H121336   3.352   0.919   1.801
 7124TIP3    H221337   3.323   0.845   1.929
 7125TIP3   OH221338   5.078   5.479   5.001
 7125TIP3    H121339   5.102   5.557   4.950
 7125TIP3    H221340   5.133   5.483   5.079
 7126TIP3   OH221341   2.128   5.056   1.356
 7126TIP3    H121342   2.172   5.121   1.300
 7126TIP3    H221343   2.114   5.102   1.439
 7127TIP3   OH221344   6.330   2.653   5.651
 7127TIP3    H121345   6.304   2.716   5.583
 7127TIP3    H221346   6.412   2.689   5.686
 7128TIP3   OH221347   2.939   4.500   3.471
 7128TIP3    H121348   2.852   4.493   3.511
 7128TIP3    H221349   2.998   4.457   3.534
 7129TIP3   OH221350   3.034   0.135   1.656
 7129TIP3    H121351   2.938   0.137   1.653
 7129TIP3    H221352   3.059   0.081   1.582
 7130TIP3   OH221353   0.686   0.407   3.597
 7130TIP3    H121354   0.753   0.349   3.632
 7130TIP3    H221355   0.718   0.495   3.617
 7131TIP3   OH221356   3.520   3.270   3.607
 7131TIP3    H121357   3.587   3.209   3.639
 7131TIP3    H221358   3.448   3.260   3.669
 7132TIP3   OH221359   1.248   2.701   2.377
 7132TIP3    H121360   1.211   2.620   2.412
 7132TIP3    H221361   1.213   2.771   2.432
 7133TIP3   OH221362   1.388   5.263   0.084
 7133TIP3    H121363   1.321   5.327   0.063
 7133TIP3    H221364   1.341   5.180   0.096
 7134TIP3   OH221365   3.054   4.694   0.018
 7134TIP3    H121366   3.086   4.763  -0.040
 7134TIP3    H221367   3.031   4.739   0.099
 7135TIP3   OH221368   3.954   1.652   3.161
 7135TIP3    H121369   4.011   1.726   3.138
 7135TIP3    H221370   3.867   1.678   3.131
 7136TIP3   OH221371   6.349   6.506   5.350
 7136TIP3    H121372   6.293   6.498   5.427
 7136TIP3    H221373   6.401   6.426   5.350
 7137TIP3   OH221374   1.875   1.506   3.248
 7137TIP3    H121375   1.895   1.479   3.159
 7137TIP3    H221376   1.812   1.440   3.279
 7138TIP3   OH221377   2.783   2.048   1.007
 7138TIP3    H121378   2.749   2.138   1.010
 7138TIP3    H221379   2.755   2.015   0.922
 7139TIP3   OH221380   1.170   1.492   4.835
 7139TIP3    H121381   1.264   1.490   4.854
 7139TIP3    H221382   1.150   1.403   4.806
 7140TIP3   OH221383   2.598   0.906   1.233
 7140TIP3    H121384   2.545   0.940   1.305
 7140TIP3    H221385   2.666   0.972   1.221
 7141TIP3   OH221386   2.020   3.070   3.744
 7141TIP3    H121387   2.064   3.111   3.669
 7141TIP3    H221388   2.064   3.106   3.821
 7142TIP3   OH221389   3.495   5.253   4.995
 7142TIP3    H121390   3.438   5.325   5.021
 7142TIP3    H221391   3.494   5.194   5.070
 7143TIP3   OH221392   4.526   3.767   4.441
 7143TIP3    H121393   4.606   3.714   4.442
 7143TIP3    H221394   4.507   3.782   4.534
 7144TIP3   OH221395   1.252   0.086   3.422
 7144TIP3    H121396   1.346   0.101   3.432
 7144TIP3    H221397   1.231   0.120   3.335
 7145TIP3   OH221398   5.836   0.896   0.792
 7145TIP3    H121399   5.880   0.961   0.847
 7145TIP3    H221400   5.778   0.948   0.736
 7146TIP3   OH221401   4.822   0.964   3.786
 7146TIP3    H121402   4.898   1.020   3.802
 7146TIP3    H221403   4.855   0.894   3.731
 7147TIP3   OH221404   5.858   2.082   3.957
 7147TIP3    H121405   5.763   2.077   3.968
 7147TIP3    H221406   5.882   2.167   3.995
 7148TIP3   OH221407   6.598   4.370   2.194
 7148TIP3    H121408   6.623   4.278   2.201
 7148TIP3    H221409   6.670   4.418   2.235
 7149TIP3   OH221410   6.745   6.345   0.243
 7149TIP3    H121411   6.753   6.438   0.263
 7149TIP3    H221412   6.828   6.322   0.201
 7150TIP3   OH221413   3.290   3.941   5.456
 7150TIP3    H121414   3.376   3.914   5.489
 7150TIP3    H221415   3.260   4.007   5.518
 7151TIP3   OH221416   6.902   5.643   3.460
 7151TIP3    H121417   6.873   5.647   3.551
 7151TIP3    H221418   6.976   5.582   3.461
 7152TIP3   OH221419   1.537   2.173   1.875
 7152TIP3    H121420   1.602   2.110   1.905
 7152TIP3    H221421   1.468   2.170   1.942
 7153TIP3   OH221422   5.743   0.706   0.971
 7153TIP3    H121423   5.768   0.782   0.917
 7153TIP3    H221424   5.655   0.727   1.002
 7154TIP3   OH221425   6.451   2.918   1.272
 7154TIP3    H121426   6.458   3.010   1.248
 7154TIP3    H221427   6.513   2.873   1.215
 7155TIP3   OH221428   0.861   5.045   5.300
 7155TIP3    H121429   0.880   5.107   5.229
 7155TIP3    H221430   0.813   5.097   5.365
 7156TIP3   OH221431   2.934   5.660   0.460
 7156TIP3    H121432   2.884   5.658   0.378
 7156TIP3    H221433   2.926   5.751   0.490
 7157TIP3   OH221434   0.971   2.037   0.902
 7157TIP3    H121435   0.982   2.132   0.906
 7157TIP3    H221436   0.911   2.016   0.973
 7158TIP3   OH221437   2.058   1.085   5.558
 7158TIP3    H121438   2.081   1.001   5.598
 7158TIP3    H221439   2.038   1.063   5.467
 7159TIP3   OH221440   3.548   0.240   1.904
 7159TIP3    H121441   3.563   0.153   1.864
 7159TIP3    H221442   3.600   0.239   1.984
 7160TIP3   OH221443   7.123   4.191   2.695
 7160TIP3    H121444   7.096   4.273   2.736
 7160TIP3    H221445   7.069   4.183   2.617
 7161TIP3   OH221446   4.834   5.826   1.916
 7161TIP3    H121447   4.884   5.840   1.836
 7161TIP3    H221448   4.750   5.791   1.885
 7162TIP3   OH221449   4.773   5.804   0.172
 7162TIP3    H121450   4.783   5.893   0.138
 7162TIP3    H221451   4.839   5.753   0.126
 7163TIP3   OH221452   0.242   2.212   3.563
 7163TIP3    H121453   0.300   2.192   3.490
 7163TIP3    H221454   0.278   2.292   3.601
 7164TIP3   OH221455   4.900   0.927   5.370
 7164TIP3    H121456   4.838   0.996   5.348
 7164TIP3    H221457   4.884   0.909   5.463
 7165TIP3   OH221458   4.103   6.740   4.238
 7165TIP3    H121459   4.096   6.726   4.143
 7165TIP3    H221460   4.111   6.835   4.247
 7166TIP3   OH221461   4.650   4.468   2.027
 7166TIP3    H121462   4.653   4.394   2.088
 7166TIP3    H221463   4.566   4.458   1.981
 7167TIP3   OH221464   5.710   4.981   1.235
 7167TIP3    H121465   5.674   4.967   1.148
 7167TIP3    H221466   5.692   5.072   1.255
 7168TIP3   OH221467   3.188   6.562   0.495
 7168TIP3    H121468   3.215   6.591   0.582
 7168TIP3    H221469   3.095   6.540   0.505
 7169TIP3   OH221470   5.266   2.566   2.907
 7169TIP3    H121471   5.336   2.612   2.861
 7169TIP3    H221472   5.301   2.550   2.995
 7170TIP3   OH221473   0.963   1.780   2.422
 7170TIP3    H121474   1.057   1.764   2.436
 7170TIP3    H221475   0.958   1.810   2.331
 7171TIP3   OH221476   1.533   1.674   2.090
 7171TIP3    H121477   1.542   1.718   2.175
 7171TIP3    H221478   1.439   1.662   2.080
 7172TIP3   OH221479   7.042   5.825   2.829
 7172TIP3    H121480   7.122   5.780   2.859
 7172TIP3    H221481   7.039   5.809   2.735
 7173TIP3   OH221482   2.894   4.857   4.524
 7173TIP3    H121483   2.867   4.785   4.581
 7173TIP3    H221484   2.982   4.880   4.556
 7174TIP3   OH221485   5.091   3.982   4.159
 7174TIP3    H121486   5.047   3.941   4.234
 7174TIP3    H221487   5.167   4.025   4.198
 7175TIP3   OH221488   2.960   5.190   0.537
 7175TIP3    H121489   2.882   5.201   0.591
 7175TIP3    H221490   3.010   5.120   0.581
 7176TIP3   OH221491   1.278   3.595   4.349
 7176TIP3    H121492   1.373   3.595   4.339
 7176TIP3    H221493   1.247   3.660   4.286
 7177TIP3   OH221494   6.951   1.111   5.506
 7177TIP3    H121495   7.002   1.110   5.424
 7177TIP3    H221496   6.881   1.173   5.489
 7178TIP3   OH221497   3.992   0.771   2.099
 7178TIP3    H121498   4.065   0.757   2.038
 7178TIP3    H221499   3.940   0.840   2.059
 7179TIP3   OH221500   4.815   6.515   1.929
 7179TIP3    H121501   4.771   6.511   1.844
 7179TIP3    H221502   4.886   6.451   1.923
 7180TIP3   OH221503   2.795   2.680   2.155
 7180TIP3    H121504   2.702   2.688   2.132
 7180TIP3    H221505   2.810   2.586   2.162
 7181TIP3   OH221506   0.568   6.601   2.708
 7181TIP3    H121507   0.594   6.693   2.698
 7181TIP3    H221508   0.642   6.551   2.674
 7182TIP3   OH221509   3.108   4.075   3.371
 7182TIP3    H121510   3.196   4.111   3.386
 7182TIP3    H221511   3.070   4.066   3.458
 7183TIP3   OH221512   0.766   2.026   2.261
 7183TIP3    H121513   0.742   1.975   2.339
 7183TIP3    H221514   0.725   1.979   2.188
 7184TIP3   OH221515   3.498   4.294   5.001
 7184TIP3    H121516   3.441   4.228   4.961
 7184TIP3    H221517   3.584   4.278   4.963
 7185TIP3   OH221518   5.700   5.883   4.028
 7185TIP3    H121519   5.751   5.964   4.023
 7185TIP3    H221520   5.611   5.909   4.003
 7186TIP3   OH221521   1.348   6.476   4.524
 7186TIP3    H121522   1.443   6.465   4.512
 7186TIP3    H221523   1.312   6.477   4.435
 7187TIP3   OH221524   4.332   3.871   3.933
 7187TIP3    H121525   4.331   3.962   3.960
 7187TIP3    H221526   4.312   3.873   3.839
 7188TIP3   OH221527   0.461   4.951   4.074
 7188TIP3    H121528   0.530   5.014   4.056
 7188TIP3    H221529   0.381   4.994   4.045
 7189TIP3   OH221530   5.838   3.689   2.485
 7189TIP3    H121531   5.745   3.666   2.482
 7189TIP3    H221532   5.851   3.729   2.571
 7190TIP3   OH221533   5.695   5.109   2.128
 7190TIP3    H121534   5.646   5.166   2.188
 7190TIP3    H221535   5.648   5.025   2.132
 7191TIP3   OH221536   3.126   2.120   3.768
 7191TIP3    H121537   3.085   2.205   3.789
 7191TIP3    H221538   3.085   2.059   3.829
 7192TIP3   OH221539   2.632   5.339   5.718
 7192TIP3    H121540   2.719   5.300   5.718
 7192TIP3    H221541   2.582   5.288   5.654
 7193TIP3   OH221542   3.215   5.623   0.781
 7193TIP3    H121543   3.237   5.705   0.825
 7193TIP3    H221544   3.283   5.611   0.715
 7194TIP3   OH221545   0.150   3.052   4.895
 7194TIP3    H121546   0.186   3.039   4.808
 7194TIP3    H221547   0.149   3.147   4.907
 7195TIP3   OH221548   3.186   2.915   3.435
 7195TIP3    H121549   3.147   2.952   3.514
 7195TIP3    H221550   3.278   2.900   3.458
 7196TIP3   OH221551   3.726   4.325   0.390
 7196TIP3    H121552   3.635   4.339   0.413
 7196TIP3    H221553   3.723   4.275   0.308
 7197TIP3   OH221554   0.695   0.082   3.298
 7197TIP3    H121555   0.638   0.006   3.303
 7197TIP3    H221556   0.783   0.046   3.283
 7198TIP3   OH221557   1.927   1.472   4.022
 7198TIP3    H121558   1.874   1.393   4.029
 7198TIP3    H221559   1.932   1.490   3.928
 7199TIP3   OH221560   4.049   3.183   4.509
 7199TIP3    H121561   4.075   3.275   4.514
 7199TIP3    H221562   4.127   3.137   4.479
 7200TIP3   OH221563   6.727   6.718   0.591
 7200TIP3    H121564   6.763   6.642   0.636
 7200TIP3    H221565   6.795   6.786   0.600
 7201TIP3   OH221566   5.758   1.737   3.214
 7201TIP3    H121567   5.726   1.804   3.275
 7201TIP3    H221568   5.817   1.684   3.267
 7202TIP3   OH221569   3.395   1.945   5.252
 7202TIP3    H121570   3.322   1.938   5.313
 7202TIP3    H221571   3.448   1.867   5.270
 7203TIP3   OH221572   4.468   2.039   0.166
 7203TIP3    H121573   4.498   1.990   0.089
 7203TIP3    H221574   4.393   2.089   0.134
 7204TIP3   OH221575   1.619   5.069   4.828
 7204TIP3    H121576   1.615   5.040   4.737
 7204TIP3    H221577   1.666   4.999   4.874
 7205TIP3   OH221578   0.886   6.299   3.025
 7205TIP3    H121579   0.798   6.336   3.026
 7205TIP3    H221580   0.899   6.265   3.113
 7206TIP3   OH221581   1.179   6.563   0.441
 7206TIP3    H121582   1.169   6.519   0.356
 7206TIP3    H221583   1.242   6.509   0.488
 7207TIP3   OH221584   4.276   4.224   0.892
 7207TIP3    H121585   4.239   4.136   0.900
 7207TIP3    H221586   4.200   4.281   0.881
 7208TIP3   OH221587   1.683   4.128   4.480
 7208TIP3    H121588   1.764   4.159   4.520
 7208TIP3    H221589   1.643   4.072   4.546
 7209TIP3   OH221590   6.237   5.190   0.718
 7209TIP3    H121591   6.142   5.192   0.724
 7209TIP3    H221592   6.257   5.247   0.643
 7210TIP3   OH221593   1.434   1.921   0.307
 7210TIP3    H121594   1.421   1.964   0.223
 7210TIP3    H221595   1.355   1.868   0.319
 7211TIP3   OH221596   2.214   4.469   2.076
 7211TIP3    H121597   2.190   4.382   2.108
 7211TIP3    H221598   2.310   4.468   2.074
 7212TIP3   OH221599   0.142   4.121   4.634
 7212TIP3    H121600   0.131   4.216   4.632
 7212TIP3    H221601   0.075   4.087   4.575
 7213TIP3   OH221602   4.947   1.717   4.165
 7213TIP3    H121603   4.911   1.628   4.158
 7213TIP3    H221604   4.878   1.767   4.209
 7214TIP3   OH221605   1.289   2.587   0.957
 7214TIP3    H121606   1.255   2.503   0.928
 7214TIP3    H221607   1.326   2.569   1.044
 7215TIP3   OH221608   5.566   6.147   4.719
 7215TIP3    H121609   5.520   6.219   4.676
 7215TIP3    H221610   5.656   6.178   4.726
 7216TIP3   OH221611   1.059   3.118   2.162
 7216TIP3    H121612   1.124   3.160   2.106
 7216TIP3    H221613   1.008   3.190   2.198
 7217TIP3   OH221614   0.259   3.286   4.541
 7217TIP3    H121615   0.250   3.198   4.578
 7217TIP3    H221616   0.348   3.289   4.506
 7218TIP3   OH221617   2.873   4.440   0.095
 7218TIP3    H121618   2.823   4.436   0.013
 7218TIP3    H221619   2.946   4.500   0.075
 7219TIP3   OH221620   0.276   0.064   5.577
 7219TIP3    H121621   0.203   0.103   5.626
 7219TIP3    H221622   0.313   0.137   5.527
 7220TIP3   OH221623   6.408   3.739   5.351
 7220TIP3    H121624   6.495   3.699   5.358
 7220TIP3    H221625   6.408   3.808   5.417
 7221TIP3   OH221626   2.465   2.628   4.397
 7221TIP3    H121627   2.410   2.555   4.425
 7221TIP3    H221628   2.446   2.698   4.460
 7222TIP3   OH221629   5.214   1.138   3.696
 7222TIP3    H121630   5.224   1.168   3.606
 7222TIP3    H221631   5.122   1.154   3.717
 7223TIP3   OH221632   6.198   5.734   4.258
 7223TIP3    H121633   6.178   5.827   4.250
 7223TIP3    H221634   6.174   5.712   4.348
 7224TIP3   OH221635   1.633   1.077   4.487
 7224TIP3    H121636   1.727   1.081   4.501
 7224TIP3    H221637   1.599   1.028   4.562
 7225TIP3   OH221638   1.102   1.061   1.409
 7225TIP3    H121639   1.107   1.116   1.487
 7225TIP3    H221640   1.158   0.986   1.430
 7226TIP3   OH221641   5.921   2.823   3.350
 7226TIP3    H121642   5.848   2.781   3.397
 7226TIP3    H221643   5.998   2.800   3.402
 7227TIP3   OH221644   6.382   4.647   3.817
 7227TIP3    H121645   6.301   4.615   3.777
 7227TIP3    H221646   6.384   4.740   3.795
 7228TIP3   OH221647   6.570   3.413   2.151
 7228TIP3    H121648   6.495   3.471   2.164
 7228TIP3    H221649   6.639   3.449   2.207
 7229TIP3   OH221650   2.041   1.859   3.564
 7229TIP3    H121651   1.997   1.943   3.578
 7229TIP3    H221652   2.134   1.877   3.581
 7230TIP3   OH221653   5.586   3.381   3.229
 7230TIP3    H121654   5.561   3.331   3.152
 7230TIP3    H221655   5.504   3.420   3.260
 7231TIP3   OH221656   3.717   0.838   4.314
 7231TIP3    H121657   3.754   0.918   4.350
 7231TIP3    H221658   3.677   0.794   4.389
 7232TIP3   OH221659   6.713   6.443   5.861
 7232TIP3    H121660   6.762   6.397   5.793
 7232TIP3    H221661   6.736   6.535   5.849
 7233TIP3   OH221662   5.324   3.247   3.393
 7233TIP3    H121663   5.252   3.290   3.346
 7233TIP3    H221664   5.349   3.308   3.461
 7234TIP3   OH221665   3.627   6.753   1.028
 7234TIP3    H121666   3.627   6.746   1.123
 7234TIP3    H221667   3.578   6.834   1.010
 7235TIP3   OH221668   6.549   4.271   3.647
 7235TIP3    H121669   6.516   4.272   3.737
 7235TIP3    H221670   6.496   4.206   3.603
 7236TIP3   OH221671   1.746   3.635   3.091
 7236TIP3    H121672   1.814   3.693   3.056
 7236TIP3    H221673   1.766   3.628   3.184
 7237TIP3   OH221674   1.183   4.639   0.872
 7237TIP3    H121675   1.165   4.730   0.893
 7237TIP3    H221676   1.114   4.614   0.810
 7238TIP3   OH221677   5.007   5.214   0.529
 7238TIP3    H121678   5.070   5.239   0.597
 7238TIP3    H221679   5.022   5.275   0.457
 7239TIP3   OH221680   7.008   3.398   3.989
 7239TIP3    H121681   7.046   3.383   4.076
 7239TIP3    H221682   6.934   3.338   3.985
 7240TIP3   OH221683   2.607   2.244   2.185
 7240TIP3    H121684   2.577   2.259   2.095
 7240TIP3    H221685   2.570   2.160   2.210
 7241TIP3   OH221686   0.579   1.444   0.988
 7241TIP3    H121687   0.649   1.437   0.924
 7241TIP3    H221688   0.498   1.441   0.936
 7242TIP3   OH221689   2.457   2.175   0.449
 7242TIP3    H121690   2.508   2.174   0.529
 7242TIP3    H221691   2.516   2.140   0.382
 7243TIP3   OH221692   6.185   3.728   1.874
 7243TIP3    H121693   6.139   3.709   1.792
 7243TIP3    H221694   6.212   3.819   1.866
 7244TIP3   OH221695   1.217   1.518   1.162
 7244TIP3    H121696   1.250   1.550   1.246
 7244TIP3    H221697   1.257   1.576   1.097
 7245TIP3   OH221698   6.583   1.601   0.951
 7245TIP3    H121699   6.595   1.578   0.859
 7245TIP3    H221700   6.650   1.667   0.969
 7246TIP3   OH221701   6.096   0.162   1.616
 7246TIP3    H121702   6.024   0.180   1.676
 7246TIP3    H221703   6.100   0.066   1.612
 7247TIP3   OH221704   0.799   4.438   2.306
 7247TIP3    H121705   0.770   4.359   2.261
 7247TIP3    H221706   0.871   4.472   2.253
 7248TIP3   OH221707   1.252   4.184   2.815
 7248TIP3    H121708   1.200   4.164   2.892
 7248TIP3    H221709   1.332   4.132   2.825
 7249TIP3   OH221710   4.427   4.245   5.201
 7249TIP3    H121711   4.479   4.317   5.236
 7249TIP3    H221712   4.420   4.263   5.108
 7250TIP3   OH221713   2.213   6.110   0.913
 7250TIP3    H121714   2.160   6.039   0.949
 7250TIP3    H221715   2.283   6.065   0.866
 7251TIP3   OH221716   0.321   0.357   4.606
 7251TIP3    H121717   0.288   0.267   4.614
 7251TIP3    H221718   0.365   0.374   4.689
 7252TIP3   OH221719   1.335   6.037   5.555
 7252TIP3    H121720   1.338   6.006   5.645
 7252TIP3    H221721   1.425   6.027   5.523
 7253TIP3   OH221722   4.033   0.139   5.411
 7253TIP3    H121723   4.000   0.056   5.377
 7253TIP3    H221724   3.956   0.182   5.448
 7254TIP3   OH221725   2.456   4.899   1.297
 7254TIP3    H121726   2.513   4.845   1.242
 7254TIP3    H221727   2.369   4.890   1.258
 7255TIP3   OH221728   0.701   0.040   5.620
 7255TIP3    H121729   0.691  -0.040   5.671
 7255TIP3    H221730   0.704   0.010   5.529
 7256TIP3   OH221731   3.748   5.763   0.163
 7256TIP3    H121732   3.823   5.754   0.104
 7256TIP3    H221733   3.784   5.801   0.242
 7257TIP3   OH221734   4.276   0.523   3.029
 7257TIP3    H121735   4.353   0.512   3.083
 7257TIP3    H221736   4.216   0.576   3.081
 7258TIP3   OH221737   4.146   4.245   4.817
 7258TIP3    H121738   4.133   4.195   4.898
 7258TIP3    H221739   4.077   4.311   4.819
 7259TIP3   OH221740   5.255   1.665   5.347
 7259TIP3    H121741   5.291   1.746   5.310
 7259TIP3    H221742   5.330   1.606   5.353
 7260TIP3   OH221743   4.247   2.455   3.204
 7260TIP3    H121744   4.216   2.502   3.282
 7260TIP3    H221745   4.285   2.374   3.238
 7261TIP3   OH221746   0.625   6.414   3.121
 7261TIP3    H121747   0.608   6.361   3.199
 7261TIP3    H221748   0.649   6.500   3.154
 7262TIP3   OH221749   0.538   5.806   2.708
 7262TIP3    H121750   0.559   5.746   2.780
 7262TIP3    H221751   0.461   5.854   2.738
 7263TIP3   OH221752   2.424   0.549   2.379
 7263TIP3    H121753   2.516   0.575   2.388
 7263TIP3    H221754   2.410   0.486   2.450
 7264TIP3   OH221755   3.940   0.383   5.514
 7264TIP3    H121756   3.958   0.423   5.429
 7264TIP3    H221757   3.852   0.414   5.536
 7265TIP3   OH221758   0.790   0.468   2.692
 7265TIP3    H121759   0.859   0.431   2.747
 7265TIP3    H221760   0.714   0.476   2.749
 7266TIP3   OH221761   7.054   5.043   3.534
 7266TIP3    H121762   6.961   5.033   3.554
 7266TIP3    H221763   7.088   5.096   3.607
 7267TIP3   OH221764   1.522   5.425   1.479
 7267TIP3    H121765   1.539   5.331   1.487
 7267TIP3    H221766   1.473   5.447   1.558
 7268TIP3   OH221767   1.845   3.834   4.823
 7268TIP3    H121768   1.926   3.817   4.872
 7268TIP3    H221769   1.842   3.766   4.756
 7269TIP3   OH221770   4.030   2.832   1.125
 7269TIP3    H121771   4.057   2.741   1.137
 7269TIP3    H221772   4.082   2.882   1.188
 7270TIP3   OH221773   3.353   3.506   2.939
 7270TIP3    H121774   3.419   3.543   2.997
 7270TIP3    H221775   3.315   3.582   2.895
 7271TIP3   OH221776   2.302   1.143   0.376
 7271TIP3    H121777   2.221   1.189   0.357
 7271TIP3    H221778   2.296   1.062   0.325
 7272TIP3   OH221779   3.870   2.074   2.053
 7272TIP3    H121780   3.859   2.058   2.147
 7272TIP3    H221781   3.789   2.119   2.027
 7273TIP3   OH221782   5.163   6.174   1.097
 7273TIP3    H121783   5.230   6.235   1.127
 7273TIP3    H221784   5.212   6.102   1.057
 7274TIP3   OH221785   1.836   6.638   4.613
 7274TIP3    H121786   1.920   6.654   4.570
 7274TIP3    H221787   1.816   6.719   4.659
 7275TIP3   OH221788   6.560   2.907   2.148
 7275TIP3    H121789   6.540   2.999   2.133
 7275TIP3    H221790   6.580   2.903   2.242
 7276TIP3   OH221791   2.062   4.239   5.511
 7276TIP3    H121792   2.025   4.295   5.442
 7276TIP3    H221793   2.132   4.292   5.549
 7277TIP3   OH221794   5.120   6.726   4.933
 7277TIP3    H121795   5.146   6.687   4.850
 7277TIP3    H221796   5.164   6.811   4.933
 7278TIP3   OH221797   0.063   3.720   5.247
 7278TIP3    H121798  -0.011   3.770   5.213
 7278TIP3    H221799   0.129   3.726   5.177
 7279TIP3   OH221800   5.424   6.374   2.645
 7279TIP3    H121801   5.362   6.360   2.716
 7279TIP3    H221802   5.489   6.435   2.680
 7280TIP3   OH221803   1.862   5.890   5.706
 7280TIP3    H121804   1.779   5.918   5.746
 7280TIP3    H221805   1.897   5.969   5.665
 7281TIP3   OH221806   2.095   2.132   3.857
 7281TIP3    H121807   2.103   2.096   3.769
 7281TIP3    H221808   2.000   2.137   3.872
 7282TIP3   OH221809   4.050   5.042   0.804
 7282TIP3    H121810   4.050   5.133   0.833
 7282TIP3    H221811   4.132   5.032   0.756
 7283TIP3   OH221812   5.987   6.550   1.934
 7283TIP3    H121813   5.939   6.611   1.877
 7283TIP3    H221814   5.982   6.590   2.021
 7284TIP3   OH221815   2.962   5.920   4.358
 7284TIP3    H121816   3.058   5.915   4.350
 7284TIP3    H221817   2.936   5.831   4.384
 7285TIP3   OH221818   6.358   2.799   1.503
 7285TIP3    H121819   6.361   2.703   1.509
 7285TIP3    H221820   6.396   2.818   1.417
 7286TIP3   OH221821   6.633   1.472   0.718
 7286TIP3    H121822   6.679   1.388   0.710
 7286TIP3    H221823   6.581   1.479   0.637
 7287TIP3   OH221824   6.476   4.500   1.141
 7287TIP3    H121825   6.401   4.485   1.083
 7287TIP3    H221826   6.525   4.419   1.139
 7288TIP3   OH221827   4.861   1.211   2.610
 7288TIP3    H121828   4.923   1.154   2.565
 7288TIP3    H221829   4.803   1.151   2.657
 7289TIP3   OH221830   2.343   1.244   0.616
 7289TIP3    H121831   2.264   1.298   0.613
 7289TIP3    H221832   2.342   1.194   0.534
 7290TIP3   OH221833   5.607   3.692   4.419
 7290TIP3    H121834   5.680   3.675   4.360
 7290TIP3    H221835   5.644   3.686   4.507
 7291TIP3   OH221836   3.008   5.900   2.132
 7291TIP3    H121837   3.085   5.877   2.081
 7291TIP3    H221838   2.997   5.828   2.194
 7292TIP3   OH221839   3.097   2.483   2.667
 7292TIP3    H121840   3.176   2.429   2.657
 7292TIP3    H221841   3.055   2.480   2.581
 7293TIP3   OH221842   4.369   0.951   2.588
 7293TIP3    H121843   4.318   1.027   2.561
 7293TIP3    H221844   4.366   0.893   2.511
 7294TIP3   OH221845   1.592   1.131   5.327
 7294TIP3    H121846   1.658   1.166   5.268
 7294TIP3    H221847   1.546   1.208   5.360
 7295TIP3   OH221848   4.355   3.193   4.043
 7295TIP3    H121849   4.313   3.111   4.015
 7295TIP3    H221850   4.429   3.164   4.097
 7296TIP3   OH221851   0.175   3.570   5.677
 7296TIP3    H121852   0.247   3.507   5.688
 7296TIP3    H221853   0.165   3.577   5.582
 7297TIP3   OH221854   0.166   3.124   2.388
 7297TIP3    H121855   0.096   3.098   2.329
 7297TIP3    H221856   0.120   3.155   2.467
 7298TIP3   OH221857   1.663   3.903   5.249
 7298TIP3    H121858   1.666   3.859   5.164
 7298TIP3    H221859   1.717   3.981   5.237
 7299TIP3   OH221860   5.925   0.955   4.979
 7299TIP3    H121861   5.892   0.884   5.034
 7299TIP3    H221862   5.851   0.980   4.925
 7300TIP3   OH221863   1.671   0.534   1.082
 7300TIP3    H121864   1.705   0.482   1.155
 7300TIP3    H221865   1.583   0.500   1.067
 7301TIP3   OH221866   1.164   5.205   5.454
 7301TIP3    H121867   1.077   5.246   5.453
 7301TIP3    H221868   1.166   5.150   5.375
 7302TIP3   OH221869   0.063   2.147   0.557
 7302TIP3    H121870   0.049   2.229   0.510
 7302TIP3    H221871   0.034   2.166   0.646
 7303TIP3   OH221872   2.897   6.702   4.555
 7303TIP3    H121873   2.867   6.664   4.638
 7303TIP3    H221874   2.870   6.639   4.489
 7304TIP3   OH221875   4.467   0.555   1.735
 7304TIP3    H121876   4.457   0.463   1.759
 7304TIP3    H221877   4.462   0.602   1.819
 7305TIP3   OH221878   4.419   5.972   3.600
 7305TIP3    H121879   4.482   5.923   3.547
 7305TIP3    H221880   4.382   6.036   3.540
 7306TIP3   OH221881   6.465   3.665   0.156
 7306TIP3    H121882   6.383   3.700   0.122
 7306TIP3    H221883   6.440   3.582   0.197
 7307TIP3   OH221884   0.936   0.867   0.898
 7307TIP3    H121885   0.964   0.867   0.806
 7307TIP3    H221886   0.989   0.936   0.939
 7308TIP3   OH221887   0.046   6.561   2.052
 7308TIP3    H121888   0.094   6.610   2.118
 7308TIP3    H221889  -0.037   6.607   2.043
 7309TIP3   OH221890   5.974   3.704   3.543
 7309TIP3    H121891   5.930   3.789   3.540
 7309TIP3    H221892   5.903   3.641   3.557
 7310TIP3   OH221893   2.843   0.078   3.092
 7310TIP3    H121894   2.937   0.064   3.077
 7310TIP3    H221895   2.839   0.130   3.173
 7311TIP3   OH221896   2.896   1.729   0.069
 7311TIP3    H121897   2.844   1.807   0.090
 7311TIP3    H221898   2.960   1.724   0.140
 7312TIP3   OH221899   0.893   4.758   3.286
 7312TIP3    H121900   0.833   4.826   3.258
 7312TIP3    H221901   0.870   4.682   3.232
 7313TIP3   OH221902   7.198   0.989   5.794
 7313TIP3    H121903   7.166   0.981   5.884
 7313TIP3    H221904   7.196   1.083   5.776
 7314TIP3   OH221905   6.530   0.397   2.510
 7314TIP3    H121906   6.551   0.431   2.597
 7314TIP3    H221907   6.467   0.459   2.474
 7315TIP3   OH221908   7.214   1.806   3.235
 7315TIP3    H121909   7.136   1.771   3.192
 7315TIP3    H221910   7.182   1.880   3.286
 7316TIP3   OH221911   2.412   1.238   2.798
 7316TIP3    H121912   2.396   1.320   2.750
 7316TIP3    H221913   2.484   1.260   2.858
 7317TIP3   OH221914   6.505   3.538   0.767
 7317TIP3    H121915   6.537   3.626   0.782
 7317TIP3    H221916   6.526   3.520   0.675
 7318TIP3   OH221917   2.262   0.913   0.624
 7318TIP3    H121918   2.236   0.830   0.664
 7318TIP3    H221919   2.335   0.890   0.567
 7319TIP3   OH221920   5.727   6.473   0.730
 7319TIP3    H121921   5.693   6.385   0.746
 7319TIP3    H221922   5.822   6.464   0.743
 7320TIP3   OH221923   4.738   4.196   4.594
 7320TIP3    H121924   4.713   4.134   4.663
 7320TIP3    H221925   4.803   4.253   4.634
 7321TIP3   OH221926   1.733   4.211   3.802
 7321TIP3    H121927   1.762   4.156   3.729
 7321TIP3    H221928   1.788   4.185   3.875
 7322TIP3   OH221929   1.146   1.422   3.497
 7322TIP3    H121930   1.168   1.507   3.535
 7322TIP3    H221931   1.230   1.386   3.467
 7323TIP3   OH221932   0.187   4.498   5.879
 7323TIP3    H121933   0.128   4.572   5.864
 7323TIP3    H221934   0.182   4.448   5.798
 7324TIP3   OH221935   4.300   5.722   4.078
 7324TIP3    H121936   4.332   5.808   4.105
 7324TIP3    H221937   4.379   5.675   4.050
 7325TIP3   OH221938   0.771   4.533   2.574
 7325TIP3    H121939   0.766   4.522   2.479
 7325TIP3    H221940   0.851   4.582   2.589
 7326TIP3   OH221941   4.392   1.518   3.843
 7326TIP3    H121942   4.431   1.501   3.928
 7326TIP3    H221943   4.305   1.479   3.848
 7327TIP3   OH221944   1.813   5.131   2.065
 7327TIP3    H121945   1.733   5.163   2.106
 7327TIP3    H221946   1.818   5.178   1.981
 7328TIP3   OH221947   3.645   4.513   1.751
 7328TIP3    H121948   3.634   4.427   1.712
 7328TIP3    H221949   3.739   4.529   1.749
 7329TIP3   OH221950   0.340   5.935   3.044
 7329TIP3    H121951   0.262   5.939   3.099
 7329TIP3    H221952   0.309   5.958   2.957
 7330TIP3   OH221953   0.634   4.127   0.590
 7330TIP3    H121954   0.683   4.202   0.555
 7330TIP3    H221955   0.546   4.160   0.604
 7331TIP3   OH221956   5.457   3.990   2.057
 7331TIP3    H121957   5.427   4.070   2.012
 7331TIP3    H221958   5.418   3.919   2.007
 7332TIP3   OH221959   6.107   5.159   5.844
 7332TIP3    H121960   6.153   5.240   5.820
 7332TIP3    H221961   6.025   5.163   5.795
 7333TIP3   OH221962   2.995   5.134   4.918
 7333TIP3    H121963   3.075   5.082   4.913
 7333TIP3    H221964   2.925   5.070   4.928
 7334TIP3   OH221965   3.864   1.277   2.807
 7334TIP3    H121966   3.830   1.259   2.895
 7334TIP3    H221967   3.956   1.298   2.821
 7335TIP3   OH221968   5.686   6.172   1.594
 7335TIP3    H121969   5.645   6.108   1.652
 7335TIP3    H221970   5.779   6.148   1.594
 7336TIP3   OH221971   5.091   0.084   3.020
 7336TIP3    H121972   5.032   0.132   3.078
 7336TIP3    H221973   5.171   0.071   3.071
 7337TIP3   OH221974   6.008   5.882   2.084
 7337TIP3    H121975   5.969   5.894   1.997
 7337TIP3    H221976   6.032   5.789   2.086
 7338TIP3   OH221977   5.191   0.458   2.399
 7338TIP3    H121978   5.101   0.468   2.368
 7338TIP3    H221979   5.243   0.451   2.319
 7339TIP3   OH221980   5.119   0.888   4.308
 7339TIP3    H121981   5.214   0.880   4.298
 7339TIP3    H221982   5.092   0.806   4.349
 7340TIP3   OH221983   0.869   5.160   4.308
 7340TIP3    H121984   0.784   5.119   4.321
 7340TIP3    H221985   0.874   5.228   4.375
 7341TIP3   OH221986   2.471   2.998   5.642
 7341TIP3    H121987   2.557   3.000   5.684
 7341TIP3    H221988   2.413   2.957   5.707
 7342TIP3   OH221989   1.855   3.535   5.591
 7342TIP3    H121990   1.869   3.625   5.561
 7342TIP3    H221991   1.777   3.505   5.544
 7343TIP3   OH221992   5.653   4.103   4.140
 7343TIP3    H121993   5.604   4.029   4.105
 7343TIP3    H221994   5.710   4.065   4.207
 7344TIP3   OH221995   1.084   4.566   5.277
 7344TIP3    H121996   1.148   4.623   5.235
 7344TIP3    H221997   1.071   4.605   5.364
 7345TIP3   OH221998   6.301   1.489   0.323
 7345TIP3    H121999   6.324   1.412   0.272
 7345TIP3    H222000   6.383   1.537   0.333
 7346TIP3   OH222001   0.604   6.260   1.163
 7346TIP3    H122002   0.699   6.260   1.146
 7346TIP3    H222003   0.597   6.282   1.256
 7347TIP3   OH222004   0.178   0.396   1.876
 7347TIP3    H122005   0.227   0.324   1.914
 7347TIP3    H222006   0.099   0.354   1.840
 7348TIP3   OH222007   4.915   2.966   4.135
 7348TIP3    H122008   4.876   2.983   4.050
 7348TIP3    H222009   4.960   2.882   4.125
 7349TIP3   OH222010   4.249   1.475   2.987
 7349TIP3    H122011   4.242   1.550   3.046
 7349TIP3    H222012   4.180   1.416   3.015
 7350TIP3   OH222013   0.403   4.478   1.012
 7350TIP3    H122014   0.383   4.445   1.099
 7350TIP3    H222015   0.450   4.560   1.027
 7351TIP3   OH222016   6.018   3.424   3.104
 7351TIP3    H122017   6.043   3.448   3.193
 7351TIP3    H222018   5.940   3.477   3.086
 7352TIP3   OH222019   3.897   2.608   3.737
 7352TIP3    H122020   3.950   2.575   3.810
 7352TIP3    H222021   3.827   2.544   3.728
 7353TIP3   OH222022   4.205   6.643   5.788
 7353TIP3    H122023   4.238   6.720   5.742
 7353TIP3    H222024   4.113   6.637   5.762
 7354TIP3   OH222025   6.561   3.308   0.040
 7354TIP3    H122026   6.597   3.373   0.101
 7354TIP3    H222027   6.559   3.227   0.091
 7355TIP3   OH222028   1.940   6.314   4.718
 7355TIP3    H122029   1.851   6.285   4.741
 7355TIP3    H222030   1.944   6.404   4.748
 7356TIP3   OH222031   3.491   2.347   3.301
 7356TIP3    H122032   3.490   2.437   3.271
 7356TIP3    H222033   3.399   2.320   3.301
 7357TIP3   OH222034   5.868   3.401   1.137
 7357TIP3    H122035   5.861   3.363   1.049
 7357TIP3    H222036   5.813   3.345   1.192
 7358TIP3   OH222037   1.429   5.984   3.227
 7358TIP3    H122038   1.440   6.044   3.300
 7358TIP3    H222039   1.444   5.897   3.264
 7359TIP3   OH222040   4.710   0.183   5.766
 7359TIP3    H122041   4.708   0.187   5.670
 7359TIP3    H222042   4.801   0.166   5.788
 7360TIP3   OH222043   6.613   0.205   3.568
 7360TIP3    H122044   6.520   0.207   3.589
 7360TIP3    H222045   6.645   0.292   3.591
 7361TIP3   OH222046   6.601   3.233   5.497
 7361TIP3    H122047   6.590   3.140   5.519
 7361TIP3    H222048   6.650   3.232   5.415
 7362TIP3   OH222049   1.360   5.462   5.396
 7362TIP3    H122050   1.316   5.400   5.338
 7362TIP3    H222051   1.388   5.408   5.471
 7363TIP3   OH222052   1.650   2.512   0.213
 7363TIP3    H122053   1.562   2.548   0.218
 7363TIP3    H222054   1.652   2.442   0.278
 7364TIP3   OH222055   0.043   6.613   4.467
 7364TIP3    H122056   0.131   6.640   4.494
 7364TIP3    H222057   0.057   6.542   4.405
 7365TIP3   OH222058   1.712   0.559   0.076
 7365TIP3    H122059   1.647   0.578   0.008
 7365TIP3    H222060   1.712   0.463   0.083
 7366TIP3   OH222061   7.022   0.527   3.844
 7366TIP3    H122062   7.037   0.605   3.897
 7366TIP3    H222063   6.977   0.466   3.902
 7367TIP3   OH222064   5.171   1.827   4.704
 7367TIP3    H122065   5.255   1.855   4.669
 7367TIP3    H222066   5.133   1.774   4.633
 7368TIP3   OH222067   0.144   6.482   2.512
 7368TIP3    H122068   0.187   6.456   2.593
 7368TIP3    H222069   0.131   6.399   2.464
 7369TIP3   OH222070   5.567   0.236   1.435
 7369TIP3    H122071   5.483   0.212   1.473
 7369TIP3    H222072   5.545   0.271   1.349
 7370TIP3   OH222073   0.683   5.655   2.259
 7370TIP3    H122074   0.641   5.660   2.345
 7370TIP3    H222075   0.693   5.561   2.243
 7371TIP3   OH222076   2.968   4.151   1.535
 7371TIP3    H122077   2.933   4.064   1.516
 7371TIP3    H222078   2.908   4.211   1.492
 7372TIP3   OH222079   1.549   5.573   4.197
 7372TIP3    H122080   1.616   5.640   4.188
 7372TIP3    H222081   1.565   5.511   4.126
 7373TIP3   OH222082   6.956   2.655   4.095
 7373TIP3    H122083   7.005   2.618   4.022
 7373TIP3    H222084   6.891   2.713   4.055
 7374TIP3   OH222085   2.046   4.642   4.877
 7374TIP3    H122086   1.950   4.635   4.874
 7374TIP3    H222087   2.066   4.713   4.815
 7375TIP3   OH222088   6.425   3.798   0.508
 7375TIP3    H122089   6.362   3.865   0.482
 7375TIP3    H222090   6.487   3.844   0.564
 7376TIP3   OH222091   5.132   2.270   3.313
 7376TIP3    H122092   5.211   2.250   3.362
 7376TIP3    H222093   5.097   2.349   3.355
 7377TIP3   OH222094   3.692   0.790   1.239
 7377TIP3    H122095   3.679   0.778   1.334
 7377TIP3    H222096   3.708   0.884   1.229
 7378TIP3   OH222097   5.124   5.156   3.931
 7378TIP3    H122098   5.064   5.198   3.869
 7378TIP3    H222099   5.168   5.229   3.975
 7379TIP3   OH222100   2.335   4.373   0.458
 7379TIP3    H122101   2.390   4.310   0.505
 7379TIP3    H222102   2.347   4.455   0.506
 7380TIP3   OH222103   4.334   6.437   2.277
 7380TIP3    H122104   4.400   6.506   2.290
 7380TIP3    H222105   4.378   6.357   2.305
 7381TIP3   OH222106   4.639   5.701   2.428
 7381TIP3    H122107   4.622   5.695   2.334
 7381TIP3    H222108   4.675   5.789   2.440
 7382TIP3   OH222109   1.210   1.579   5.636
 7382TIP3    H122110   1.203   1.526   5.556
 7382TIP3    H222111   1.198   1.669   5.607
 7383TIP3   OH222112   0.051   0.720   4.749
 7383TIP3    H122113   0.020   0.798   4.703
 7383TIP3    H222114   0.147   0.729   4.748
 7384TIP3   OH222115   5.633   4.205   3.267
 7384TIP3    H122116   5.617   4.298   3.250
 7384TIP3    H222117   5.584   4.160   3.198
 7385TIP3   OH222118   5.013   3.270   3.668
 7385TIP3    H122119   5.046   3.283   3.756
 7385TIP3    H222120   5.006   3.359   3.631
 7386TIP3   OH222121   7.235   0.478   3.405
 7386TIP3    H122122   7.257   0.448   3.317
 7386TIP3    H222123   7.146   0.445   3.420
 7387TIP3   OH222124   5.659   3.812   0.359
 7387TIP3    H122125   5.587   3.859   0.401
 7387TIP3    H222126   5.735   3.868   0.373
 7388TIP3   OH222127   6.301   0.287   3.386
 7388TIP3    H122128   6.305   0.371   3.432
 7388TIP3    H222129   6.320   0.222   3.454
 7389TIP3   OH222130   6.783   0.348   0.700
 7389TIP3    H122131   6.864   0.389   0.670
 7389TIP3    H222132   6.790   0.257   0.672
 7390TIP3   OH222133   3.376   1.253   2.074
 7390TIP3    H122134   3.378   1.300   1.990
 7390TIP3    H222135   3.306   1.188   2.063
 7391TIP3   OH222136   3.996   5.371   1.926
 7391TIP3    H122137   3.943   5.439   1.969
 7391TIP3    H222138   4.077   5.369   1.977
 7392TIP3   OH222139   0.615   2.005   1.754
 7392TIP3    H122140   0.676   2.001   1.680
 7392TIP3    H222141   0.528   2.007   1.714
 7393TIP3   OH222142   4.891   5.428   1.419
 7393TIP3    H122143   4.861   5.516   1.396
 7393TIP3    H222144   4.843   5.370   1.359
 7394TIP3   OH222145   4.731   2.378   5.107
 7394TIP3    H122146   4.794   2.319   5.066
 7394TIP3    H222147   4.663   2.390   5.041
 7395TIP3   OH222148   3.915   6.330   3.609
 7395TIP3    H122149   3.939   6.280   3.687
 7395TIP3    H222150   3.996   6.374   3.583
 7396TIP3   OH222151   1.317   5.643   3.978
 7396TIP3    H122152   1.351   5.675   4.062
 7396TIP3    H222153   1.270   5.717   3.941
 7397TIP3   OH222154   4.351   1.855   1.293
 7397TIP3    H122155   4.296   1.852   1.215
 7397TIP3    H222156   4.369   1.763   1.313
 7398TIP3   OH222157   5.359   3.728   1.895
 7398TIP3    H122158   5.344   3.795   1.829
 7398TIP3    H222159   5.439   3.683   1.867
 7399TIP3   OH222160   3.700   4.246   5.438
 7399TIP3    H122161   3.790   4.277   5.450
 7399TIP3    H222162   3.694   4.226   5.344
 7400TIP3   OH222163   4.166   5.135   4.807
 7400TIP3    H122164   4.138   5.069   4.871
 7400TIP3    H222165   4.186   5.085   4.728
 7401TIP3   OH222166   0.278   1.734   2.858
 7401TIP3    H122167   0.269   1.741   2.763
 7401TIP3    H222168   0.294   1.823   2.888
 7402TIP3   OH222169   1.655   2.644   0.969
 7402TIP3    H122170   1.649   2.550   0.982
 7402TIP3    H222171   1.631   2.681   1.054
 7403TIP3   OH222172   2.506   0.735   5.057
 7403TIP3    H122173   2.481   0.824   5.031
 7403TIP3    H222174   2.497   0.684   4.976
 7404TIP3   OH222175   3.167  -0.023   0.419
 7404TIP3    H122176   3.168   0.015   0.507
 7404TIP3    H222177   3.246   0.012   0.377
 7405TIP3   OH222178   3.226   4.083   5.056
 7405TIP3    H122179   3.196   4.096   4.966
 7405TIP3    H222180   3.170   4.014   5.091
 7406TIP3   OH222181   3.461   0.926   1.503
 7406TIP3    H122182   3.531   0.988   1.482
 7406TIP3    H222183   3.405   0.973   1.565
 7407TIP3   OH222184   2.440   1.888   5.513
 7407TIP3    H122185   2.452   1.972   5.558
 7407TIP3    H222186   2.528   1.864   5.484
 7408TIP3   OH222187   2.716   0.694   4.474
 7408TIP3    H122188   2.739   0.634   4.404
 7408TIP3    H222189   2.705   0.779   4.431
 7409TIP3   OH222190   3.211   4.698   5.279
 7409TIP3    H122191   3.195   4.661   5.366
 7409TIP3    H222192   3.145   4.658   5.223
 7410TIP3   OH222193   5.586   0.416   1.649
 7410TIP3    H122194   5.583   0.337   1.595
 7410TIP3    H222195   5.597   0.383   1.738
 7411TIP3   OH222196   1.674   6.672   2.962
 7411TIP3    H122197   1.664   6.625   2.879
 7411TIP3    H222198   1.768   6.666   2.981
 7412TIP3   OH222199   2.217   3.817   5.491
 7412TIP3    H122200   2.251   3.895   5.448
 7412TIP3    H222201   2.246   3.826   5.582
 7413TIP3   OH222202   4.864   3.537   1.706
 7413TIP3    H122203   4.843   3.612   1.650
 7413TIP3    H222204   4.833   3.562   1.793
 7414TIP3   OH222205   0.726   1.366   2.831
 7414TIP3    H122206   0.653   1.364   2.893
 7414TIP3    H222207   0.684   1.369   2.745
 7415TIP3   OH222208   6.549   4.521   1.956
 7415TIP3    H122209   6.564   4.452   2.021
 7415TIP3    H222210   6.551   4.476   1.872
 7416TIP3   OH222211   5.494   4.350   5.632
 7416TIP3    H122212   5.505   4.407   5.707
 7416TIP3    H222213   5.582   4.340   5.595
 7417TIP3   OH222214   5.495   3.475   0.726
 7417TIP3    H122215   5.479   3.431   0.642
 7417TIP3    H222216   5.554   3.547   0.705
 7418TIP3   OH222217   5.792   0.443   0.898
 7418TIP3    H122218   5.717   0.408   0.850
 7418TIP3    H222219   5.756   0.514   0.950
 7419TIP3   OH222220   5.480   1.779   0.255
 7419TIP3    H122221   5.453   1.842   0.322
 7419TIP3    H222222   5.398   1.740   0.224
 7420TIP3   OH222223   4.437   6.524   1.866
 7420TIP3    H122224   4.344   6.546   1.870
 7420TIP3    H222225   4.462   6.544   1.776
 7421TIP3   OH222226   2.682   0.939   0.630
 7421TIP3    H122227   2.617   0.896   0.574
 7421TIP3    H222228   2.762   0.889   0.618
 7422TIP3   OH222229   1.718   3.038   3.489
 7422TIP3    H122230   1.732   3.060   3.397
 7422TIP3    H222231   1.743   2.947   3.496
 7423TIP3   OH222232   0.568   6.194   5.669
 7423TIP3    H122233   0.484   6.215   5.630
 7423TIP3    H222234   0.572   6.098   5.667
 7424TIP3   OH222235   6.122   6.582   2.413
 7424TIP3    H122236   6.173   6.583   2.494
 7424TIP3    H222237   6.180   6.622   2.348
 7425TIP3   OH222238   1.700   5.525   5.056
 7425TIP3    H122239   1.647   5.532   4.977
 7425TIP3    H222240   1.784   5.565   5.033
 7426TIP3   OH222241   7.156   0.103   1.378
 7426TIP3    H122242   7.198   0.186   1.352
 7426TIP3    H222243   7.184   0.040   1.312
 7427TIP3   OH222244   1.902   4.997   4.275
 7427TIP3    H122245   1.879   5.035   4.190
 7427TIP3    H222246   1.851   4.917   4.281
 7428TIP3   OH222247   6.538   4.610   4.728
 7428TIP3    H122248   6.623   4.625   4.688
 7428TIP3    H222249   6.504   4.531   4.686
 7429TIP3   OH222250   6.472   0.589   3.626
 7429TIP3    H122251   6.457   0.671   3.673
 7429TIP3    H222252   6.391   0.540   3.637
 7430TIP3   OH222253   5.967   1.390   3.736
 7430TIP3    H122254   5.935   1.318   3.680
 7430TIP3    H222255   5.914   1.384   3.815
 7431TIP3   OH222256   6.661   2.881   5.095
 7431TIP3    H122257   6.712   2.833   5.029
 7431TIP3    H222258   6.721   2.948   5.127
 7432TIP3   OH222259   6.617   6.274   3.262
 7432TIP3    H122260   6.629   6.209   3.194
 7432TIP3    H222261   6.656   6.354   3.227
 7433TIP3   OH222262   1.953   1.346   5.814
 7433TIP3    H122263   2.002   1.421   5.778
 7433TIP3    H222264   1.904   1.383   5.887
 7434TIP3   OH222265   4.638   3.231   1.889
 7434TIP3    H122266   4.630   3.143   1.850
 7434TIP3    H222267   4.728   3.256   1.872
 7435TIP3   OH222268   2.980   6.101   5.309
 7435TIP3    H122269   3.007   6.160   5.379
 7435TIP3    H222270   3.027   6.134   5.232
 7436TIP3   OH222271   4.976   4.565   4.444
 7436TIP3    H122272   4.917   4.597   4.376
 7436TIP3    H222273   5.010   4.482   4.410
 7437TIP3   OH222274   4.382   5.475   5.711
 7437TIP3    H122275   4.458   5.514   5.668
 7437TIP3    H222276   4.415   5.444   5.795
 7438TIP3   OH222277   2.146   2.496   2.095
 7438TIP3    H122278   2.133   2.590   2.106
 7438TIP3    H222279   2.213   2.474   2.160
 7439TIP3   OH222280   3.603   2.363   3.601
 7439TIP3    H122281   3.549   2.441   3.616
 7439TIP3    H222282   3.581   2.335   3.513
 7440TIP3   OH222283   2.983   4.071   3.607
 7440TIP3    H122284   2.908   4.024   3.642
 7440TIP3    H222285   3.036   4.093   3.684
 7441TIP3   OH222286   3.447   0.770   0.365
 7441TIP3    H122287   3.362   0.775   0.321
 7441TIP3    H222288   3.426   0.755   0.457
 7442TIP3   OH222289   6.825   0.553   4.486
 7442TIP3    H122290   6.880   0.615   4.535
 7442TIP3    H222291   6.868   0.546   4.401
 7443TIP3   OH222292   0.218   6.559   5.642
 7443TIP3    H122293   0.202   6.630   5.705
 7443TIP3    H222294   0.257   6.489   5.695
 7444TIP3   OH222295   6.896   6.145   1.350
 7444TIP3    H122296   6.827   6.081   1.330
 7444TIP3    H222297   6.855   6.206   1.411
 7445TIP3   OH222298   0.047   4.549   3.205
 7445TIP3    H122299   0.012   4.534   3.118
 7445TIP3    H222300   0.142   4.556   3.192
 7446TIP3   OH222301   5.644   1.026   0.634
 7446TIP3    H122302   5.564   0.976   0.645
 7446TIP3    H222303   5.643   1.054   0.542
 7447TIP3   OH222304   5.891   1.286   4.199
 7447TIP3    H122305   5.974   1.240   4.214
 7447TIP3    H222306   5.846   1.281   4.283
 7448TIP3   OH222307   3.957   3.428   0.570
 7448TIP3    H122308   3.997   3.509   0.538
 7448TIP3    H222309   3.870   3.454   0.599
 7449TIP3   OH222310   0.288   4.686   1.942
 7449TIP3    H122311   0.332   4.656   2.022
 7449TIP3    H222312   0.333   4.767   1.919
 7450TIP3   OH222313   5.716   4.687   4.359
 7450TIP3    H122314   5.641   4.714   4.413
 7450TIP3    H222315   5.791   4.730   4.400
 7451TIP3   OH222316   3.701   0.189   5.785
 7451TIP3    H122317   3.650   0.130   5.730
 7451TIP3    H222318   3.786   0.147   5.795
 7452TIP3   OH222319   0.550   1.666   1.244
 7452TIP3    H122320   0.548   1.625   1.157
 7452TIP3    H222321   0.504   1.749   1.232
 7453TIP3   OH222322   2.235   2.717   2.992
 7453TIP3    H122323   2.159   2.754   3.036
 7453TIP3    H222324   2.286   2.794   2.965
 7454TIP3   OH222325   5.087   1.426   0.583
 7454TIP3    H122326   5.158   1.489   0.589
 7454TIP3    H222327   5.012   1.472   0.621
 7455TIP3   OH222328   1.659   0.261   2.045
 7455TIP3    H122329   1.663   0.346   2.000
 7455TIP3    H222330   1.582   0.267   2.100
 7456TIP3   OH222331   2.826   2.922   1.613
 7456TIP3    H122332   2.800   2.977   1.687
 7456TIP3    H222333   2.752   2.862   1.601
 7457TIP3   OH222334   4.991   6.577   1.431
 7457TIP3    H122335   5.024   6.663   1.406
 7457TIP3    H222336   4.947   6.592   1.514
 7458TIP3   OH222337   0.814   5.302   3.642
 7458TIP3    H122338   0.824   5.287   3.548
 7458TIP3    H222339   0.899   5.279   3.680
 7459TIP3   OH222340   0.092   2.098   2.661
 7459TIP3    H122341   0.040   2.051   2.595
 7459TIP3    H222342   0.027   2.137   2.719
 7460TIP3   OH222343   5.011   2.729   3.297
 7460TIP3    H122344   5.094   2.771   3.275
 7460TIP3    H222345   4.982   2.688   3.216
 7461TIP3   OH222346   2.792   3.155   2.038
 7461TIP3    H122347   2.873   3.105   2.022
 7461TIP3    H222348   2.788   3.166   2.133
 7462TIP3   OH222349   4.492   5.331   4.239
 7462TIP3    H122350   4.442   5.385   4.300
 7462TIP3    H222351   4.430   5.266   4.207
 7463TIP3   OH222352   4.338   2.407   4.613
 7463TIP3    H122353   4.354   2.489   4.566
 7463TIP3    H222354   4.251   2.380   4.585
 7464TIP3   OH222355   1.166   2.763   3.729
 7464TIP3    H122356   1.172   2.858   3.726
 7464TIP3    H222357   1.224   2.737   3.800
 7465TIP3   OH222358   4.272   3.880   0.367
 7465TIP3    H122359   4.262   3.806   0.427
 7465TIP3    H222360   4.212   3.861   0.295
 7466TIP3   OH222361   5.547   2.379   2.688
 7466TIP3    H122362   5.519   2.414   2.772
 7466TIP3    H222363   5.466   2.356   2.643
 7467TIP3   OH222364   7.041   2.088   2.773
 7467TIP3    H122365   7.081   2.064   2.856
 7467TIP3    H222366   6.949   2.061   2.781
 7468TIP3   OH222367   6.036   4.431   5.092
 7468TIP3    H122368   6.098   4.441   5.164
 7468TIP3    H222369   6.088   4.447   5.014
 7469TIP3   OH222370   0.004   1.525   4.092
 7469TIP3    H122371  -0.011   1.573   4.010
 7469TIP3    H222372   0.060   1.451   4.067
 7470TIP3   OH222373   6.806   4.867   2.595
 7470TIP3    H122374   6.897   4.853   2.623
 7470TIP3    H222375   6.805   4.956   2.559
 7471TIP3   OH222376   2.345   4.378   0.987
 7471TIP3    H122377   2.315   4.435   0.916
 7471TIP3    H222378   2.389   4.438   1.048
 7472TIP3   OH222379   0.023   2.593   4.004
 7472TIP3    H122380   0.061   2.672   4.042
 7472TIP3    H222381   0.063   2.586   3.918
 7473TIP3   OH222382   1.974   3.356   3.273
 7473TIP3    H122383   1.964   3.389   3.363
 7473TIP3    H222384   1.944   3.265   3.278
 7474TIP3   OH222385   0.620   0.369   0.404
 7474TIP3    H122386   0.647   0.423   0.330
 7474TIP3    H222387   0.632   0.425   0.480
 7475TIP3   OH222388   0.796   3.989   4.401
 7475TIP3    H122389   0.839   3.916   4.358
 7475TIP3    H222390   0.761   3.953   4.483
 7476TIP3   OH222391   6.196   4.340   3.333
 7476TIP3    H122392   6.259   4.405   3.366
 7476TIP3    H222393   6.119   4.351   3.389
 7477TIP3   OH222394   1.486   2.720   3.695
 7477TIP3    H122395   1.433   2.684   3.624
 7477TIP3    H222396   1.478   2.655   3.765
 7478TIP3   OH222397   1.328   0.143   5.429
 7478TIP3    H122398   1.391   0.180   5.491
 7478TIP3    H222399   1.272   0.088   5.483
 7479TIP3   OH222400   3.937   2.016   1.099
 7479TIP3    H122401   3.975   1.982   1.181
 7479TIP3    H222402   3.876   1.947   1.072
 7480TIP3   OH222403   1.322   3.822   4.525
 7480TIP3    H122404   1.295   3.754   4.463
 7480TIP3    H222405   1.372   3.884   4.472
 7481TIP3   OH222406   4.893   2.837   3.718
 7481TIP3    H122407   4.826   2.805   3.657
 7481TIP3    H222408   4.944   2.900   3.667
 7482TIP3   OH222409   0.540   3.781   1.643
 7482TIP3    H122410   0.606   3.723   1.681
 7482TIP3    H222411   0.463   3.770   1.699
 7483TIP3   OH222412   3.017   0.350   5.784
 7483TIP3    H122413   3.087   0.415   5.784
 7483TIP3    H222414   2.966   0.370   5.705
 7484TIP3   OH222415   2.268   6.234   2.895
 7484TIP3    H122416   2.270   6.194   2.808
 7484TIP3    H222417   2.260   6.328   2.879
 7485TIP3   OH222418   6.796   2.357   3.476
 7485TIP3    H122419   6.802   2.355   3.571
 7485TIP3    H222420   6.749   2.276   3.453
 7486TIP3   OH222421   0.769   0.875   2.375
 7486TIP3    H122422   0.864   0.886   2.361
 7486TIP3    H222423   0.752   0.785   2.348
 7487TIP3   OH222424   0.414   0.407   0.115
 7487TIP3    H122425   0.419   0.499   0.140
 7487TIP3    H222426   0.436   0.406   0.022
 7488TIP3   OH222427   6.914   4.624   1.354
 7488TIP3    H122428   6.916   4.718   1.336
 7488TIP3    H222429   6.988   4.609   1.413
 7489TIP3   OH222430   4.827   0.425   1.864
 7489TIP3    H122431   4.801   0.394   1.951
 7489TIP3    H222432   4.902   0.482   1.880
 7490TIP3   OH222433   0.303   3.328   5.708
 7490TIP3    H122434   0.371   3.278   5.753
 7490TIP3    H222435   0.221   3.283   5.732
 7491TIP3   OH222436   2.001   5.809   2.441
 7491TIP3    H122437   2.023   5.815   2.534
 7491TIP3    H222438   1.906   5.797   2.440
 7492TIP3   OH222439   3.204   1.536   3.053
 7492TIP3    H122440   3.286   1.520   3.100
 7492TIP3    H222441   3.160   1.451   3.053
 7493TIP3   OH222442   3.862   2.474   2.017
 7493TIP3    H122443   3.927   2.432   2.073
 7493TIP3    H222444   3.903   2.557   1.992
 7494TIP3   OH222445   1.423   1.347   3.345
 7494TIP3    H122446   1.484   1.363   3.273
 7494TIP3    H222447   1.456   1.268   3.388
 7495TIP3   OH222448   2.450   2.360   4.000
 7495TIP3    H122449   2.505   2.367   4.079
 7495TIP3    H222450   2.444   2.450   3.968
 7496TIP3   OH222451   0.286   0.199   2.174
 7496TIP3    H122452   0.307   0.132   2.239
 7496TIP3    H222453   0.214   0.248   2.212
 7497TIP3   OH222454   3.698   3.462   0.866
 7497TIP3    H122455   3.626   3.411   0.904
 7497TIP3    H222456   3.738   3.403   0.802
 7498TIP3   OH222457   6.314   1.231   1.411
 7498TIP3    H122458   6.337   1.295   1.343
 7498TIP3    H222459   6.361   1.152   1.387
 7499TIP3   OH222460   6.807   4.086   0.741
 7499TIP3    H122461   6.837   4.104   0.830
 7499TIP3    H222462   6.870   4.021   0.708
 7500TIP3   OH222463   4.332   4.185   3.974
 7500TIP3    H122464   4.322   4.221   4.062
 7500TIP3    H222465   4.262   4.226   3.923
 7501TIP3   OH222466   3.512   3.171   4.044
 7501TIP3    H122467   3.563   3.223   4.107
 7501TIP3    H222468   3.565   3.093   4.030
 7502TIP3   OH222469   6.074   0.661   4.937
 7502TIP3    H122470   6.083   0.579   4.889
 7502TIP3    H222471   5.983   0.662   4.966
 7503TIP3   OH222472   5.350   3.045   1.748
 7503TIP3    H122473   5.407   3.060   1.673
 7503TIP3    H222474   5.315   2.957   1.733
 7504TIP3   OH222475   0.848   2.723   2.974
 7504TIP3    H122476   0.842   2.654   3.040
 7504TIP3    H222477   0.853   2.676   2.891
 7505TIP3   OH222478   5.316   3.832   4.735
 7505TIP3    H122479   5.314   3.893   4.809
 7505TIP3    H222480   5.339   3.885   4.660
 7506TIP3   OH222481   5.583   6.651   4.219
 7506TIP3    H122482   5.517   6.672   4.285
 7506TIP3    H222483   5.598   6.733   4.173
 7507TIP3   OH222484   3.877   1.558   0.284
 7507TIP3    H122485   3.795   1.541   0.331
 7507TIP3    H222486   3.887   1.482   0.226
 7508TIP3   OH222487   6.019   4.032   0.251
 7508TIP3    H122488   6.027   4.093   0.178
 7508TIP3    H222489   5.925   4.030   0.270
 7509TIP3   OH222490   2.218   0.782   1.030
 7509TIP3    H122491   2.256   0.854   0.980
 7509TIP3    H222492   2.286   0.715   1.031
 7510TIP3   OH222493   7.073   1.997   3.861
 7510TIP3    H122494   7.119   1.959   3.935
 7510TIP3    H222495   7.075   2.092   3.878
 7511TIP3   OH222496   1.073   1.584   2.789
 7511TIP3    H122497   1.114   1.573   2.874
 7511TIP3    H222498   0.979   1.591   2.807
 7512TIP3   OH222499   3.820   4.894   5.540
 7512TIP3    H122500   3.840   4.858   5.627
 7512TIP3    H222501   3.896   4.871   5.487
 7513TIP3   OH222502   5.760   4.710   2.849
 7513TIP3    H122503   5.765   4.733   2.756
 7513TIP3    H222504   5.769   4.794   2.894
 7514TIP3   OH222505   3.470   3.812   0.762
 7514TIP3    H122506   3.454   3.765   0.844
 7514TIP3    H222507   3.404   3.777   0.702
 7515TIP3   OH222508   0.314   1.433   1.860
 7515TIP3    H122509   0.245   1.425   1.927
 7515TIP3    H222510   0.347   1.344   1.849
 7516TIP3   OH222511   5.251   6.394   3.973
 7516TIP3    H122512   5.239   6.301   3.994
 7516TIP3    H222513   5.342   6.413   3.998
 7517TIP3   OH222514   2.996   3.385   2.737
 7517TIP3    H122515   3.028   3.474   2.722
 7517TIP3    H222516   2.984   3.380   2.832
 7518TIP3   OH222517   4.726   6.464   1.671
 7518TIP3    H122518   4.747   6.555   1.647
 7518TIP3    H222519   4.653   6.441   1.613
 7519TIP3   OH222520   2.752   6.733   5.427
 7519TIP3    H122521   2.795   6.678   5.493
 7519TIP3    H222522   2.679   6.680   5.395
 7520TIP3   OH222523   1.495   3.581   1.928
 7520TIP3    H122524   1.515   3.656   1.984
 7520TIP3    H222525   1.486   3.508   1.989
 7521TIP3   OH222526   3.657   4.275   1.587
 7521TIP3    H122527   3.702   4.193   1.610
 7521TIP3    H222528   3.611   4.254   1.506
 7522TIP3   OH222529   3.636   6.168   5.667
 7522TIP3    H122530   3.576   6.171   5.743
 7522TIP3    H222531   3.707   6.111   5.695
 7523TIP3   OH222532   5.844   6.119   4.035
 7523TIP3    H122533   5.886   6.140   3.951
 7523TIP3    H222534   5.848   6.201   4.085
 7524TIP3   OH222535   2.854   6.312   3.934
 7524TIP3    H122536   2.789   6.283   3.870
 7524TIP3    H222537   2.820   6.395   3.967
 7525TIP3   OH222538   3.942   0.471   2.828
 7525TIP3    H122539   4.032   0.487   2.799
 7525TIP3    H222540   3.926   0.540   2.894
 7526TIP3   OH222541   1.451   2.586   1.492
 7526TIP3    H122542   1.391   2.655   1.522
 7526TIP3    H222543   1.474   2.538   1.572
 7527TIP3   OH222544   4.600   1.617   2.611
 7527TIP3    H122545   4.530   1.677   2.586
 7527TIP3    H222546   4.555   1.540   2.645
 7528TIP3   OH222547   5.889   3.917   1.387
 7528TIP3    H122548   5.879   3.947   1.296
 7528TIP3    H222549   5.981   3.933   1.406
 7529TIP3   OH222550   2.773   3.120   4.261
 7529TIP3    H122551   2.775   3.199   4.315
 7529TIP3    H222552   2.817   3.053   4.314
 7530TIP3   OH222553   1.022   6.018   4.616
 7530TIP3    H122554   1.097   6.043   4.670
 7530TIP3    H222555   0.955   5.992   4.679
 7531TIP3   OH222556   6.069   0.325   5.034
 7531TIP3    H122557   6.119   0.337   5.115
 7531TIP3    H222558   6.130   0.349   4.964
 7532TIP3   OH222559   5.533   2.497   3.409
 7532TIP3    H122560   5.613   2.501   3.462
 7532TIP3    H222561   5.463   2.519   3.471
 7533TIP3   OH222562   2.951   6.747   4.123
 7533TIP3    H122563   2.906   6.677   4.076
 7533TIP3    H222564   2.893   6.768   4.197
 7534TIP3   OH222565   2.363   0.337   0.863
 7534TIP3    H122566   2.455   0.314   0.874
 7534TIP3    H222567   2.335   0.367   0.949
 7535TIP3   OH222568   0.622   2.214   2.987
 7535TIP3    H122569   0.590   2.159   3.058
 7535TIP3    H222570   0.546   2.266   2.960
 7536TIP3   OH222571   2.601   4.370   5.104
 7536TIP3    H122572   2.599   4.369   5.009
 7536TIP3    H222573   2.603   4.463   5.127
 7537TIP3   OH222574   3.000   5.927   3.762
 7537TIP3    H122575   2.996   5.838   3.797
 7537TIP3    H222576   3.046   5.918   3.678
 7538TIP3   OH222577   1.730   2.898   2.193
 7538TIP3    H122578   1.743   2.826   2.255
 7538TIP3    H222579   1.789   2.967   2.224
 7539TIP3   OH222580   5.579  -0.022   4.620
 7539TIP3    H122581   5.488  -0.038   4.596
 7539TIP3    H222582   5.587   0.074   4.620
 7540TIP3   OH222583   5.685   3.284   3.487
 7540TIP3    H122584   5.702   3.378   3.493
 7540TIP3    H222585   5.636   3.275   3.405
 7541TIP3   OH222586   0.089   0.510   0.633
 7541TIP3    H122587   0.156   0.482   0.571
 7541TIP3    H222588   0.069   0.600   0.609
 7542TIP3   OH222589   1.324   3.469   4.679
 7542TIP3    H122590   1.278   3.508   4.605
 7542TIP3    H222591   1.267   3.398   4.708
 7543TIP3   OH222592   1.448   4.263   2.444
 7543TIP3    H122593   1.356   4.261   2.473
 7543TIP3    H222594   1.477   4.172   2.448
 7544TIP3   OH222595   3.771   1.051   1.613
 7544TIP3    H122596   3.730   0.965   1.629
 7544TIP3    H222597   3.700   1.104   1.577
 7545TIP3   OH222598   4.542   6.295   5.903
 7545TIP3    H122599   4.621   6.305   5.849
 7545TIP3    H222600   4.534   6.200   5.914
 7546TIP3   OH222601   4.773   5.957   2.422
 7546TIP3    H122602   4.787   6.051   2.438
 7546TIP3    H222603   4.782   5.947   2.328
 7547TIP3   OH222604   0.531   6.640   1.140
 7547TIP3    H122605   0.526   6.735   1.131
 7547TIP3    H222606   0.624   6.622   1.153
 7548TIP3   OH222607   2.062   1.909   4.956
 7548TIP3    H122608   2.065   1.939   4.865
 7548TIP3    H222609   2.093   1.819   4.953
 7549TIP3   OH222610   7.025   1.342   0.746
 7549TIP3    H122611   6.945   1.314   0.700
 7549TIP3    H222612   6.993   1.376   0.830
 7550TIP3   OH222613   3.840   1.478   3.829
 7550TIP3    H122614   3.792   1.540   3.885
 7550TIP3    H222615   3.808   1.392   3.857
 7551TIP3   OH222616   0.207   0.763   0.723
 7551TIP3    H122617   0.292   0.782   0.684
 7551TIP3    H222618   0.210   0.670   0.745
 7552TIP3   OH222619   3.639   1.079   4.048
 7552TIP3    H122620   3.645   0.984   4.061
 7552TIP3    H222621   3.625   1.114   4.136
 7553TIP3   OH222622   0.754   2.114   2.765
 7553TIP3    H122623   0.731   2.154   2.848
 7553TIP3    H222624   0.817   2.045   2.788
 7554TIP3   OH222625   7.049   2.699   0.664
 7554TIP3    H122626   7.010   2.765   0.606
 7554TIP3    H222627   7.120   2.661   0.612
 7555TIP3   OH222628   2.359   6.418   1.684
 7555TIP3    H122629   2.390   6.334   1.716
 7555TIP3    H222630   2.422   6.442   1.616
 7556TIP3   OH222631   0.069   1.026   1.779
 7556TIP3    H122632   0.122   0.991   1.850
 7556TIP3    H222633   0.005   1.083   1.822
 7557TIP3   OH222634   1.491   1.366   5.442
 7557TIP3    H122635   1.395   1.369   5.437
 7557TIP3    H222636   1.520   1.444   5.395
 7558TIP3   OH222637   0.753   1.911   0.672
 7558TIP3    H122638   0.785   1.999   0.655
 7558TIP3    H222639   0.703   1.888   0.593
 7559TIP3   OH222640   4.944   5.284   0.826
 7559TIP3    H122641   4.983   5.358   0.872
 7559TIP3    H222642   4.913   5.321   0.743
 7560TIP3   OH222643   6.562   1.497   5.759
 7560TIP3    H122644   6.509   1.433   5.806
 7560TIP3    H222645   6.652   1.465   5.769
 7561TIP3   OH222646   2.593   0.725   4.197
 7561TIP3    H122647   2.633   0.805   4.230
 7561TIP3    H222648   2.517   0.755   4.147
 7562TIP3   OH222649   3.007   3.863   5.083
 7562TIP3    H122650   3.009   3.811   5.004
 7562TIP3    H222651   2.914   3.877   5.101
 7563TIP3   OH222652   2.514   3.866   4.911
 7563TIP3    H122653   2.490   3.784   4.868
 7563TIP3    H222654   2.504   3.933   4.844
 7564TIP3   OH222655   3.178   6.006   0.371
 7564TIP3    H122656   3.100   5.953   0.387
 7564TIP3    H222657   3.145   6.094   0.354
 7565TIP3   OH222658   3.925   1.879   3.453
 7565TIP3    H122659   3.842   1.838   3.478
 7565TIP3    H222660   3.900   1.947   3.391
 7566TIP3   OH222661   3.141   4.687   1.599
 7566TIP3    H122662   3.127   4.602   1.558
 7566TIP3    H222663   3.134   4.670   1.693
 7567TIP3   OH222664   6.820   3.505   4.744
 7567TIP3    H122665   6.901   3.519   4.794
 7567TIP3    H222666   6.762   3.461   4.805
 7568TIP3   OH222667   6.752   0.194   4.010
 7568TIP3    H122668   6.728   0.186   4.102
 7568TIP3    H222669   6.812   0.269   4.007
 7569TIP3   OH222670   0.210   5.861   0.172
 7569TIP3    H122671   0.226   5.882   0.080
 7569TIP3    H222672   0.197   5.945   0.215
 7570TIP3   OH222673   6.414   0.154   5.492
 7570TIP3    H122674   6.485   0.120   5.546
 7570TIP3    H222675   6.430   0.117   5.405
 7571TIP3   OH222676   2.360   0.443   0.622
 7571TIP3    H122677   2.399   0.407   0.702
 7571TIP3    H222678   2.353   0.368   0.563
 7572TIP3   OH222679   1.639   5.165   1.466
 7572TIP3    H122680   1.731   5.188   1.453
 7572TIP3    H222681   1.634   5.138   1.557
 7573TIP3   OH222682   4.230   3.357   4.295
 7573TIP3    H122683   4.274   3.327   4.375
 7573TIP3    H222684   4.302   3.386   4.238
 7574TIP3   OH222685   0.696   3.849   5.546
 7574TIP3    H122686   0.779   3.817   5.583
 7574TIP3    H222687   0.721   3.890   5.463
 7575TIP3   OH222688   1.486   6.789   4.217
 7575TIP3    H122689   1.550   6.717   4.213
 7575TIP3    H222690   1.508   6.836   4.297
 7576TIP3   OH222691   6.404   1.815   0.005
 7576TIP3    H122692   6.461   1.834   0.080
 7576TIP3    H222693   6.395   1.719   0.007
 7577TIP3   OH222694   6.224   5.530   2.757
 7577TIP3    H122695   6.237   5.511   2.850
 7577TIP3    H222696   6.293   5.593   2.736
 7578TIP3   OH222697   5.724   2.529   1.068
 7578TIP3    H122698   5.645   2.475   1.056
 7578TIP3    H222699   5.712   2.570   1.153
 7579TIP3   OH222700   7.131   4.994   5.353
 7579TIP3    H122701   7.073   5.069   5.340
 7579TIP3    H222702   7.209   5.015   5.303
 7580TIP3   OH222703   6.914   2.877   2.956
 7580TIP3    H122704   6.859   2.803   2.981
 7580TIP3    H222705   6.878   2.951   3.006
 7581TIP3   OH222706   7.168   5.392   2.837
 7581TIP3    H122707   7.187   5.324   2.902
 7581TIP3    H222708   7.072   5.395   2.833
 7582TIP3   OH222709   3.289   1.630   4.119
 7582TIP3    H122710   3.238   1.552   4.097
 7582TIP3    H222711   3.223   1.695   4.145
 7583TIP3   OH222712   6.287   3.730   4.271
 7583TIP3    H122713   6.372   3.761   4.303
 7583TIP3    H222714   6.272   3.649   4.319
 7584TIP3   OH222715   6.998   0.368   3.446
 7584TIP3    H122716   7.013   0.311   3.522
 7584TIP3    H222717   6.972   0.452   3.484
 7585TIP3   OH222718   1.268   5.864   2.447
 7585TIP3    H122719   1.245   5.775   2.421
 7585TIP3    H222720   1.206   5.885   2.517
 7586TIP3   OH222721   6.472   2.599   0.535
 7586TIP3    H122722   6.446   2.595   0.627
 7586TIP3    H222723   6.390   2.587   0.487
 7587TIP3   OH222724   5.365   0.570   1.500
 7587TIP3    H122725   5.434   0.525   1.549
 7587TIP3    H222726   5.299   0.590   1.567
 7588TIP3   OH222727   4.309   4.340   3.414
 7588TIP3    H122728   4.321   4.340   3.319
 7588TIP3    H222729   4.222   4.302   3.427
 7589TIP3   OH222730   6.333   2.407   5.540
 7589TIP3    H122731   6.421   2.369   5.540
 7589TIP3    H222732   6.343   2.491   5.586
 7590TIP3   OH222733   7.005   6.653   5.341
 7590TIP3    H122734   6.967   6.626   5.425
 7590TIP3    H222735   7.067   6.723   5.365
 7591TIP3   OH222736   0.285   6.772   3.320
 7591TIP3    H122737   0.332   6.756   3.238
 7591TIP3    H222738   0.338   6.836   3.367
 7592TIP3   OH222739   6.583   0.670   2.158
 7592TIP3    H122740   6.676   0.658   2.140
 7592TIP3    H222741   6.553   0.731   2.092
 7593TIP3   OH222742   3.143   0.402   3.605
 7593TIP3    H122743   3.170   0.351   3.529
 7593TIP3    H222744   3.224   0.445   3.634
 7594TIP3   OH222745   6.600   5.375   2.480
 7594TIP3    H122746   6.688   5.350   2.453
 7594TIP3    H222747   6.542   5.320   2.427
 7595TIP3   OH222748   4.060   4.023   1.886
 7595TIP3    H122749   4.098   4.109   1.904
 7595TIP3    H222750   4.003   4.006   1.961
 7596TIP3   OH222751   5.364   4.320   1.571
 7596TIP3    H122752   5.418   4.354   1.642
 7596TIP3    H222753   5.402   4.359   1.492
 7597TIP3   OH222754   5.150   5.522   1.457
 7597TIP3    H122755   5.174   5.520   1.550
 7597TIP3    H222756   5.058   5.495   1.456
 7598TIP3   OH222757   6.901   0.918   3.101
 7598TIP3    H122758   6.854   0.845   3.140
 7598TIP3    H222759   6.904   0.898   3.007
 7599TIP3   OH222760   2.234   4.451   5.541
 7599TIP3    H122761   2.295   4.470   5.470
 7599TIP3    H222762   2.191   4.534   5.560
 7600TIP3   OH222763   2.262   6.262   3.227
 7600TIP3    H122764   2.341   6.288   3.179
 7600TIP3    H222765   2.233   6.182   3.184
 7601TIP3   OH222766   0.737   6.043   2.407
 7601TIP3    H122767   0.661   6.101   2.418
 7601TIP3    H222768   0.758   6.015   2.496
 7602TIP3   OH222769   5.198   1.487   2.765
 7602TIP3    H122770   5.139   1.548   2.720
 7602TIP3    H222771   5.247   1.542   2.826
 7603TIP3   OH222772   6.163   3.316   4.821
 7603TIP3    H122773   6.197   3.358   4.900
 7603TIP3    H222774   6.126   3.387   4.769
 7604TIP3   OH222775   3.470   5.447   3.188
 7604TIP3    H122776   3.538   5.500   3.230
 7604TIP3    H222777   3.409   5.427   3.259
 7605TIP3   OH222778   6.481   4.954   3.016
 7605TIP3    H122779   6.445   4.883   3.070
 7605TIP3    H222780   6.552   4.913   2.967
 7606TIP3   OH222781   1.275   5.282   1.326
 7606TIP3    H122782   1.230   5.319   1.402
 7606TIP3    H222783   1.253   5.342   1.254
 7607TIP3   OH222784   5.004   3.463   5.496
 7607TIP3    H122785   4.969   3.550   5.518
 7607TIP3    H222786   4.963   3.441   5.412
 7608TIP3   OH222787   4.244   2.139   0.267
 7608TIP3    H122788   4.207   2.118   0.182
 7608TIP3    H222789   4.221   2.065   0.323
 7609TIP3   OH222790   1.982   2.326   1.903
 7609TIP3    H122791   2.025   2.380   1.969
 7609TIP3    H222792   1.927   2.266   1.954
 7610TIP3   OH222793   6.493   5.033   1.060
 7610TIP3    H122794   6.482   4.975   0.984
 7610TIP3    H222795   6.472   5.120   1.026
 7611TIP3   OH222796   0.530   0.560   2.775
 7611TIP3    H122797   0.518   0.639   2.722
 7611TIP3    H222798   0.505   0.488   2.716
 7612TIP3   OH222799   3.759   6.667   3.572
 7612TIP3    H122800   3.837   6.675   3.626
 7612TIP3    H222801   3.709   6.746   3.590
 7613TIP3   OH222802   2.499   6.789   1.398
 7613TIP3    H122803   2.580   6.785   1.348
 7613TIP3    H222804   2.433   6.820   1.336
 7614TIP3   OH222805   3.118   5.928   5.780
 7614TIP3    H122806   3.106   5.836   5.804
 7614TIP3    H222807   3.064   5.940   5.702
 7615TIP3   OH222808   6.516   5.509   5.149
 7615TIP3    H122809   6.515   5.482   5.241
 7615TIP3    H222810   6.609   5.515   5.127
 7616TIP3   OH222811   0.957   6.544   1.020
 7616TIP3    H122812   0.972   6.586   0.935
 7616TIP3    H222813   1.035   6.491   1.035
 7617TIP3   OH222814   6.131   3.870   1.522
 7617TIP3    H122815   6.111   3.855   1.614
 7617TIP3    H222816   6.134   3.782   1.484
 7618TIP3   OH222817   0.219   1.382   1.005
 7618TIP3    H122818   0.200   1.474   1.025
 7618TIP3    H222819   0.284   1.386   0.934
 7619TIP3   OH222820   3.278   3.822   1.998
 7619TIP3    H122821   3.345   3.885   1.971
 7619TIP3    H222822   3.213   3.824   1.928
 7620TIP3   OH222823   4.050   3.629   5.444
 7620TIP3    H122824   3.972   3.682   5.427
 7620TIP3    H222825   4.035   3.591   5.531
 7621TIP3   OH222826   6.078   3.555   2.521
 7621TIP3    H122827   6.071   3.506   2.439
 7621TIP3    H222828   5.992   3.597   2.531
 7622TIP3   OH222829   6.049   2.240   0.734
 7622TIP3    H122830   6.090   2.248   0.821
 7622TIP3    H222831   5.973   2.298   0.739
 7623TIP3   OH222832   2.406   3.313   3.885
 7623TIP3    H122833   2.407   3.245   3.818
 7623TIP3    H222834   2.420   3.266   3.967
 7624TIP3   OH222835   1.685   0.783   4.027
 7624TIP3    H122836   1.621   0.854   4.022
 7624TIP3    H222837   1.767   0.827   4.050
 7625TIP3   OH222838   1.388   0.627   2.404
 7625TIP3    H122839   1.342   0.682   2.341
 7625TIP3    H222840   1.397   0.543   2.360
 7626TIP3   OH222841   5.160   1.055   5.750
 7626TIP3    H122842   5.181   0.972   5.707
 7626TIP3    H222843   5.069   1.072   5.726
 7627TIP3   OH222844   1.383   5.901   5.183
 7627TIP3    H122845   1.388   5.819   5.134
 7627TIP3    H222846   1.359   5.874   5.272
 7628TIP3   OH222847   2.269   6.167   2.380
 7628TIP3    H122848   2.291   6.248   2.334
 7628TIP3    H222849   2.177   6.151   2.357
 7629TIP3   OH222850   3.879   6.392   4.843
 7629TIP3    H122851   3.957   6.423   4.889
 7629TIP3    H222852   3.854   6.312   4.891
 7630TIP3   OH222853   1.607   1.582   4.213
 7630TIP3    H122854   1.639   1.522   4.280
 7630TIP3    H222855   1.641   1.668   4.238
 7631TIP3   OH222856   0.977   3.190   5.244
 7631TIP3    H122857   0.985   3.094   5.246
 7631TIP3    H222858   1.063   3.220   5.217
 7632TIP3   OH222859   4.023   1.674   4.387
 7632TIP3    H122860   3.990   1.751   4.341
 7632TIP3    H222861   4.093   1.707   4.443
 7633TIP3   OH222862   6.069   5.043   1.139
 7633TIP3    H122863   6.087   5.128   1.100
 7633TIP3    H222864   5.976   5.027   1.122
 7634TIP3   OH222865   3.962   3.717   0.509
 7634TIP3    H122866   4.011   3.743   0.587
 7634TIP3    H222867   3.870   3.719   0.537
 7635TIP3   OH222868   2.036   6.317   0.463
 7635TIP3    H122869   1.946   6.325   0.431
 7635TIP3    H222870   2.027   6.274   0.548
 7636TIP3   OH222871   6.863   0.836   5.231
 7636TIP3    H122872   6.834   0.904   5.291
 7636TIP3    H222873   6.958   0.844   5.230
 7637TIP3   OH222874   0.795   6.051   5.495
 7637TIP3    H122875   0.754   6.004   5.422
 7637TIP3    H222876   0.815   6.137   5.459
 7638TIP3   OH222877   2.741   5.921   5.610
 7638TIP3    H122878   2.751   6.015   5.591
 7638TIP3    H222879   2.667   5.894   5.555
 7639TIP3   OH222880   3.915   2.800   1.642
 7639TIP3    H122881   3.884   2.819   1.554
 7639TIP3    H222882   3.966   2.878   1.666
 7640TIP3   OH222883   2.512   0.123   4.691
 7640TIP3    H122884   2.549   0.154   4.608
 7640TIP3    H222885   2.506   0.028   4.681
 7641TIP3   OH222886   3.129   0.794   1.345
 7641TIP3    H122887   3.038   0.802   1.319
 7641TIP3    H222888   3.159   0.885   1.358
 7642TIP3   OH222889   0.707   5.420   5.151
 7642TIP3    H122890   0.756   5.502   5.148
 7642TIP3    H222891   0.634   5.434   5.091
 7643TIP3   OH222892   1.096   4.440   3.012
 7643TIP3    H122893   1.141   4.516   3.050
 7643TIP3    H222894   1.110   4.449   2.918
 7644TIP3   OH222895   1.292   5.833   1.046
 7644TIP3    H122896   1.212   5.863   1.089
 7644TIP3    H222897   1.362   5.884   1.088
 7645TIP3   OH222898   1.864   4.656   3.910
 7645TIP3    H122899   1.873   4.656   4.006
 7645TIP3    H222900   1.791   4.597   3.893
 7646TIP3   OH222901   0.047   6.299   1.656
 7646TIP3    H122902   0.013   6.388   1.656
 7646TIP3    H222903   0.119   6.301   1.593
 7647TIP3   OH222904   3.960   5.015   4.100
 7647TIP3    H122905   3.876   5.033   4.141
 7647TIP3    H222906   3.964   5.076   4.026
 7648TIP3   OH222907   5.938   6.026   1.547
 7648TIP3    H122908   6.007   5.991   1.603
 7648TIP3    H222909   5.918   5.956   1.486
 7649TIP3   OH222910   3.106   6.392   3.837
 7649TIP3    H122911   3.027   6.364   3.884
 7649TIP3    H222912   3.080   6.474   3.795
 7650TIP3   OH222913   5.374   5.302   1.396
 7650TIP3    H122914   5.299   5.361   1.408
 7650TIP3    H222915   5.413   5.295   1.483
 7651TIP3   OH222916   4.438   5.592   2.998
 7651TIP3    H122917   4.414   5.510   3.042
 7651TIP3    H222918   4.437   5.570   2.905
 7652TIP3   OH222919   4.578   3.138   4.580
 7652TIP3    H122920   4.647   3.165   4.642
 7652TIP3    H222921   4.535   3.065   4.623
 7653TIP3   OH222922   7.130   1.744   5.351
 7653TIP3    H122923   7.039   1.728   5.326
 7653TIP3    H222924   7.130   1.833   5.387
 7654TIP3   OH222925   1.233   1.890   3.717
 7654TIP3    H122926   1.300   1.946   3.758
 7654TIP3    H222927   1.160   1.891   3.779
 7655TIP3   OH222928   0.709   0.796   2.921
 7655TIP3    H122929   0.783   0.775   2.977
 7655TIP3    H222930   0.669   0.711   2.902
 7656TIP3   OH222931   0.406   0.031   2.354
 7656TIP3    H122932   0.485   0.085   2.357
 7656TIP3    H222933   0.422  -0.039   2.417
 7657TIP3   OH222934   4.855   6.025   4.710
 7657TIP3    H122935   4.879   6.115   4.734
 7657TIP3    H222936   4.859   6.025   4.614
 7658TIP3   OH222937   3.887   3.063   5.197
 7658TIP3    H122938   3.952   2.996   5.175
 7658TIP3    H222939   3.830   3.067   5.120
 7659TIP3   OH222940   4.098   0.512   4.528
 7659TIP3    H122941   4.061   0.428   4.555
 7659TIP3    H222942   4.104   0.507   4.433
 7660TIP3   OH222943   5.662   0.631   2.710
 7660TIP3    H122944   5.577   0.621   2.667
 7660TIP3    H222945   5.722   0.579   2.656
 7661TIP3   OH222946   5.368   5.853   2.719
 7661TIP3    H122947   5.362   5.813   2.633
 7661TIP3    H222948   5.461   5.848   2.742
 7662TIP3   OH222949   5.901   6.735   0.660
 7662TIP3    H122950   5.939   6.723   0.574
 7662TIP3    H222951   5.920   6.653   0.706
 7663TIP3   OH222952   2.040   6.328   1.028
 7663TIP3    H122953   2.017   6.377   1.107
 7663TIP3    H222954   2.043   6.237   1.057
 7664TIP3   OH222955   4.031   0.701   0.452
 7664TIP3    H122956   4.028   0.762   0.526
 7664TIP3    H222957   4.020   0.614   0.492
 7665TIP3   OH222958   6.288   0.439   1.554
 7665TIP3    H122959   6.333   0.361   1.522
 7665TIP3    H222960   6.197   0.412   1.564
 7666TIP3   OH222961   1.944   5.220   0.960
 7666TIP3    H122962   1.945   5.315   0.948
 7666TIP3    H222963   1.929   5.207   1.053
 7667TIP3   OH222964   4.037   3.613   2.532
 7667TIP3    H122965   4.071   3.589   2.619
 7667TIP3    H222966   4.113   3.604   2.474
 7668TIP3   OH222967   4.625   3.698   3.339
 7668TIP3    H122968   4.539   3.740   3.349
 7668TIP3    H222969   4.614   3.612   3.379
 7669TIP3   OH222970   5.431   1.339   5.526
 7669TIP3    H122971   5.433   1.433   5.507
 7669TIP3    H222972   5.495   1.301   5.467
 7670TIP3   OH222973   0.711   1.537   0.716
 7670TIP3    H122974   0.630   1.588   0.708
 7670TIP3    H222975   0.771   1.594   0.764
 7671TIP3   OH222976   4.717   4.347   0.499
 7671TIP3    H122977   4.711   4.365   0.405
 7671TIP3    H222978   4.729   4.433   0.539
 7672TIP3   OH222979   7.196   2.174   0.200
 7672TIP3    H122980   7.220   2.254   0.154
 7672TIP3    H222981   7.207   2.105   0.136
 7673TIP3   OH222982   3.671   4.179   2.038
 7673TIP3    H122983   3.640   4.204   2.125
 7673TIP3    H222984   3.627   4.241   1.979
 7674TIP3   OH222985   4.437   1.943   5.475
 7674TIP3    H122986   4.417   1.995   5.553
 7674TIP3    H222987   4.528   1.916   5.487
 7675TIP3   OH222988   6.428   2.323   2.324
 7675TIP3    H122989   6.342   2.284   2.339
 7675TIP3    H222990   6.481   2.295   2.399
 7676TIP3   OH222991   6.825   1.920   1.572
 7676TIP3    H122992   6.741   1.963   1.589
 7676TIP3    H222993   6.889   1.975   1.617
 7677TIP3   OH222994   2.993   1.565   4.830
 7677TIP3    H122995   3.017   1.474   4.811
 7677TIP3    H222996   3.012   1.575   4.924
 7678TIP3   OH222997   4.666   4.270   2.205
 7678TIP3    H122998   4.714   4.191   2.230
 7678TIP3    H222999   4.649   4.315   2.287
 7679TIP3   OH223000   0.216   1.768   1.943
 7679TIP3    H123001   0.190   1.850   1.984
 7679TIP3    H223002   0.166   1.701   1.989
 7680TIP3   OH223003   6.015   4.896   2.609
 7680TIP3    H123004   6.097   4.853   2.634
 7680TIP3    H223005   6.031   4.989   2.626
 7681TIP3   OH223006   0.212   2.618   3.369
 7681TIP3    H123007   0.121   2.649   3.360
 7681TIP3    H223008   0.250   2.675   3.435
 7682TIP3   OH223009   0.395   3.938   0.354
 7682TIP3    H123010   0.304   3.948   0.326
 7682TIP3    H223011   0.446   3.988   0.290
 7683TIP3   OH223012   6.772   5.962   5.774
 7683TIP3    H123013   6.677   5.975   5.778
 7683TIP3    H223014   6.787   5.877   5.815
 7684TIP3   OH223015   4.844   6.595   0.420
 7684TIP3    H123016   4.765   6.597   0.366
 7684TIP3    H223017   4.878   6.684   0.418
 7685TIP3   OH223018   0.867   2.944   2.070
 7685TIP3    H123019   0.803   3.004   2.032
 7685TIP3    H223020   0.941   2.999   2.094
 7686TIP3   OH223021   2.174   3.916   1.191
 7686TIP3    H123022   2.194   3.941   1.101
 7686TIP3    H223023   2.097   3.859   1.183
 7687TIP3   OH223024   3.283   1.653   5.462
 7687TIP3    H123025   3.204   1.606   5.437
 7687TIP3    H223026   3.260   1.745   5.454
 7688TIP3   OH223027   5.412   6.682   4.447
 7688TIP3    H123028   5.329   6.655   4.408
 7688TIP3    H223029   5.404   6.777   4.456
 7689TIP3   OH223030   1.563   4.040   0.693
 7689TIP3    H123031   1.521   4.083   0.767
 7689TIP3    H223032   1.632   4.102   0.665
 7690TIP3   OH223033   3.736   6.739   0.182
 7690TIP3    H123034   3.774   6.827   0.192
 7690TIP3    H223035   3.703   6.738   0.092
 7691TIP3   OH223036   2.514   3.320   1.115
 7691TIP3    H123037   2.488   3.283   1.200
 7691TIP3    H223038   2.502   3.414   1.125
 7692TIP3   OH223039   0.379   1.658   1.719
 7692TIP3    H123040   0.371   1.580   1.774
 7692TIP3    H223041   0.310   1.716   1.750
 7693TIP3   OH223042   0.686   5.536   1.899
 7693TIP3    H123043   0.670   5.464   1.960
 7693TIP3    H223044   0.763   5.580   1.935
 7694TIP3   OH223045   2.920   6.535   1.348
 7694TIP3    H123046   2.967   6.584   1.280
 7694TIP3    H223047   2.942   6.443   1.331
 7695TIP3   OH223048   1.181   1.332   4.531
 7695TIP3    H123049   1.220   1.310   4.616
 7695TIP3    H223050   1.106   1.273   4.522
 7696TIP3   OH223051   5.473   3.400   0.465
 7696TIP3    H123052   5.417   3.474   0.441
 7696TIP3    H223053   5.453   3.334   0.398
 7697TIP3   OH223054   3.483   3.599   3.250
 7697TIP3    H123055   3.490   3.503   3.240
 7697TIP3    H223056   3.561   3.623   3.300
 7698TIP3   OH223057   6.946   5.320   5.154
 7698TIP3    H123058   6.973   5.292   5.066
 7698TIP3    H223059   7.018   5.294   5.211
 7699TIP3   OH223060   1.390   6.814   3.261
 7699TIP3    H123061   1.393   6.721   3.238
 7699TIP3    H223062   1.418   6.859   3.182
 7700TIP3   OH223063   1.622   6.056   3.770
 7700TIP3    H123064   1.701   6.004   3.755
 7700TIP3    H223065   1.645   6.114   3.843
 7701TIP3   OH223066   3.337   3.828   5.024
 7701TIP3    H123067   3.348   3.918   4.996
 7701TIP3    H223068   3.425   3.798   5.046
 7702TIP3   OH223069   0.478   4.389   4.481
 7702TIP3    H123070   0.571   4.402   4.463
 7702TIP3    H223071   0.445   4.477   4.503
 7703TIP3   OH223072   5.070   0.590   0.856
 7703TIP3    H123073   5.086   0.522   0.791
 7703TIP3    H223074   5.046   0.542   0.935
 7704TIP3   OH223075   7.046   2.044   2.273
 7704TIP3    H123076   7.020   1.964   2.228
 7704TIP3    H223077   7.009   2.115   2.220
 7705TIP3   OH223078   0.203   2.213   4.584
 7705TIP3    H123079   0.236   2.144   4.643
 7705TIP3    H223080   0.114   2.187   4.564
 7706TIP3   OH223081   4.715   0.301   4.753
 7706TIP3    H123082   4.802   0.315   4.793
 7706TIP3    H223083   4.720   0.346   4.669
 7707TIP3   OH223084   3.865   1.469   4.961
 7707TIP3    H123085   3.840   1.558   4.935
 7707TIP3    H223086   3.856   1.468   5.057
 7708TIP3   OH223087   2.860   1.696   4.048
 7708TIP3    H123088   2.929   1.673   4.110
 7708TIP3    H223089   2.785   1.642   4.075
 7709TIP3   OH223090   1.749   5.616   3.788
 7709TIP3    H123091   1.845   5.614   3.788
 7709TIP3    H223092   1.724   5.545   3.848
 7710TIP3   OH223093   3.782   2.411   5.606
 7710TIP3    H123094   3.702   2.401   5.658
 7710TIP3    H223095   3.750   2.437   5.519
 7711TIP3   OH223096   1.494   5.568   2.666
 7711TIP3    H123097   1.512   5.476   2.684
 7711TIP3    H223098   1.547   5.616   2.730
 7712TIP3   OH223099   5.160   4.708   1.993
 7712TIP3    H123100   5.239   4.653   1.999
 7712TIP3    H223101   5.088   4.649   2.013
 7713TIP3   OH223102   4.192   1.496   1.720
 7713TIP3    H123103   4.188   1.591   1.707
 7713TIP3    H223104   4.101   1.467   1.717
 7714TIP3   OH223105   5.431   2.135   5.470
 7714TIP3    H123106   5.448   2.156   5.378
 7714TIP3    H223107   5.344   2.172   5.487
 7715TIP3   OH223108   0.049   2.169   5.182
 7715TIP3    H123109   0.015   2.081   5.163
 7715TIP3    H223110   0.084   2.162   5.271
 7716TIP3   OH223111   3.809   1.613   1.432
 7716TIP3    H123112   3.733   1.663   1.462
 7716TIP3    H223113   3.830   1.555   1.504
 7717TIP3   OH223114   0.692   6.450   5.550
 7717TIP3    H123115   0.660   6.398   5.476
 7717TIP3    H223116   0.670   6.399   5.627
 7718TIP3   OH223117   3.123   3.663   2.449
 7718TIP3    H123118   3.187   3.595   2.427
 7718TIP3    H223119   3.153   3.699   2.532
 7719TIP3   OH223120   3.049   2.013   0.976
 7719TIP3    H123121   3.057   1.964   0.895
 7719TIP3    H223122   2.956   2.007   0.999
 7720TIP3   OH223123   4.793   3.803   4.036
 7720TIP3    H123124   4.778   3.865   3.964
 7720TIP3    H223125   4.789   3.856   4.115
 7721TIP3   OH223126   3.321   0.608   5.368
 7721TIP3    H123127   3.314   0.518   5.399
 7721TIP3    H223128   3.375   0.653   5.434
 7722TIP3   OH223129   2.542   1.318   1.955
 7722TIP3    H123130   2.475   1.378   1.921
 7722TIP3    H223131   2.494   1.262   2.016
 7723TIP3   OH223132   3.031   6.419   4.642
 7723TIP3    H123133   2.977   6.365   4.585
 7723TIP3    H223134   3.101   6.361   4.671
 7724TIP3   OH223135   1.265   2.900   3.162
 7724TIP3    H123136   1.348   2.938   3.191
 7724TIP3    H223137   1.291   2.829   3.103
 7725TIP3   OH223138   5.357   1.839   3.711
 7725TIP3    H123139   5.438   1.829   3.760
 7725TIP3    H223140   5.383   1.881   3.629
 7726TIP3   OH223141   4.466   1.873   0.881
 7726TIP3    H123142   4.428   1.873   0.969
 7726TIP3    H223143   4.423   1.946   0.836
 7727TIP3   OH223144   4.955   0.940   4.990
 7727TIP3    H123145   4.936   0.935   4.896
 7727TIP3    H223146   4.995   0.856   5.011
 7728TIP3   OH223147   6.525   2.177   5.448
 7728TIP3    H123148   6.484   2.090   5.445
 7728TIP3    H223149   6.598   2.167   5.510
 7729TIP3   OH223150   1.261   4.276   5.123
 7729TIP3    H123151   1.197   4.227   5.071
 7729TIP3    H223152   1.346   4.243   5.096
 7730TIP3   OH223153   1.521   0.453   0.568
 7730TIP3    H123154   1.439   0.498   0.549
 7730TIP3    H223155   1.589   0.514   0.540
 7731TIP3   OH223156   4.671   4.428   3.172
 7731TIP3    H123157   4.663   4.340   3.210
 7731TIP3    H223158   4.595   4.475   3.205
 7732TIP3   OH223159   6.286   0.738   0.207
 7732TIP3    H123160   6.285   0.813   0.147
 7732TIP3    H223161   6.374   0.738   0.243
 7733TIP3   OH223162   5.650   3.637   4.709
 7733TIP3    H123163   5.572   3.649   4.764
 7733TIP3    H223164   5.723   3.640   4.771
 7734TIP3   OH223165   4.801   0.924   1.806
 7734TIP3    H123166   4.793   0.976   1.726
 7734TIP3    H223167   4.768   0.838   1.783
 7735TIP3   OH223168   6.944   4.049   1.245
 7735TIP3    H123169   7.003   4.048   1.320
 7735TIP3    H223170   6.987   4.107   1.181
 7736TIP3   OH223171   6.988   4.380   3.146
 7736TIP3    H123172   7.080   4.361   3.164
 7736TIP3    H223173   6.954   4.413   3.228
 7737TIP3   OH223174   1.510   4.163   1.045
 7737TIP3    H123175   1.598   4.202   1.041
 7737TIP3    H223176   1.452   4.236   1.065
 7738TIP3   OH223177   6.827   2.266   1.549
 7738TIP3    H123178   6.787   2.346   1.582
 7738TIP3    H223179   6.767   2.236   1.481
 7739TIP3   OH223180   0.206   5.485   3.907
 7739TIP3    H123181   0.143   5.419   3.877
 7739TIP3    H223182   0.278   5.480   3.845
 7740TIP3   OH223183   2.116   4.592   3.816
 7740TIP3    H123184   2.026   4.610   3.845
 7740TIP3    H223185   2.140   4.669   3.763
 7741TIP3   OH223186   3.762   6.188   2.014
 7741TIP3    H123187   3.679   6.175   1.968
 7741TIP3    H223188   3.816   6.114   1.987
 7742TIP3   OH223189   1.346   2.726   5.574
 7742TIP3    H123190   1.441   2.734   5.567
 7742TIP3    H223191   1.324   2.771   5.656
 7743TIP3   OH223192   4.402   4.181   2.162
 7743TIP3    H123193   4.496   4.193   2.151
 7743TIP3    H223194   4.394   4.106   2.222
 7744TIP3   OH223195   6.195   5.364   2.488
 7744TIP3    H123196   6.208   5.427   2.559
 7744TIP3    H223197   6.274   5.371   2.434
 7745TIP3   OH223198   4.744   1.060   4.679
 7745TIP3    H123199   4.749   1.148   4.640
 7745TIP3    H223200   4.695   1.008   4.615
 7746TIP3   OH223201   4.598   1.028   5.910
 7746TIP3    H123202   4.691   1.034   5.933
 7746TIP3    H223203   4.599   1.010   5.815
 7747TIP3   OH223204   5.827   1.617   2.926
 7747TIP3    H123205   5.735   1.627   2.903
 7747TIP3    H223206   5.829   1.544   2.988
 7748TIP3   OH223207   1.586   4.475   1.312
 7748TIP3    H123208   1.504   4.476   1.360
 7748TIP3    H223209   1.610   4.383   1.307
 7749TIP3   OH223210   5.802   0.434   2.588
 7749TIP3    H123211   5.804   0.407   2.496
 7749TIP3    H223212   5.856   0.369   2.633
 7750TIP3   OH223213   4.198   4.204   2.868
 7750TIP3    H123214   4.198   4.247   2.782
 7750TIP3    H223215   4.176   4.113   2.849
 7751TIP3   OH223216   4.818   6.486   3.885
 7751TIP3    H123217   4.834   6.463   3.977
 7751TIP3    H223218   4.900   6.528   3.857
 7752TIP3   OH223219   3.733   3.776   4.108
 7752TIP3    H123220   3.665   3.723   4.068
 7752TIP3    H223221   3.815   3.734   4.082
 7753TIP3   OH223222   5.756   0.389   3.377
 7753TIP3    H123223   5.829   0.380   3.315
 7753TIP3    H223224   5.750   0.484   3.392
 7754TIP3   OH223225   6.231   3.113   2.843
 7754TIP3    H123226   6.206   3.054   2.914
 7754TIP3    H223227   6.326   3.124   2.853
 7755TIP3   OH223228   3.861   1.014   0.274
 7755TIP3    H123229   3.813   0.950   0.327
 7755TIP3    H223230   3.885   0.966   0.194
 7756TIP3   OH223231   2.809   5.153   2.348
 7756TIP3    H123232   2.889   5.100   2.342
 7756TIP3    H223233   2.738   5.089   2.350
 7757TIP3   OH223234   3.373   5.289   0.968
 7757TIP3    H123235   3.287   5.331   0.978
 7757TIP3    H223236   3.360   5.223   0.901
 7758TIP3   OH223237   4.933   6.600   2.149
 7758TIP3    H123238   4.928   6.526   2.209
 7758TIP3    H223239   4.868   6.580   2.081
 7759TIP3   OH223240   0.005   0.982   3.947
 7759TIP3    H123241   0.031   1.020   3.863
 7759TIP3    H223242   0.068   0.912   3.963
 7760TIP3   OH223243   5.688   1.633   1.060
 7760TIP3    H123244   5.621   1.701   1.050
 7760TIP3    H223245   5.693   1.618   1.155
 7761TIP3   OH223246   2.500   2.200   4.969
 7761TIP3    H123247   2.492   2.119   4.919
 7761TIP3    H223248   2.579   2.241   4.936
 7762TIP3   OH223249   4.068   1.008   5.119
 7762TIP3    H123250   4.142   0.957   5.085
 7762TIP3    H223251   4.046   0.966   5.202
 7763TIP3   OH223252   4.140   5.815   3.595
 7763TIP3    H123253   4.091   5.733   3.604
 7763TIP3    H223254   4.074   5.880   3.571
 7764TIP3   OH223255   5.472   0.983   1.749
 7764TIP3    H123256   5.426   0.950   1.672
 7764TIP3    H223257   5.471   0.909   1.811
 7765TIP3   OH223258   2.629   2.715   0.073
 7765TIP3    H123259   2.599   2.646   0.132
 7765TIP3    H223260   2.699   2.759   0.122
 7766TIP3   OH223261   1.669   3.647   0.282
 7766TIP3    H123262   1.654   3.731   0.324
 7766TIP3    H223263   1.646   3.661   0.190
 7767TIP3   OH223264   5.590   2.046   4.385
 7767TIP3    H123265   5.542   2.129   4.379
 7767TIP3    H223266   5.531   1.982   4.346
 7768TIP3   OH223267   3.359   4.369   5.780
 7768TIP3    H123268   3.386   4.440   5.722
 7768TIP3    H223269   3.268   4.388   5.801
 7769TIP3   OH223270   3.909   5.768   0.663
 7769TIP3    H123271   3.968   5.826   0.712
 7769TIP3    H223272   3.968   5.705   0.621
 7770TIP3   OH223273   0.746   4.980   3.445
 7770TIP3    H123274   0.722   5.064   3.483
 7770TIP3    H223275   0.721   4.987   3.353
 7771TIP3   OH223276   2.114   5.788   2.699
 7771TIP3    H123277   2.147   5.846   2.767
 7771TIP3    H223278   2.064   5.721   2.747
 7772TIP3   OH223279   4.837   4.656   5.782
 7772TIP3    H123280   4.798   4.696   5.704
 7772TIP3    H223281   4.856   4.566   5.757
 7773TIP3   OH223282   0.417   4.330   2.291
 7773TIP3    H123283   0.443   4.361   2.204
 7773TIP3    H223284   0.435   4.236   2.289
 7774TIP3   OH223285   1.379   3.257   4.923
 7774TIP3    H123286   1.374   3.295   4.835
 7774TIP3    H223287   1.355   3.329   4.981
 7775TIP3   OH223288   3.565   1.247   4.297
 7775TIP3    H123289   3.523   1.333   4.305
 7775TIP3    H223290   3.614   1.236   4.378
 7776TIP3   OH223291   2.564   0.982   3.635
 7776TIP3    H123292   2.576   0.946   3.723
 7776TIP3    H223293   2.543   1.074   3.649
 7777TIP3   OH223294   0.109   6.511   3.961
 7777TIP3    H123295   0.056   6.548   4.032
 7777TIP3    H223296   0.065   6.428   3.940
 7778TIP3   OH223297   2.048   5.959   4.874
 7778TIP3    H123298   2.127   5.923   4.913
 7778TIP3    H223299   2.066   5.959   4.780
 7779TIP3   OH223300   2.327   6.682   4.140
 7779TIP3    H123301   2.383   6.665   4.065
 7779TIP3    H223302   2.240   6.652   4.113
 7780TIP3   OH223303   1.435   2.203   1.580
 7780TIP3    H123304   1.377   2.145   1.628
 7780TIP3    H223305   1.466   2.266   1.645
 7781TIP3   OH223306   6.291   6.578   2.664
 7781TIP3    H123307   6.306   6.635   2.739
 7781TIP3    H223308   6.236   6.508   2.698
 7782TIP3   OH223309   0.306   6.409   4.739
 7782TIP3    H123310   0.263   6.345   4.682
 7782TIP3    H223311   0.337   6.358   4.814
 7783TIP3   OH223312   2.979   1.786   3.306
 7783TIP3    H123313   2.963   1.870   3.262
 7783TIP3    H223314   2.923   1.724   3.260
 7784TIP3   OH223315   5.216   6.091   3.934
 7784TIP3    H123316   5.189   6.054   3.850
 7784TIP3    H223317   5.141   6.075   3.992
 7785TIP3   OH223318   6.332   0.383   4.820
 7785TIP3    H123319   6.337   0.289   4.837
 7785TIP3    H223320   6.241   0.399   4.795
 7786TIP3   OH223321   4.132   5.567   5.762
 7786TIP3    H123322   4.213   5.523   5.737
 7786TIP3    H223323   4.066   5.497   5.763
 7787TIP3   OH223324   1.462   4.047   3.476
 7787TIP3    H123325   1.470   4.110   3.405
 7787TIP3    H223326   1.441   4.100   3.553
 7788TIP3   OH223327   5.959   6.714   5.085
 7788TIP3    H123328   6.036   6.741   5.134
 7788TIP3    H223329   5.984   6.723   4.993
 7789TIP3   OH223330   5.437   5.912   2.143
 7789TIP3    H123331   5.391   5.870   2.070
 7789TIP3    H223332   5.415   5.858   2.219
 7790TIP3   OH223333   5.529   2.293   4.269
 7790TIP3    H123334   5.443   2.334   4.280
 7790TIP3    H223335   5.576   2.350   4.209
 7791TIP3   OH223336   3.481   4.631   0.393
 7791TIP3    H123337   3.530   4.559   0.433
 7791TIP3    H223338   3.392   4.596   0.383
 7792TIP3   OH223339   1.095   4.824   1.082
 7792TIP3    H123340   1.130   4.745   1.125
 7792TIP3    H223341   1.172   4.868   1.047
 7793TIP3   OH223342   5.305   0.201   3.494
 7793TIP3    H123343   5.387   0.231   3.457
 7793TIP3    H223344   5.314   0.106   3.501
 7794TIP3   OH223345   0.778   3.037   0.387
 7794TIP3    H123346   0.783   3.110   0.449
 7794TIP3    H223347   0.728   2.970   0.433
 7795TIP3   OH223348   4.369   4.693   0.295
 7795TIP3    H123349   4.340   4.777   0.329
 7795TIP3    H223350   4.292   4.657   0.251
 7796TIP3   OH223351   0.714   0.759   3.324
 7796TIP3    H123352   0.809   0.756   3.326
 7796TIP3    H223353   0.687   0.668   3.341
 7797TIP3   OH223354   4.105   5.868   5.636
 7797TIP3    H123355   4.073   5.910   5.555
 7797TIP3    H223356   4.172   5.806   5.606
 7798TIP3   OH223357   7.015   3.724   2.231
 7798TIP3    H123358   7.107   3.749   2.222
 7798TIP3    H223359   6.978   3.790   2.289
 7799TIP3   OH223360   6.690   4.336   5.141
 7799TIP3    H123361   6.693   4.294   5.055
 7799TIP3    H223362   6.736   4.275   5.199
 7800TIP3   OH223363   5.033   6.508   3.571
 7800TIP3    H123364   4.993   6.582   3.527
 7800TIP3    H223365   5.040   6.535   3.662
 7801TIP3   OH223366   6.647   1.480   5.265
 7801TIP3    H123367   6.566   1.490   5.214
 7801TIP3    H223368   6.616   1.458   5.353
 7802TIP3   OH223369   0.871   3.540   3.392
 7802TIP3    H123370   0.930   3.501   3.328
 7802TIP3    H223371   0.928   3.582   3.456
 7803TIP3   OH223372   7.153   0.331   1.713
 7803TIP3    H123373   7.225   0.286   1.668
 7803TIP3    H223374   7.079   0.322   1.653
 7804TIP3   OH223375   6.681   4.329   0.926
 7804TIP3    H123376   6.628   4.249   0.935
 7804TIP3    H223377   6.704   4.353   1.016
 7805TIP3   OH223378   3.872   4.006   3.505
 7805TIP3    H123379   3.777   4.003   3.514
 7805TIP3    H223380   3.896   3.916   3.481
 7806TIP3   OH223381   2.225   5.664   3.401
 7806TIP3    H123382   2.257   5.684   3.489
 7806TIP3    H223383   2.256   5.575   3.384
 7807TIP3   OH223384   0.467   0.855   2.018
 7807TIP3    H123385   0.492   0.948   2.019
 7807TIP3    H223386   0.546   0.810   1.988
 7808TIP3   OH223387   3.508   3.650   5.384
 7808TIP3    H123388   3.438   3.585   5.379
 7808TIP3    H223389   3.538   3.661   5.294
 7809TIP3   OH223390   2.509   3.273   3.344
 7809TIP3    H123391   2.487   3.184   3.370
 7809TIP3    H223392   2.497   3.274   3.249
 7810TIP3   OH223393   6.815   4.567   4.851
 7810TIP3    H123394   6.898   4.538   4.889
 7810TIP3    H223395   6.768   4.606   4.925
 7811TIP3   OH223396   0.527   6.217   3.628
 7811TIP3    H123397   0.576   6.135   3.626
 7811TIP3    H223398   0.559   6.266   3.552
 7812TIP3   OH223399   4.206   2.877   5.222
 7812TIP3    H123400   4.218   2.873   5.316
 7812TIP3    H223401   4.263   2.809   5.187
 7813TIP3   OH223402   2.507   1.229   3.363
 7813TIP3    H123403   2.553   1.196   3.285
 7813TIP3    H223404   2.442   1.161   3.382
 7814TIP3   OH223405   6.267   1.612   5.490
 7814TIP3    H123406   6.227   1.655   5.414
 7814TIP3    H223407   6.203   1.626   5.560
 7815TIP3   OH223408   6.980   0.641   0.693
 7815TIP3    H123409   6.956   0.588   0.617
 7815TIP3    H223410   6.999   0.728   0.656
 7816TIP3   OH223411   1.804   6.368  -0.012
 7816TIP3    H123412   1.715   6.405  -0.013
 7816TIP3    H223413   1.850   6.420   0.054
 7817TIP3   OH223414   1.120   5.789   3.634
 7817TIP3    H123415   1.161   5.780   3.548
 7817TIP3    H223416   1.149   5.712   3.683
 7818TIP3   OH223417   0.243   5.101   1.606
 7818TIP3    H123418   0.249   5.010   1.580
 7818TIP3    H223419   0.254   5.099   1.701
 7819TIP3   OH223420   1.586   3.298   0.703
 7819TIP3    H123421   1.493   3.318   0.702
 7819TIP3    H223422   1.613   3.302   0.612
 7820TIP3   OH223423   4.911   5.120   4.805
 7820TIP3    H123424   4.825   5.128   4.765
 7820TIP3    H223425   4.906   5.042   4.859
 7821TIP3   OH223426   0.088   1.552   2.935
 7821TIP3    H123427   0.158   1.612   2.909
 7821TIP3    H223428   0.016   1.609   2.964
 7822TIP3   OH223429   0.760   2.131   5.639
 7822TIP3    H123430   0.732   2.083   5.561
 7822TIP3    H223431   0.854   2.144   5.627
 7823TIP3   OH223432   5.147   2.804   0.696
 7823TIP3    H123433   5.222   2.829   0.750
 7823TIP3    H223434   5.080   2.869   0.716
 7824TIP3   OH223435   5.678   5.251   5.450
 7824TIP3    H123436   5.705   5.342   5.458
 7824TIP3    H223437   5.640   5.229   5.535
 7825TIP3   OH223438   6.950   1.092   4.677
 7825TIP3    H123439   6.921   1.181   4.660
 7825TIP3    H223440   6.937   1.080   4.771
 7826TIP3   OH223441   5.132   3.435   1.074
 7826TIP3    H123442   5.206   3.401   1.024
 7826TIP3    H223443   5.108   3.363   1.133
 7827TIP3   OH223444   0.477   4.562   0.620
 7827TIP3    H123445   0.491   4.468   0.633
 7827TIP3    H223446   0.543   4.603   0.676
 7828TIP3   OH223447   0.941   3.106   3.355
 7828TIP3    H123448   0.884   3.058   3.416
 7828TIP3    H223449   0.958   3.043   3.285
 7829TIP3   OH223450   0.613   0.284   2.350
 7829TIP3    H123451   0.686   0.292   2.411
 7829TIP3    H223452   0.641   0.217   2.287
 7830TIP3   OH223453   2.549   3.755   1.465
 7830TIP3    H123454   2.465   3.765   1.511
 7830TIP3    H223455   2.603   3.827   1.496
 7831TIP3   OH223456   0.414   6.386   2.341
 7831TIP3    H123457   0.454   6.309   2.382
 7831TIP3    H223458   0.320   6.378   2.362
 7832TIP3   OH223459   5.628   5.382   4.276
 7832TIP3    H123460   5.553   5.373   4.335
 7832TIP3    H223461   5.684   5.447   4.318
 7833TIP3   OH223462   5.778   6.676   5.276
 7833TIP3    H123463   5.841   6.701   5.208
 7833TIP3    H223464   5.831   6.669   5.356
 7834TIP3   OH223465   0.536   1.384   3.264
 7834TIP3    H123466   0.496   1.387   3.177
 7834TIP3    H223467   0.512   1.468   3.304
 7835TIP3   OH223468   3.990   2.695   5.201
 7835TIP3    H123469   4.023   2.734   5.282
 7835TIP3    H223470   4.030   2.747   5.131
 7836TIP3   OH223471   5.376   2.448   0.749
 7836TIP3    H123472   5.322   2.467   0.825
 7836TIP3    H223473   5.320   2.398   0.690
 7837TIP3   OH223474   4.971   2.799   1.268
 7837TIP3    H123475   4.939   2.740   1.201
 7837TIP3    H223476   5.045   2.844   1.227
 7838TIP3   OH223477   3.921   6.241   3.316
 7838TIP3    H123478   3.882   6.314   3.365
 7838TIP3    H223479   3.852   6.215   3.255
 7839TIP3   OH223480   2.198   4.334   4.387
 7839TIP3    H123481   2.254   4.407   4.413
 7839TIP3    H223482   2.114   4.351   4.429
 7840TIP3   OH223483   4.851   3.181   0.854
 7840TIP3    H123484   4.779   3.241   0.834
 7840TIP3    H223485   4.871   3.198   0.946
 7841TIP3   OH223486   2.958   1.040   4.290
 7841TIP3    H123487   3.029   1.024   4.227
 7841TIP3    H223488   2.993   1.010   4.374
 7842TIP3   OH223489   6.959   4.851   5.632
 7842TIP3    H123490   7.012   4.849   5.553
 7842TIP3    H223491   6.976   4.937   5.671
 7843TIP3   OH223492   6.988   6.088   4.878
 7843TIP3    H123493   7.052   6.099   4.807
 7843TIP3    H223494   7.015   6.153   4.943
 7844TIP3   OH223495   4.500   3.454   4.653
 7844TIP3    H123496   4.570   3.435   4.716
 7844TIP3    H223497   4.470   3.542   4.675
 7845TIP3   OH223498   4.730   3.446   2.369
 7845TIP3    H123499   4.770   3.372   2.415
 7845TIP3    H223500   4.696   3.408   2.288
 7846TIP3   OH223501   1.629   5.435   2.943
 7846TIP3    H123502   1.606   5.388   3.023
 7846TIP3    H223503   1.632   5.527   2.969
 7847TIP3   OH223504   5.248   5.203   0.220
 7847TIP3    H123505   5.174   5.246   0.262
 7847TIP3    H223506   5.324   5.228   0.272
 7848TIP3   OH223507   3.139   3.497   4.653
 7848TIP3    H123508   3.049   3.469   4.669
 7848TIP3    H223509   3.192   3.438   4.707
 7849TIP3   OH223510   4.110   6.116   1.909
 7849TIP3    H123511   4.035   6.057   1.903
 7849TIP3    H223512   4.100   6.175   1.835
 7850TIP3   OH223513   5.364   5.468   0.157
 7850TIP3    H123514   5.375   5.474   0.252
 7850TIP3    H223515   5.299   5.534   0.136
 7851TIP3   OH223516   5.664   6.017   1.121
 7851TIP3    H123517   5.696   6.068   1.195
 7851TIP3    H223518   5.692   5.927   1.138
 7852TIP3   OH223519   1.609   0.258   2.683
 7852TIP3    H123520   1.661   0.337   2.666
 7852TIP3    H223521   1.571   0.236   2.598
 7853TIP3   OH223522   1.367   4.920   2.105
 7853TIP3    H123523   1.408   4.834   2.092
 7853TIP3    H223524   1.303   4.927   2.034
 7854TIP3   OH223525   0.740   1.962   2.552
 7854TIP3    H123526   0.726   2.031   2.616
 7854TIP3    H223527   0.806   1.905   2.591
 7855TIP3   OH223528   4.489   6.539   5.162
 7855TIP3    H123529   4.461   6.509   5.248
 7855TIP3    H223530   4.584   6.527   5.162
 7856TIP3   OH223531   6.744   2.451   5.167
 7856TIP3    H123532   6.742   2.499   5.084
 7856TIP3    H223533   6.665   2.479   5.212
 7857TIP3   OH223534   6.693   6.617   5.168
 7857TIP3    H123535   6.730   6.628   5.080
 7857TIP3    H223536   6.620   6.678   5.171
 7858TIP3   OH223537   0.740   4.897   1.684
 7858TIP3    H123538   0.719   4.874   1.594
 7858TIP3    H223539   0.656   4.891   1.730
 7859TIP3   OH223540   2.869   3.351   4.703
 7859TIP3    H123541   2.865   3.321   4.794
 7859TIP3    H223542   2.808   3.294   4.656
 7860TIP3   OH223543   3.205   6.758   4.227
 7860TIP3    H123544   3.212   6.675   4.273
 7860TIP3    H223545   3.114   6.763   4.199
 7861TIP3   OH223546   6.789   3.291   2.824
 7861TIP3    H123547   6.807   3.377   2.787
 7861TIP3    H223548   6.723   3.253   2.766
 7862TIP3   OH223549   6.711   2.089   3.059
 7862TIP3    H123550   6.623   2.055   3.073
 7862TIP3    H223551   6.751   2.027   2.998
 7863TIP3   OH223552   0.799   5.791   3.328
 7863TIP3    H123553   0.873   5.754   3.378
 7863TIP3    H223554   0.782   5.875   3.370
 7864TIP3   OH223555   5.786   1.794   4.267
 7864TIP3    H123556   5.809   1.800   4.174
 7864TIP3    H223557   5.858   1.839   4.312
 7865TIP3   OH223558   5.810   3.160   5.698
 7865TIP3    H123559   5.882   3.117   5.652
 7865TIP3    H223560   5.752   3.192   5.629
 7866TIP3   OH223561   5.853   1.377   5.786
 7866TIP3    H123562   5.813   1.462   5.771
 7866TIP3    H223563   5.780   1.320   5.811
 7867TIP3   OH223564   5.153   1.491   3.364
 7867TIP3    H123565   5.060   1.500   3.344
 7867TIP3    H223566   5.197   1.545   3.299
 7868TIP3   OH223567   3.462   1.353   2.988
 7868TIP3    H123568   3.422   1.281   2.940
 7868TIP3    H223569   3.414   1.357   3.071
 7869TIP3   OH223570   6.968   6.745   3.928
 7869TIP3    H123571   6.965   6.676   3.861
 7869TIP3    H223572   6.952   6.826   3.880
 7870TIP3   OH223573   4.396   0.746   1.511
 7870TIP3    H123574   4.420   0.663   1.552
 7870TIP3    H223575   4.385   0.806   1.585
 7871TIP3   OH223576   2.333   0.893   4.224
 7871TIP3    H123577   2.323   0.872   4.317
 7871TIP3    H223578   2.243   0.893   4.190
 7872TIP3   OH223579   4.363   1.839   3.439
 7872TIP3    H123580   4.450   1.800   3.445
 7872TIP3    H223581   4.357   1.895   3.517
 7873TIP3   OH223582   5.429   3.629   0.321
 7873TIP3    H123583   5.403   3.699   0.262
 7873TIP3    H223584   5.516   3.655   0.353
 7874TIP3   OH223585   2.062   1.094   0.637
 7874TIP3    H123586   2.152   1.071   0.611
 7874TIP3    H223587   2.061   1.082   0.732
 7875TIP3   OH223588   7.150   2.995   4.003
 7875TIP3    H123589   7.155   3.042   4.087
 7875TIP3    H223590   7.230   2.942   4.001
 7876TIP3   OH223591   5.376   4.229   1.932
 7876TIP3    H123592   5.434   4.301   1.906
 7876TIP3    H223593   5.330   4.263   2.009
 7877TIP3   OH223594   0.261   5.214   0.107
 7877TIP3    H123595   0.278   5.256   0.191
 7877TIP3    H223596   0.170   5.185   0.111
 7878TIP3   OH223597   5.917   1.273   5.170
 7878TIP3    H123598   5.822   1.287   5.166
 7878TIP3    H223599   5.936   1.262   5.263
 7879TIP3   OH223600   4.020   1.542   2.188
 7879TIP3    H123601   4.082   1.601   2.145
 7879TIP3    H223602   4.073   1.466   2.213
 7880TIP3   OH223603   1.818   3.102   5.650
 7880TIP3    H123604   1.821   3.120   5.744
 7880TIP3    H223605   1.724   3.100   5.629
 7881TIP3   OH223606   5.835   6.298   4.702
 7881TIP3    H123607   5.837   6.241   4.625
 7881TIP3    H223608   5.846   6.239   4.776
 7882TIP3   OH223609   0.943   1.743   4.322
 7882TIP3    H123610   0.955   1.657   4.363
 7882TIP3    H223611   0.998   1.740   4.244
 7883TIP3   OH223612   1.656   1.527   2.537
 7883TIP3    H123613   1.742   1.531   2.497
 7883TIP3    H223614   1.596   1.554   2.468
 7884TIP3   OH223615   1.675   2.721   3.007
 7884TIP3    H123616   1.694   2.767   3.089
 7884TIP3    H223617   1.745   2.657   2.999
 7885TIP3   OH223618   4.178   6.314   3.309
 7885TIP3    H123619   4.085   6.301   3.295
 7885TIP3    H223620   4.201   6.385   3.249
 7886TIP3   OH223621   1.125   2.867   1.931
 7886TIP3    H123622   1.054   2.811   1.963
 7886TIP3    H223623   1.199   2.849   1.990
 7887TIP3   OH223624   3.351   6.477   2.694
 7887TIP3    H123625   3.383   6.511   2.610
 7887TIP3    H223626   3.270   6.430   2.671
 7888TIP3   OH223627   2.011   4.877   4.680
 7888TIP3    H123628   1.943   4.942   4.663
 7888TIP3    H223629   2.076   4.924   4.733
 7889TIP3   OH223630   6.244   2.955   5.549
 7889TIP3    H123631   6.246   2.947   5.454
 7889TIP3    H223632   6.152   2.970   5.570
 7890TIP3   OH223633   5.849   1.674   5.162
 7890TIP3    H123634   5.763   1.655   5.124
 7890TIP3    H223635   5.847   1.629   5.247
 7891TIP3   OH223636   3.866   5.784   3.377
 7891TIP3    H123637   3.842   5.803   3.286
 7891TIP3    H223638   3.799   5.828   3.429
 7892TIP3   OH223639   4.772   2.744   5.069
 7892TIP3    H123640   4.705   2.743   5.001
 7892TIP3    H223641   4.724   2.735   5.151
 7893TIP3   OH223642   2.744   3.285   2.632
 7893TIP3    H123643   2.720   3.311   2.543
 7893TIP3    H223644   2.831   3.322   2.644
 7894TIP3   OH223645   4.342   3.746   2.675
 7894TIP3    H123646   4.324   3.685   2.604
 7894TIP3    H223647   4.377   3.691   2.746
 7895TIP3   OH223648   5.254   3.831   1.550
 7895TIP3    H123649   5.299   3.801   1.471
 7895TIP3    H223650   5.216   3.915   1.525
 7896TIP3   OH223651   0.554   0.545   3.399
 7896TIP3    H123652   0.462   0.525   3.414
 7896TIP3    H223653   0.601   0.493   3.465
 7897TIP3   OH223654   7.227   4.356   5.070
 7897TIP3    H123655   7.220   4.303   5.149
 7897TIP3    H223656   7.142   4.401   5.063
 7898TIP3   OH223657   4.474   5.534   2.717
 7898TIP3    H123658   4.392   5.551   2.670
 7898TIP3    H223659   4.543   5.554   2.653
 7899TIP3   OH223660   2.802   2.165   4.025
 7899TIP3    H123661   2.841   2.086   3.989
 7899TIP3    H223662   2.737   2.192   3.961
 7900TIP3   OH223663   4.114   0.422   5.715
 7900TIP3    H123664   4.172   0.347   5.704
 7900TIP3    H223665   4.037   0.401   5.662
 7901TIP3   OH223666   5.679   3.560   1.421
 7901TIP3    H123667   5.687   3.464   1.425
 7901TIP3    H223668   5.716   3.584   1.336
 7902TIP3   OH223669   2.723   6.033   4.371
 7902TIP3    H123670   2.682   5.990   4.445
 7902TIP3    H223671   2.801   5.981   4.353
 7903TIP3   OH223672   0.924   0.049   5.847
 7903TIP3    H123673   0.870   0.037   5.768
 7903TIP3    H223674   0.986   0.117   5.823
 7904TIP3   OH223675   5.158   3.422   4.167
 7904TIP3    H123676   5.104   3.500   4.171
 7904TIP3    H223677   5.120   3.363   4.232
 7905TIP3   OH223678   5.434   3.479   4.250
 7905TIP3    H123679   5.454   3.554   4.305
 7905TIP3    H223680   5.348   3.499   4.213
 7906TIP3   OH223681   6.935   5.380   1.006
 7906TIP3    H123682   6.867   5.379   0.939
 7906TIP3    H223683   6.941   5.288   1.034
 7907TIP3   OH223684   6.023   2.108   1.960
 7907TIP3    H123685   6.089   2.141   2.021
 7907TIP3    H223686   5.968   2.184   1.941
 7908TIP3   OH223687   3.749   3.318   3.043
 7908TIP3    H123688   3.811   3.250   3.017
 7908TIP3    H223689   3.765   3.390   2.982
 7909TIP3   OH223690   2.995   5.078   2.875
 7909TIP3    H123691   2.987   5.019   2.800
 7909TIP3    H223692   2.982   5.165   2.839
 7910TIP3   OH223693   6.967   1.301   2.338
 7910TIP3    H123694   7.032   1.250   2.386
 7910TIP3    H223695   6.908   1.236   2.300
 7911TIP3   OH223696   5.741   1.534   4.526
 7911TIP3    H123697   5.801   1.548   4.600
 7911TIP3    H223698   5.775   1.457   4.482
 7912TIP3   OH223699   2.360   2.458   0.349
 7912TIP3    H123700   2.416   2.400   0.400
 7912TIP3    H223701   2.286   2.478   0.407
 7913TIP3   OH223702   1.974   5.040   0.738
 7913TIP3    H123703   2.002   5.098   0.809
 7913TIP3    H223704   2.033   5.061   0.665
 7914TIP3   OH223705   2.899   3.288   3.569
 7914TIP3    H123706   2.933   3.371   3.603
 7914TIP3    H223707   2.805   3.292   3.585
 7915TIP3   OH223708   0.309   4.736   2.683
 7915TIP3    H123709   0.303   4.827   2.655
 7915TIP3    H223710   0.330   4.687   2.604
 7916TIP3   OH223711   4.685   0.566   3.710
 7916TIP3    H123712   4.764   0.611   3.682
 7916TIP3    H223713   4.702   0.474   3.692
 7917TIP3   OH223714   1.473   3.295   1.785
 7917TIP3    H123715   1.448   3.295   1.693
 7917TIP3    H223716   1.487   3.387   1.806
 7918TIP3   OH223717   0.858   3.320   2.278
 7918TIP3    H123718   0.908   3.341   2.357
 7918TIP3    H223719   0.847   3.404   2.234
 7919TIP3   OH223720   4.132   2.759   2.754
 7919TIP3    H123721   4.154   2.760   2.847
 7919TIP3    H223722   4.064   2.692   2.746
 7920TIP3   OH223723   5.552   2.999   0.609
 7920TIP3    H123724   5.488   3.029   0.544
 7920TIP3    H223725   5.510   2.924   0.652
 7921TIP3   OH223726   2.822   1.530   5.171
 7921TIP3    H123727   2.902   1.489   5.137
 7921TIP3    H223728   2.772   1.553   5.092
 7922TIP3   OH223729   4.803   3.426   1.333
 7922TIP3    H123730   4.753   3.417   1.251
 7922TIP3    H223731   4.755   3.373   1.396
 7923TIP3   OH223732   2.340   1.225   1.036
 7923TIP3    H123733   2.417   1.277   1.059
 7923TIP3    H223734   2.274   1.250   1.100
 7924TIP3   OH223735   6.860   4.999   3.887
 7924TIP3    H123736   6.881   5.092   3.885
 7924TIP3    H223737   6.936   4.958   3.929
 7925TIP3   OH223738   3.062   0.542   3.293
 7925TIP3    H123739   3.056   0.480   3.220
 7925TIP3    H223740   2.974   0.541   3.332
 7926TIP3   OH223741   2.565   3.217   0.172
 7926TIP3    H123742   2.496   3.281   0.188
 7926TIP3    H223743   2.619   3.218   0.250
 7927TIP3   OH223744   6.494   1.265   2.472
 7927TIP3    H123745   6.488   1.227   2.384
 7927TIP3    H223746   6.460   1.196   2.530
 7928TIP3   OH223747   1.897   4.507   0.572
 7928TIP3    H123748   1.928   4.472   0.488
 7928TIP3    H223749   1.901   4.433   0.632
 7929TIP3   OH223750   6.310   1.888   0.404
 7929TIP3    H123751   6.325   1.918   0.314
 7929TIP3    H223752   6.369   1.941   0.457
 7930TIP3   OH223753   3.557   3.642   3.862
 7930TIP3    H123754   3.615   3.569   3.883
 7930TIP3    H223755   3.508   3.612   3.785
 7931TIP3   OH223756   0.130   2.218   2.152
 7931TIP3    H123757   0.212   2.261   2.176
 7931TIP3    H223758   0.066   2.250   2.215
 7932TIP3   OH223759   4.843   2.722   3.095
 7932TIP3    H123760   4.834   2.627   3.084
 7932TIP3    H223761   4.816   2.759   3.011
 7933TIP3   OH223762   6.667   3.431   3.286
 7933TIP3    H123763   6.646   3.344   3.251
 7933TIP3    H223764   6.626   3.492   3.225
 7934TIP3   OH223765   4.021   6.028   5.447
 7934TIP3    H123766   3.926   6.043   5.440
 7934TIP3    H223767   4.046   5.999   5.359
 7935TIP3   OH223768   4.715   0.686   1.668
 7935TIP3    H123769   4.644   0.622   1.678
 7935TIP3    H223770   4.790   0.645   1.711
 7936TIP3   OH223771   2.009   1.743   5.429
 7936TIP3    H123772   2.045   1.664   5.388
 7936TIP3    H223773   1.993   1.803   5.357
 7937TIP3   OH223774   0.285   3.644   0.904
 7937TIP3    H123775   0.355   3.673   0.963
 7937TIP3    H223776   0.306   3.553   0.885
 7938TIP3   OH223777   6.961   6.134   2.245
 7938TIP3    H123778   7.019   6.124   2.321
 7938TIP3    H223779   7.012   6.186   2.183
 7939TIP3   OH223780   4.155   4.218   2.372
 7939TIP3    H123781   4.222   4.208   2.439
 7939TIP3    H223782   4.091   4.278   2.410
 7940TIP3   OH223783   4.842   4.555   1.462
 7940TIP3    H123784   4.765   4.603   1.430
 7940TIP3    H223785   4.816   4.525   1.549
 7941TIP3   OH223786   4.514   4.203   1.390
 7941TIP3    H123787   4.484   4.223   1.302
 7941TIP3    H223788   4.498   4.109   1.400
 7942TIP3   OH223789   5.141   3.733   1.133
 7942TIP3    H123790   5.089   3.704   1.208
 7942TIP3    H223791   5.160   3.653   1.084
 7943TIP3   OH223792   1.609   5.217   1.096
 7943TIP3    H123793   1.608   5.131   1.136
 7943TIP3    H223794   1.699   5.249   1.109
 7944TIP3   OH223795   3.247   6.752   2.050
 7944TIP3    H123796   3.291   6.783   2.129
 7944TIP3    H223797   3.242   6.657   2.061
 7945TIP3   OH223798   0.281   0.636   3.807
 7945TIP3    H123799   0.294   0.636   3.902
 7945TIP3    H223800   0.328   0.713   3.776
 7946TIP3   OH223801   3.973   4.729   2.202
 7946TIP3    H123802   3.987   4.809   2.152
 7946TIP3    H223803   3.885   4.738   2.237
 7947TIP3   OH223804   3.418   4.038   1.906
 7947TIP3    H123805   3.404   4.094   1.983
 7947TIP3    H223806   3.505   4.000   1.921
 7948TIP3   OH223807   7.079   5.631   5.768
 7948TIP3    H123808   7.072   5.680   5.686
 7948TIP3    H223809   7.040   5.546   5.749
 7949TIP3   OH223810   2.940   0.975   3.171
 7949TIP3    H123811   2.893   0.994   3.090
 7949TIP3    H223812   2.874   0.984   3.239
 7950TIP3   OH223813   5.071   2.500   2.473
 7950TIP3    H123814   5.072   2.500   2.378
 7950TIP3    H223815   4.981   2.521   2.497
 7951TIP3   OH223816   4.948   3.342   5.108
 7951TIP3    H123817   5.036   3.354   5.144
 7951TIP3    H223818   4.957   3.364   5.015
 7952TIP3   OH223819   1.186   5.340   3.663
 7952TIP3    H123820   1.268   5.336   3.713
 7952TIP3    H223821   1.128   5.277   3.707
 7953TIP3   OH223822   6.641   4.633   4.192
 7953TIP3    H123823   6.650   4.540   4.171
 7953TIP3    H223824   6.551   4.654   4.166
 7954TIP3   OH223825   2.931   0.812   3.844
 7954TIP3    H123826   2.927   0.776   3.932
 7954TIP3    H223827   2.963   0.739   3.790
 7955TIP3   OH223828   2.120   6.600   1.662
 7955TIP3    H123829   2.091   6.640   1.745
 7955TIP3    H223830   2.213   6.582   1.676
 7956TIP3   OH223831   6.477   3.169   2.127
 7956TIP3    H123832   6.416   3.150   2.198
 7956TIP3    H223833   6.514   3.254   2.149
 7957TIP3   OH223834   4.268   5.187   4.186
 7957TIP3    H123835   4.304   5.122   4.125
 7957TIP3    H223836   4.242   5.260   4.130
 7958TIP3   OH223837   6.781   5.666   0.767
 7958TIP3    H123838   6.728   5.733   0.724
 7958TIP3    H223839   6.723   5.589   0.771
 7959TIP3   OH223840   2.371   5.750   3.997
 7959TIP3    H123841   2.452   5.782   3.958
 7959TIP3    H223842   2.395   5.666   4.036
 7960TIP3   OH223843   3.840   3.372   1.190
 7960TIP3    H123844   3.841   3.325   1.273
 7960TIP3    H223845   3.881   3.311   1.128
 7961TIP3   OH223846   6.693   5.379   0.862
 7961TIP3    H123847   6.617   5.324   0.880
 7961TIP3    H223848   6.748   5.326   0.805
 7962TIP3   OH223849   1.706   5.559   5.736
 7962TIP3    H123850   1.682   5.575   5.827
 7962TIP3    H223851   1.658   5.626   5.687
 7963TIP3   OH223852   4.404   3.773   1.586
 7963TIP3    H123853   4.422   3.726   1.667
 7963TIP3    H223854   4.350   3.714   1.535
 7964TIP3   OH223855   0.845   2.495   0.775
 7964TIP3    H123856   0.865   2.570   0.720
 7964TIP3    H223857   0.820   2.533   0.860
 7965TIP3   OH223858   6.937   0.532   0.930
 7965TIP3    H123859   7.016   0.480   0.918
 7965TIP3    H223860   6.923   0.575   0.845
 7966TIP3   OH223861   2.156   6.136   5.658
 7966TIP3    H123862   2.201   6.203   5.710
 7966TIP3    H223863   2.063   6.158   5.666
 7967TIP3   OH223864   1.143   0.601   0.683
 7967TIP3    H123865   1.198   0.630   0.611
 7967TIP3    H223866   1.055   0.592   0.645
 7968TIP3   OH223867   3.894   1.922   0.406
 7968TIP3    H123868   3.987   1.923   0.381
 7968TIP3    H223869   3.894   1.899   0.499
 7969TIP3   OH223870   5.279   0.764   0.831
 7969TIP3    H123871   5.210   0.700   0.850
 7969TIP3    H223872   5.336   0.762   0.907
 7970TIP3   OH223873   1.916   0.847   4.723
 7970TIP3    H123874   1.983   0.910   4.697
 7970TIP3    H223875   1.964   0.765   4.734
 7971TIP3   OH223876   3.827   4.443   3.286
 7971TIP3    H123877   3.887   4.381   3.327
 7971TIP3    H223878   3.874   4.473   3.208
 7972TIP3   OH223879   4.722   0.489   3.338
 7972TIP3    H123880   4.673   0.518   3.261
 7972TIP3    H223881   4.714   0.394   3.338
 7973TIP3   OH223882   5.281   0.321   4.985
 7973TIP3    H123883   5.219   0.265   5.032
 7973TIP3    H223884   5.284   0.285   4.897
 7974TIP3   OH223885   2.291   4.595   0.808
 7974TIP3    H123886   2.274   4.629   0.720
 7974TIP3    H223887   2.216   4.625   0.859
 7975TIP3   OH223888   5.547   6.400   4.543
 7975TIP3    H123889   5.638   6.412   4.515
 7975TIP3    H223890   5.502   6.478   4.511
 7976TIP3   OH223891   4.292   3.457   5.900
 7976TIP3    H123892   4.324   3.492   5.817
 7976TIP3    H223893   4.280   3.364   5.884
 7977TIP3   OH223894   1.266   4.564   2.537
 7977TIP3    H123895   1.298   4.478   2.509
 7977TIP3    H223896   1.304   4.625   2.474
 7978TIP3   OH223897   0.837   2.746   3.561
 7978TIP3    H123898   0.869   2.728   3.473
 7978TIP3    H223899   0.824   2.659   3.600
 7979TIP3   OH223900   6.904   6.635   5.612
 7979TIP3    H123901   6.861   6.675   5.687
 7979TIP3    H223902   6.982   6.593   5.648
 7980TIP3   OH223903   3.858   1.933   0.125
 7980TIP3    H123904   3.783   1.873   0.129
 7980TIP3    H223905   3.886   1.941   0.216
 7981TIP3   OH223906   6.360   3.691   5.726
 7981TIP3    H123907   6.276   3.733   5.706
 7981TIP3    H223908   6.390   3.658   5.641
 7982TIP3   OH223909   5.471   0.316   0.939
 7982TIP3    H123910   5.554   0.284   0.904
 7982TIP3    H223911   5.427   0.357   0.865
 7983TIP3   OH223912   4.511   4.333   3.626
 7983TIP3    H123913   4.476   4.337   3.537
 7983TIP3    H223914   4.475   4.411   3.669
 7984TIP3   OH223915   2.857   4.384   5.267
 7984TIP3    H123916   2.766   4.381   5.238
 7984TIP3    H223917   2.895   4.458   5.221
 7985TIP3   OH223918   4.333   5.669   4.605
 7985TIP3    H123919   4.336   5.731   4.679
 7985TIP3    H223920   4.342   5.724   4.528
 7986TIP3   OH223921   0.943   0.371   3.314
 7986TIP3    H123922   0.852   0.378   3.345
 7986TIP3    H223923   0.946   0.289   3.266
 7987TIP3   OH223924   5.524   5.156   3.431
 7987TIP3    H123925   5.480   5.151   3.516
 7987TIP3    H223926   5.615   5.133   3.450
 7988TIP3   OH223927   1.659   6.387   3.173
 7988TIP3    H123928   1.619   6.433   3.247
 7988TIP3    H223929   1.737   6.439   3.152
 7989TIP3   OH223930   1.162   2.497   0.459
 7989TIP3    H123931   1.079   2.523   0.419
 7989TIP3    H223932   1.219   2.573   0.450
 7990TIP3   OH223933   2.839   0.682   4.893
 7990TIP3    H123934   2.894   0.761   4.892
 7990TIP3    H223935   2.901   0.610   4.901
 7991TIP3   OH223936   4.515   3.154   2.392
 7991TIP3    H123937   4.444   3.168   2.330
 7991TIP3    H223938   4.517   3.233   2.446
 7992TIP3   OH223939   5.161   6.002   3.197
 7992TIP3    H123940   5.216   6.068   3.239
 7992TIP3    H223941   5.076   6.045   3.187
 7993TIP3   OH223942  -0.012   2.527   3.061
 7993TIP3    H123943   0.073   2.503   3.024
 7993TIP3    H223944  -0.004   2.504   3.154
 7994TIP3   OH223945   3.258   5.682   4.016
 7994TIP3    H123946   3.183   5.672   3.957
 7994TIP3    H223947   3.328   5.716   3.961
 7995TIP3   OH223948   4.216   2.151   2.164
 7995TIP3    H123949   4.169   2.071   2.187
 7995TIP3    H223950   4.307   2.123   2.152
 7996TIP3   OH223951   4.026   1.288   2.463
 7996TIP3    H123952   4.073   1.300   2.380
 7996TIP3    H223953   3.935   1.310   2.443
 7997TIP3   OH223954   3.680   4.489   3.505
 7997TIP3    H123955   3.725   4.428   3.563
 7997TIP3    H223956   3.730   4.485   3.423
 7998TIP3   OH223957   3.437   1.465   3.230
 7998TIP3    H123958   3.404   1.385   3.271
 7998TIP3    H223959   3.502   1.498   3.292
 7999TIP3   OH223960   4.972   3.798   1.612
 7999TIP3    H123961   5.066   3.812   1.600
 7999TIP3    H223962   4.930   3.856   1.550
 8000TIP3   OH223963   5.775   4.615   0.217
 8000TIP3    H123964   5.711   4.683   0.192
 8000TIP3    H223965   5.860   4.658   0.206
 8001TIP3   OH223966   0.843   6.478   3.721
 8001TIP3    H123967   0.790   6.553   3.694
 8001TIP3    H223968   0.934   6.509   3.716
 8002TIP3   OH223969   4.332   4.855   3.340
 8002TIP3    H123970   4.376   4.914   3.402
 8002TIP3    H223971   4.266   4.909   3.297
 8003TIP3   OH223972   4.221   6.568   0.310
 8003TIP3    H123973   4.138   6.524   0.294
 8003TIP3    H223974   4.257   6.526   0.387
 8004TIP3   OH223975   7.140   4.759   2.627
 8004TIP3    H123976   7.109   4.846   2.652
 8004TIP3    H223977   7.207   4.774   2.561
 8005TIP3   OH223978   0.708   4.532   5.037
 8005TIP3    H123979   0.667   4.601   4.985
 8005TIP3    H223980   0.685   4.451   4.991
 8006TIP3   OH223981   7.173   2.740   3.745
 8006TIP3    H123982   7.256   2.785   3.729
 8006TIP3    H223983   7.107   2.795   3.702
 8007TIP3   OH223984   0.197   5.089   2.270
 8007TIP3    H123985   0.172   5.172   2.229
 8007TIP3    H223986   0.168   5.022   2.209
 8008TIP3   OH223987   5.485   2.641   5.355
 8008TIP3    H123988   5.490   2.736   5.346
 8008TIP3    H223989   5.404   2.626   5.404
 8009TIP3   OH223990   3.017   0.065   2.695
 8009TIP3    H123991   3.097   0.054   2.644
 8009TIP3    H223992   2.985   0.152   2.672
 8010TIP3   OH223993   5.073   5.736   3.345
 8010TIP3    H123994   5.128   5.810   3.320
 8010TIP3    H223995   5.092   5.669   3.279
 8011TIP3   OH223996   1.159   4.979   0.833
 8011TIP3    H123997   1.076   5.017   0.861
 8011TIP3    H223998   1.181   5.025   0.752
 8012TIP3   OH223999   1.842   1.396   1.047
 8012TIP3    H124000   1.749   1.412   1.029
 8012TIP3    H224001   1.886   1.476   1.018
 8013TIP3   OH224002   5.008   4.811   3.116
 8013TIP3    H124003   4.916   4.791   3.137
 8013TIP3    H224004   5.058   4.768   3.186
 8014TIP3   OH224005   2.591   4.115   3.801
 8014TIP3    H124006   2.642   4.034   3.808
 8014TIP3    H224007   2.508   4.087   3.762
 8015TIP3   OH224008   6.419   5.964   4.266
 8015TIP3    H124009   6.437   6.019   4.342
 8015TIP3    H224010   6.469   5.884   4.282
 8016TIP3   OH224011   6.756   3.722   3.206
 8016TIP3    H124012   6.816   3.774   3.152
 8016TIP3    H224013   6.669   3.743   3.171
 8017TIP3   OH224014   3.733   5.219   4.183
 8017TIP3    H124015   3.679   5.217   4.104
 8017TIP3    H224016   3.758   5.311   4.193
 8018TIP3   OH224017   0.461   3.472   4.415
 8018TIP3    H124018   0.540   3.523   4.396
 8018TIP3    H224019   0.413   3.470   4.332
 8019TIP3   OH224020   5.478   4.284   0.446
 8019TIP3    H124021   5.469   4.216   0.380
 8019TIP3    H224022   5.570   4.313   0.439
 8020TIP3   OH224023   4.418   0.326   0.431
 8020TIP3    H124024   4.377   0.330   0.345
 8020TIP3    H224025   4.444   0.417   0.449
 8021TIP3   OH224026   7.083   6.081   3.925
 8021TIP3    H124027   7.117   6.017   3.863
 8021TIP3    H224028   7.115   6.052   4.010
 8022TIP3   OH224029   4.343   4.375   0.247
 8022TIP3    H124030   4.357   4.443   0.313
 8022TIP3    H224031   4.303   4.302   0.295
 8023TIP3   OH224032   2.525   6.591   0.388
 8023TIP3    H124033   2.589   6.646   0.434
 8023TIP3    H224034   2.480   6.543   0.457
 8024TIP3   OH224035   6.940   6.465   2.265
 8024TIP3    H124036   6.904   6.414   2.192
 8024TIP3    H224037   7.004   6.523   2.224
 8025TIP3   OH224038   5.865   5.149   0.819
 8025TIP3    H124039   5.802   5.207   0.862
 8025TIP3    H224040   5.811   5.089   0.767
 8026TIP3   OH224041   2.887   1.909   2.957
 8026TIP3    H124042   2.892   2.002   2.935
 8026TIP3    H224043   2.969   1.891   3.002
 8027TIP3   OH224044   6.036   3.030   4.481
 8027TIP3    H124045   5.980   2.968   4.435
 8027TIP3    H224046   6.017   3.016   4.574
 8028TIP3   OH224047   2.990   3.369   5.636
 8028TIP3    H124048   2.981   3.441   5.698
 8028TIP3    H224049   2.992   3.291   5.692
 8029TIP3   OH224050   4.728   3.052   1.487
 8029TIP3    H124051   4.819   3.021   1.489
 8029TIP3    H224052   4.704   3.062   1.578
 8030TIP3   OH224053   5.168   2.236   5.519
 8030TIP3    H124054   5.087   2.262   5.475
 8030TIP3    H224055   5.204   2.317   5.554
 8031TIP3   OH224056   4.668   1.069   5.449
 8031TIP3    H124057   4.643   1.161   5.440
 8031TIP3    H224058   4.603   1.033   5.509
 8032TIP3   OH224059   2.507   2.685   3.567
 8032TIP3    H124060   2.560   2.697   3.489
 8032TIP3    H224061   2.550   2.738   3.634
 8033TIP3   OH224062   0.924   2.220   1.921
 8033TIP3    H124063   0.912   2.146   1.980
 8033TIP3    H224064   0.971   2.285   1.974
 8034TIP3   OH224065   5.477   1.383   4.505
 8034TIP3    H124066   5.435   1.297   4.511
 8034TIP3    H224067   5.568   1.366   4.530
 8035TIP3   OH224068   5.323   0.161   1.494
 8035TIP3    H124069   5.256   0.213   1.450
 8035TIP3    H224070   5.279   0.079   1.516
 8036TIP3   OH224071   3.768   1.326   2.425
 8036TIP3    H124072   3.743   1.338   2.517
 8036TIP3    H224073   3.711   1.386   2.377
 8037TIP3   OH224074   1.843   6.529   4.349
 8037TIP3    H124075   1.809   6.561   4.433
 8037TIP3    H224076   1.906   6.595   4.322
 8038TIP3   OH224077   4.853   3.204   1.119
 8038TIP3    H124078   4.787   3.202   1.188
 8038TIP3    H224079   4.932   3.168   1.161
 8039TIP3   OH224080   0.191   0.867   2.006
 8039TIP3    H124081   0.150   0.785   2.032
 8039TIP3    H224082   0.281   0.843   1.984
 8040TIP3   OH224083   6.909   4.167   3.863
 8040TIP3    H124084   6.979   4.103   3.855
 8040TIP3    H224085   6.888   4.191   3.773
 8041TIP3   OH224086   3.401   6.460   5.842
 8041TIP3    H124087   3.442   6.485   5.925
 8041TIP3    H224088   3.378   6.368   5.853
 8042TIP3   OH224089   3.364   4.382   3.075
 8042TIP3    H124090   3.344   4.475   3.073
 8042TIP3    H224091   3.349   4.352   2.985
 8043TIP3   OH224092   6.640   3.831   2.673
 8043TIP3    H124093   6.734   3.837   2.688
 8043TIP3    H224094   6.603   3.904   2.723
 8044TIP3   OH224095   1.201   0.598   2.925
 8044TIP3    H124096   1.219   0.682   2.967
 8044TIP3    H224097   1.186   0.619   2.833
 8045TIP3   OH224098   1.453   5.555   4.444
 8045TIP3    H124099   1.513   5.619   4.481
 8045TIP3    H224100   1.489   5.536   4.357
 8046TIP3   OH224101   3.633   1.532   4.481
 8046TIP3    H124102   3.548   1.552   4.440
 8046TIP3    H224103   3.669   1.617   4.504
 8047TIP3   OH224104   5.130   2.474   2.210
 8047TIP3    H124105   5.154   2.387   2.178
 8047TIP3    H224106   5.066   2.506   2.147
 8048TIP3   OH224107   5.644   5.878   5.088
 8048TIP3    H124108   5.693   5.903   5.167
 8048TIP3    H224109   5.609   5.960   5.054
 8049TIP3   OH224110   6.628   2.740   1.690
 8049TIP3    H124111   6.625   2.756   1.784
 8049TIP3    H224112   6.542   2.765   1.658
 8050TIP3   OH224113   4.868   1.547   0.689
 8050TIP3    H124114   4.777   1.543   0.661
 8050TIP3    H224115   4.886   1.640   0.701
 8051TIP3   OH224116   1.664   5.773   4.779
 8051TIP3    H124117   1.654   5.828   4.702
 8051TIP3    H224118   1.698   5.831   4.847
 8052TIP3   OH224119   5.549   2.074   4.085
 8052TIP3    H124120   5.583   2.051   4.172
 8052TIP3    H224121   5.489   2.147   4.102
 8053TIP3   OH224122   2.102   1.302   3.356
 8053TIP3    H124123   2.109   1.260   3.270
 8053TIP3    H224124   2.022   1.355   3.350
 8054TIP3   OH224125   6.966   5.712   4.093
 8054TIP3    H124126   6.876   5.686   4.075
 8054TIP3    H224127   7.018   5.661   4.031
 8055TIP3   OH224128   6.389   4.882   1.772
 8055TIP3    H124129   6.470   4.830   1.776
 8055TIP3    H224130   6.362   4.876   1.680
 8056TIP3   OH224131   1.716   3.919   3.150
 8056TIP3    H124132   1.754   3.873   3.225
 8056TIP3    H224133   1.639   3.868   3.128
 8057TIP3   OH224134   0.052   1.968   4.588
 8057TIP3    H124135   0.024   2.013   4.667
 8057TIP3    H224136   0.010   1.882   4.593
 8058TIP3   OH224137   1.170   1.028   3.504
 8058TIP3    H124138   1.263   1.043   3.487
 8058TIP3    H224139   1.125   1.063   3.428
 8059TIP3   OH224140   3.069   0.052   4.953
 8059TIP3    H124141   3.159   0.074   4.979
 8059TIP3    H224142   3.018   0.065   5.033
 8060TIP3   OH224143   0.944   2.701   0.616
 8060TIP3    H124144   1.025   2.708   0.667
 8060TIP3    H224145   0.958   2.757   0.540
 8061TIP3   OH224146   5.265   5.956   0.438
 8061TIP3    H124147   5.172   5.972   0.456
 8061TIP3    H224148   5.301   6.043   0.422
 8062TIP3   OH224149   2.362   0.833   3.572
 8062TIP3    H124150   2.330   0.884   3.497
 8062TIP3    H224151   2.437   0.883   3.604
 8063TIP3   OH224152   6.264   3.829   1.265
 8063TIP3    H124153   6.216   3.756   1.304
 8063TIP3    H224154   6.198   3.880   1.218
 8064TIP3   OH224155   2.649   3.707   3.208
 8064TIP3    H124156   2.711   3.641   3.239
 8064TIP3    H224157   2.573   3.656   3.178
 8065TIP3   OH224158   4.714   5.531   0.386
 8065TIP3    H124159   4.774   5.523   0.460
 8065TIP3    H224160   4.658   5.606   0.409
 8066TIP3   OH224161   3.311   4.661   3.059
 8066TIP3    H124162   3.343   4.751   3.052
 8066TIP3    H224163   3.221   4.670   3.090
 8067TIP3   OH224164   3.426   1.448   1.780
 8067TIP3    H124165   3.479   1.510   1.829
 8067TIP3    H224166   3.336   1.479   1.791
 8068TIP3   OH224167   4.084   0.214   0.470
 8068TIP3    H124168   4.139   0.142   0.502
 8068TIP3    H224169   3.998   0.174   0.455
 8069TIP3   OH224170   0.660   0.481   0.690
 8069TIP3    H124171   0.730   0.415   0.683
 8069TIP3    H224172   0.699   0.552   0.741
 8070TIP3   OH224173   1.367   6.223   5.158
 8070TIP3    H124174   1.278   6.214   5.190
 8070TIP3    H224175   1.383   6.143   5.108
 8071TIP3   OH224176   2.812   1.775   1.082
 8071TIP3    H124177   2.762   1.747   1.006
 8071TIP3    H224178   2.815   1.871   1.076
 8072TIP3   OH224179   6.876   0.591   4.963
 8072TIP3    H124180   6.846   0.682   4.958
 8072TIP3    H224181   6.822   0.545   4.899
 8073TIP3   OH224182   0.129   0.691   0.387
 8073TIP3    H124183   0.222   0.696   0.410
 8073TIP3    H224184   0.120   0.746   0.309
 8074TIP3   OH224185   3.565   4.584   5.315
 8074TIP3    H124186   3.514   4.554   5.239
 8074TIP3    H224187   3.641   4.627   5.277
 8075TIP3   OH224188   6.154   2.207   2.348
 8075TIP3    H124189   6.090   2.270   2.315
 8075TIP3    H224190   6.115   2.175   2.429
 8076TIP3   OH224191   4.415   3.203   0.488
 8076TIP3    H124192   4.322   3.211   0.509
 8076TIP3    H224193   4.436   3.111   0.505
 8077TIP3   OH224194   3.371   5.559   4.683
 8077TIP3    H124195   3.311   5.485   4.677
 8077TIP3    H224196   3.416   5.560   4.599
 8078TIP3   OH224197   2.455   2.164   2.476
 8078TIP3    H124198   2.386   2.161   2.409
 8078TIP3    H224199   2.520   2.102   2.445
 8079TIP3   OH224200   4.443   2.602   2.831
 8079TIP3    H124201   4.356   2.593   2.870
 8079TIP3    H224202   4.471   2.512   2.815
 8080TIP3   OH224203   0.959   1.124   4.550
 8080TIP3    H124204   0.985   1.042   4.593
 8080TIP3    H224205   0.951   1.100   4.458
 8081TIP3   OH224206   0.587   1.135   1.564
 8081TIP3    H124207   0.642   1.210   1.587
 8081TIP3    H224208   0.636   1.059   1.593
 8082TIP3   OH224209   7.105   3.987   1.457
 8082TIP3    H124210   7.189   4.024   1.482
 8082TIP3    H224211   7.062   3.965   1.540
 8083TIP3   OH224212   5.858   2.586   2.372
 8083TIP3    H124213   5.769   2.560   2.393
 8083TIP3    H224214   5.903   2.591   2.456
 8084TIP3   OH224215   4.882   4.434   5.549
 8084TIP3    H124216   4.928   4.366   5.598
 8084TIP3    H224217   4.789   4.421   5.570
 8085TIP3   OH224218   6.736   5.543   4.568
 8085TIP3    H124219   6.763   5.511   4.655
 8085TIP3    H224220   6.660   5.489   4.546
 8086TIP3   OH224221   0.981   5.934   2.339
 8086TIP3    H124222   1.026   5.926   2.423
 8086TIP3    H224223   0.891   5.957   2.363
 8087TIP3   OH224224   1.743   3.122   3.761
 8087TIP3    H124225   1.837   3.104   3.768
 8087TIP3    H224226   1.720   3.095   3.672
 8088TIP3   OH224227   4.096   4.297   3.844
 8088TIP3    H124228   4.079   4.258   3.759
 8088TIP3    H224229   4.042   4.246   3.905
 8089TIP3   OH224230   0.597   5.476   3.661
 8089TIP3    H124231   0.649   5.404   3.695
 8089TIP3    H224232   0.648   5.554   3.683
 8090TIP3   OH224233   1.907   1.056   2.187
 8090TIP3    H124234   1.815   1.078   2.198
 8090TIP3    H224235   1.923   0.986   2.250
 8091TIP3   OH224236   6.014   2.359   4.697
 8091TIP3    H124237   5.984   2.424   4.759
 8091TIP3    H224238   6.108   2.378   4.686
 8092TIP3   OH224239   5.542   6.727   3.616
 8092TIP3    H124240   5.452   6.701   3.592
 8092TIP3    H224241   5.584   6.745   3.532
 8093TIP3   OH224242   4.619   5.227   3.336
 8093TIP3    H124243   4.664   5.281   3.271
 8093TIP3    H224244   4.680   5.222   3.410
 8094TIP3   OH224245   6.226   3.973   0.411
 8094TIP3    H124246   6.187   4.025   0.340
 8094TIP3    H224247   6.167   3.987   0.486
 8095TIP3   OH224248   5.716   1.680   5.734
 8095TIP3    H124249   5.740   1.716   5.649
 8095TIP3    H224250   5.652   1.741   5.770
 8096TIP3   OH224251   1.432   6.582   3.109
 8096TIP3    H124252   1.494   6.509   3.106
 8096TIP3    H224253   1.447   6.629   3.027
 8097TIP3   OH224254   0.876   0.203   3.675
 8097TIP3    H124255   0.930   0.141   3.626
 8097TIP3    H224256   0.829   0.150   3.738
 8098TIP3   OH224257   4.198   5.347   3.089
 8098TIP3    H124258   4.134   5.394   3.036
 8098TIP3    H224259   4.207   5.262   3.045
 8099TIP3   OH224260   0.668   1.290   5.437
 8099TIP3    H124261   0.639   1.245   5.516
 8099TIP3    H224262   0.610   1.366   5.429
 8100TIP3   OH224263   6.116   0.528   4.121
 8100TIP3    H124264   6.041   0.551   4.177
 8100TIP3    H224265   6.149   0.612   4.089
 8101TIP3   OH224266   5.532   1.012   1.362
 8101TIP3    H124267   5.599   1.057   1.311
 8101TIP3    H224268   5.567   0.924   1.375
 8102TIP3   OH224269   5.794   6.211   0.507
 8102TIP3    H124270   5.715   6.258   0.533
 8102TIP3    H224271   5.860   6.278   0.496
 8103TIP3   OH224272   2.602   4.877   2.221
 8103TIP3    H124273   2.675   4.856   2.163
 8103TIP3    H224274   2.609   4.813   2.292
 8104TIP3   OH224275   4.039   2.337   4.575
 8104TIP3    H124276   4.050   2.388   4.495
 8104TIP3    H224277   3.955   2.366   4.611
 8105TIP3   OH224278   6.856   6.321   5.630
 8105TIP3    H124279   6.868   6.378   5.554
 8105TIP3    H224280   6.846   6.233   5.594
 8106TIP3   OH224281   4.988   2.248   3.710
 8106TIP3    H124282   4.983   2.203   3.626
 8106TIP3    H224283   5.080   2.245   3.734
 8107TIP3   OH224284   4.877   2.985   3.287
 8107TIP3    H124285   4.806   2.970   3.225
 8107TIP3    H224286   4.927   2.903   3.286
 8108TIP3   OH224287   5.520   5.503   5.782
 8108TIP3    H124288   5.441   5.558   5.785
 8108TIP3    H224289   5.487   5.414   5.793
 8109TIP3   OH224290   3.942   3.251   3.588
 8109TIP3    H124291   3.881   3.184   3.619
 8109TIP3    H224292   3.886   3.316   3.545
 8110TIP3   OH224293   2.488   3.350   1.723
 8110TIP3    H124294   2.396   3.327   1.734
 8110TIP3    H224295   2.511   3.398   1.803
 8111TIP3   OH224296   4.794   4.260   1.399
 8111TIP3    H124297   4.699   4.263   1.413
 8111TIP3    H224298   4.826   4.344   1.433
 8112TIP3   OH224299   0.165   5.554   0.438
 8112TIP3    H124300   0.147   5.480   0.496
 8112TIP3    H224301   0.251   5.534   0.400
 8113TIP3   OH224302   6.397   2.750   4.080
 8113TIP3    H124303   6.438   2.836   4.092
 8113TIP3    H224304   6.304   2.769   4.065
 8114TIP3   OH224305   1.653   5.240   4.243
 8114TIP3    H124306   1.681   5.287   4.321
 8114TIP3    H224307   1.734   5.208   4.203
 8115TIP3   OH224308   3.363   3.881   1.118
 8115TIP3    H124309   3.407   3.800   1.092
 8115TIP3    H224310   3.416   3.915   1.190
 8116TIP3   OH224311   4.874   6.473   4.152
 8116TIP3    H124312   4.802   6.508   4.205
 8116TIP3    H224313   4.923   6.551   4.124
 8117TIP3   OH224314   0.929   3.943   3.155
 8117TIP3    H124315   0.874   3.940   3.234
 8117TIP3    H224316   1.000   3.883   3.174
 8118TIP3   OH224317   4.290   3.256   2.235
 8118TIP3    H124318   4.199   3.248   2.208
 8118TIP3    H224319   4.323   3.331   2.186
 8119TIP3   OH224320   6.688   1.505   3.008
 8119TIP3    H124321   6.601   1.510   3.046
 8119TIP3    H224322   6.747   1.509   3.083
 8120TIP3   OH224323   6.706   0.787   0.502
 8120TIP3    H124324   6.749   0.848   0.561
 8120TIP3    H224325   6.647   0.736   0.559
 8121TIP3   OH224326   0.078   3.618   2.011
 8121TIP3    H124327   0.022   3.661   1.946
 8121TIP3    H224328   0.091   3.683   2.079
 8122TIP3   OH224329   1.180   4.889   1.902
 8122TIP3    H124330   1.235   4.939   1.842
 8122TIP3    H224331   1.092   4.925   1.890
 8123TIP3   OH224332   2.686   0.165   5.722
 8123TIP3    H124333   2.642   0.099   5.776
 8123TIP3    H224334   2.778   0.157   5.745
 8124TIP3   OH224335   4.268   0.378   1.045
 8124TIP3    H124336   4.273   0.348   0.954
 8124TIP3    H224337   4.354   0.358   1.082
 8125TIP3   OH224338   3.722   4.947   4.628
 8125TIP3    H124339   3.675   4.991   4.558
 8125TIP3    H224340   3.755   4.866   4.588
 8126TIP3   OH224341   4.677   1.006   2.348
 8126TIP3    H124342   4.767   0.997   2.319
 8126TIP3    H224343   4.682   1.010   2.443
 8127TIP3   OH224344   5.238   4.469   5.010
 8127TIP3    H124345   5.289   4.472   4.929
 8127TIP3    H224346   5.225   4.561   5.033
 8128TIP3   OH224347   3.412   0.932   4.524
 8128TIP3    H124348   3.497   0.896   4.550
 8128TIP3    H224349   3.422   1.027   4.532
 8129TIP3   OH224350   2.681   4.173   2.792
 8129TIP3    H124351   2.738   4.236   2.836
 8129TIP3    H224352   2.650   4.116   2.862
 8130TIP3   OH224353   3.429   6.564   0.337
 8130TIP3    H124354   3.356   6.551   0.398
 8130TIP3    H224355   3.457   6.654   0.353
 8131TIP3   OH224356   4.603   0.726   2.222
 8131TIP3    H124357   4.652   0.777   2.157
 8131TIP3    H224358   4.511   0.737   2.198
 8132TIP3   OH224359   0.641   5.108   2.309
 8132TIP3    H124360   0.667   5.192   2.270
 8132TIP3    H224361   0.590   5.065   2.240
 8133TIP3   OH224362   3.975   0.865   1.410
 8133TIP3    H124363   3.921   0.944   1.404
 8133TIP3    H224364   3.914   0.795   1.430
 8134TIP3   OH224365   0.236   4.645   5.182
 8134TIP3    H124366   0.278   4.559   5.191
 8134TIP3    H224367   0.308   4.707   5.178
 8135TIP3   OH224368   1.897   5.499   3.115
 8135TIP3    H124369   1.837   5.489   3.190
 8135TIP3    H224370   1.856   5.448   3.045
 8136TIP3   OH224371   5.028   6.389   2.920
 8136TIP3    H124372   4.981   6.335   2.856
 8136TIP3    H224373   4.958   6.431   2.971
 8137TIP3   OH224374   1.288   5.424   2.915
 8137TIP3    H124375   1.214   5.405   2.973
 8137TIP3    H224376   1.329   5.502   2.953
 8138TIP3   OH224377   1.327   1.542   4.370
 8138TIP3    H124378   1.317   1.460   4.418
 8138TIP3    H224379   1.416   1.570   4.390
 8139TIP3   OH224380   6.093   3.612   5.507
 8139TIP3    H124381   6.037   3.654   5.572
 8139TIP3    H224382   6.039   3.543   5.469
 8140TIP3   OH224383   5.880   1.204   3.521
 8140TIP3    H124384   5.877   1.258   3.441
 8140TIP3    H224385   5.789   1.180   3.537
 8141TIP3   OH224386   1.468   3.676   3.321
 8141TIP3    H124387   1.535   3.611   3.343
 8141TIP3    H224388   1.385   3.629   3.332
 8142TIP3   OH224389   2.785   5.158   4.536
 8142TIP3    H124390   2.809   5.067   4.551
 8142TIP3    H224391   2.762   5.191   4.623
 8143TIP3   OH224392   7.107   5.367   2.343
 8143TIP3    H124393   7.108   5.325   2.257
 8143TIP3    H224394   7.022   5.411   2.347
 8144TIP3   OH224395   0.983   5.652   1.522
 8144TIP3    H124396   0.919   5.601   1.472
 8144TIP3    H224397   1.061   5.596   1.524
 8145TIP3   OH224398   1.290   6.515   3.399
 8145TIP3    H124399   1.216   6.479   3.351
 8145TIP3    H224400   1.256   6.596   3.438
 8146TIP3   OH224401   6.887   4.885   0.939
 8146TIP3    H124402   6.961   4.840   0.899
 8146TIP3    H224403   6.824   4.815   0.958
 8147TIP3   OH224404   6.519   3.874   3.132
 8147TIP3    H124405   6.444   3.913   3.088
 8147TIP3    H224406   6.520   3.915   3.219
 8148TIP3   OH224407   2.450   2.451   2.263
 8148TIP3    H124408   2.483   2.514   2.199
 8148TIP3    H224409   2.481   2.366   2.231
 8149TIP3   OH224410   3.883   5.214   5.396
 8149TIP3    H124411   3.890   5.119   5.401
 8149TIP3    H224412   3.806   5.235   5.449
 8150TIP3   OH224413   1.708   3.978   2.043
 8150TIP3    H124414   1.694   4.022   1.959
 8150TIP3    H224415   1.803   3.982   2.057
 8151TIP3   OH224416   1.897   2.859   0.266
 8151TIP3    H124417   1.841   2.792   0.305
 8151TIP3    H224418   1.879   2.855   0.172
 8152TIP3   OH224419   4.553   2.610   2.143
 8152TIP3    H124420   4.492   2.580   2.075
 8152TIP3    H224421   4.536   2.552   2.218
 8153TIP3   OH224422   3.171   6.015   1.744
 8153TIP3    H124423   3.176   6.108   1.764
 8153TIP3    H224424   3.251   5.996   1.694
 8154TIP3   OH224425   6.013   1.106   2.946
 8154TIP3    H124426   6.107   1.092   2.935
 8154TIP3    H224427   5.973   1.065   2.869
 8155TIP3   OH224428   4.210   4.618   3.597
 8155TIP3    H124429   4.243   4.700   3.633
 8155TIP3    H224430   4.277   4.590   3.535
 8156TIP3   OH224431   0.054   1.793   3.851
 8156TIP3    H124432  -0.012   1.836   3.797
 8156TIP3    H224433   0.073   1.856   3.921
 8157TIP3   OH224434   4.110   1.176   0.718
 8157TIP3    H124435   4.068   1.185   0.633
 8157TIP3    H224436   4.039   1.189   0.781
 8158TIP3   OH224437   4.108   3.667   0.071
 8158TIP3    H124438   4.079   3.576   0.067
 8158TIP3    H224439   4.055   3.705   0.142
 8159TIP3   OH224440   2.942   5.316   3.733
 8159TIP3    H124441   2.981   5.232   3.712
 8159TIP3    H224442   2.935   5.362   3.649
 8160TIP3   OH224443   2.869   6.533   4.347
 8160TIP3    H124444   2.846   6.441   4.357
 8160TIP3    H224445   2.959   6.532   4.313
 8161TIP3   OH224446   5.015   3.712   3.713
 8161TIP3    H124447   4.996   3.637   3.768
 8161TIP3    H224448   5.038   3.782   3.774
 8162TIP3   OH224449   2.506   1.122   5.378
 8162TIP3    H124450   2.428   1.107   5.432
 8162TIP3    H224451   2.558   1.043   5.389
 8163TIP3   OH224452   0.149   2.320   5.753
 8163TIP3    H124453   0.240   2.333   5.726
 8163TIP3    H224454   0.155   2.270   5.835
 8164TIP3   OH224455   5.800   3.413   2.760
 8164TIP3    H124456   5.801   3.370   2.674
 8164TIP3    H224457   5.870   3.370   2.809
 8165TIP3   OH224458   3.279   4.799   5.698
 8165TIP3    H124459   3.325   4.790   5.782
 8165TIP3    H224460   3.345   4.779   5.632
 8166TIP3   OH224461   2.457   2.077   2.019
 8166TIP3    H124462   2.388   2.103   1.958
 8166TIP3    H224463   2.493   1.996   1.982
 8167TIP3   OH224464   0.907   0.887   5.826
 8167TIP3    H124465   0.965   0.933   5.766
 8167TIP3    H224466   0.861   0.957   5.874
 8168TIP3   OH224467   0.402   0.557   0.757
 8168TIP3    H124468   0.366   0.522   0.676
 8168TIP3    H224469   0.497   0.559   0.742
 8169TIP3   OH224470   2.303   3.584   2.242
 8169TIP3    H124471   2.252   3.578   2.162
 8169TIP3    H224472   2.381   3.633   2.218
 8170TIP3   OH224473   3.680   2.745   3.381
 8170TIP3    H124474   3.732   2.795   3.318
 8170TIP3    H224475   3.743   2.692   3.429
 8171TIP3   OH224476   6.886   2.733   2.197
 8171TIP3    H124477   6.841   2.672   2.256
 8171TIP3    H224478   6.861   2.820   2.229
 8172TIP3   OH224479   2.893   6.332   0.667
 8172TIP3    H124480   2.895   6.340   0.572
 8172TIP3    H224481   2.902   6.422   0.699
 8173TIP3   OH224482   2.130   6.208   1.858
 8173TIP3    H124483   2.203   6.190   1.799
 8173TIP3    H224484   2.171   6.214   1.945
 8174TIP3   OH224485   4.492   6.685   5.532
 8174TIP3    H124486   4.465   6.614   5.591
 8174TIP3    H224487   4.574   6.717   5.568
 8175TIP3   OH224488   4.096   2.709   0.206
 8175TIP3    H124489   4.128   2.628   0.166
 8175TIP3    H224490   4.066   2.762   0.132
 8176TIP3   OH224491   4.667   2.745   3.593
 8176TIP3    H124492   4.642   2.653   3.585
 8176TIP3    H224493   4.669   2.777   3.503
 8177TIP3   OH224494   4.497   2.911   0.395
 8177TIP3    H124495   4.489   2.982   0.331
 8177TIP3    H224496   4.408   2.877   0.404
 8178TIP3   OH224497   4.759   3.598   1.935
 8178TIP3    H124498   4.730   3.538   2.003
 8178TIP3    H224499   4.751   3.685   1.975
 8179TIP3   OH224500   1.714   1.939   3.412
 8179TIP3    H124501   1.624   1.946   3.379
 8179TIP3    H224502   1.763   2.003   3.360
 8180TIP3   OH224503   5.745   1.094   3.092
 8180TIP3    H124504   5.746   1.147   3.012
 8180TIP3    H224505   5.669   1.126   3.141
 8181TIP3   OH224506   2.334   0.167   0.130
 8181TIP3    H124507   2.279   0.244   0.145
 8181TIP3    H224508   2.339   0.159   0.035
 8182TIP3   OH224509   1.141   1.929   1.284
 8182TIP3    H124510   1.139   2.012   1.331
 8182TIP3    H224511   1.161   1.954   1.193
 8183TIP3   OH224512   0.376   6.518   4.302
 8183TIP3    H124513   0.292   6.492   4.341
 8183TIP3    H224514   0.366   6.496   4.209
 8184TIP3   OH224515   2.876   1.626   3.542
 8184TIP3    H124516   2.901   1.700   3.597
 8184TIP3    H224517   2.878   1.660   3.453
 8185TIP3   OH224518   2.529   0.150   4.976
 8185TIP3    H124519   2.549   0.146   4.882
 8185TIP3    H224520   2.520   0.243   4.995
 8186TIP3   OH224521   4.993   4.266   0.665
 8186TIP3    H124522   4.902   4.242   0.650
 8186TIP3    H224523   5.017   4.321   0.590
 8187TIP3   OH224524   1.230   6.103   1.429
 8187TIP3    H124525   1.142   6.138   1.445
 8187TIP3    H224526   1.218   6.008   1.431
 8188TIP3   OH224527   2.278   2.858   5.781
 8188TIP3    H124528   2.242   2.851   5.870
 8188TIP3    H224529   2.201   2.852   5.724
 8189TIP3   OH224530   7.045   6.357   5.822
 8189TIP3    H124531   7.083   6.428   5.772
 8189TIP3    H224532   6.975   6.323   5.766
 8190TIP3   OH224533   0.492   2.852   3.921
 8190TIP3    H124534   0.506   2.792   3.848
 8190TIP3    H224535   0.573   2.903   3.926
 8191TIP3   OH224536   5.400   2.125   0.766
 8191TIP3    H124537   5.350   2.136   0.686
 8191TIP3    H224538   5.432   2.213   0.787
 8192TIP3   OH224539   4.937   3.486   4.502
 8192TIP3    H124540   4.992   3.449   4.572
 8192TIP3    H224541   4.918   3.411   4.445
 8193TIP3   OH224542   4.471   0.964   4.349
 8193TIP3    H124543   4.456   0.975   4.255
 8193TIP3    H224544   4.390   0.994   4.390
 8194TIP3   OH224545   5.566   3.644   2.472
 8194TIP3    H124546   5.550   3.685   2.387
 8194TIP3    H224547   5.501   3.574   2.478
 8195TIP3   OH224548   6.759   1.786   0.602
 8195TIP3    H124549   6.733   1.698   0.628
 8195TIP3    H224550   6.812   1.818   0.675
 8196TIP3   OH224551   2.565   3.724   5.452
 8196TIP3    H124552   2.590   3.781   5.379
 8196TIP3    H224553   2.647   3.689   5.485
 8197TIP3   OH224554   3.184   1.293   4.265
 8197TIP3    H124555   3.225   1.224   4.213
 8197TIP3    H224556   3.187   1.260   4.355
 8198TIP3   OH224557   1.615   1.080   3.719
 8198TIP3    H124558   1.530   1.048   3.747
 8198TIP3    H224559   1.637   1.149   3.781
 8199TIP3   OH224560   7.096   2.011   3.422
 8199TIP3    H124561   7.017   2.003   3.369
 8199TIP3    H224562   7.110   2.106   3.431
 8200TIP3   OH224563   2.787   3.636   1.976
 8200TIP3    H124564   2.743   3.721   1.979
 8200TIP3    H224565   2.858   3.649   1.914
 8201TIP3   OH224566   1.527   3.509   5.729
 8201TIP3    H124567   1.543   3.500   5.635
 8201TIP3    H224568   1.454   3.449   5.746
 8202TIP3   OH224569   4.693   5.281   2.313
 8202TIP3    H124570   4.661   5.352   2.256
 8202TIP3    H224571   4.780   5.261   2.279
 8203TIP3   OH224572   2.286   6.363   0.221
 8203TIP3    H124573   2.232   6.340   0.145
 8203TIP3    H224574   2.311   6.278   0.258
 8204TIP3   OH224575   5.538   6.028   1.786
 8204TIP3    H124576   5.614   6.002   1.838
 8204TIP3    H224577   5.504   6.105   1.830
 8205TIP3   OH224578   0.914   6.434   0.658
 8205TIP3    H124579   0.994   6.381   0.663
 8205TIP3    H224580   0.889   6.432   0.566
 8206TIP3   OH224581   1.812   6.703   3.374
 8206TIP3    H124582   1.806   6.751   3.456
 8206TIP3    H224583   1.727   6.659   3.365
 8207TIP3   OH224584   1.533   5.738   5.636
 8207TIP3    H124585   1.437   5.739   5.625
 8207TIP3    H224586   1.562   5.821   5.599
 8208TIP3   OH224587   1.802   5.930   2.776
 8208TIP3    H124588   1.763   5.951   2.861
 8208TIP3    H224589   1.850   6.009   2.751
 8209TIP3   OH224590   1.045   5.817   4.935
 8209TIP3    H124591   1.119   5.840   4.879
 8209TIP3    H224592   1.077   5.742   4.986
 8210TIP3   OH224593   1.395   6.172   4.620
 8210TIP3    H124594   1.402   6.195   4.528
 8210TIP3    H224595   1.435   6.246   4.666
 8211TIP3   OH224596   6.970   2.967   0.848
 8211TIP3    H124597   6.888   2.918   0.857
 8211TIP3    H224598   7.036   2.900   0.829
 8212TIP3   OH224599   3.742   5.137   2.015
 8212TIP3    H124600   3.693   5.207   2.057
 8212TIP3    H224601   3.676   5.091   1.962
 8213TIP3   OH224602   2.171   0.208   5.517
 8213TIP3    H124603   2.196   0.292   5.478
 8213TIP3    H224604   2.253   0.158   5.521
 8214TIP3   OH224605   5.324   6.207   3.323
 8214TIP3    H124606   5.410   6.197   3.364
 8214TIP3    H224607   5.264   6.213   3.397
 8215TIP3   OH224608   3.061   3.101   0.746
 8215TIP3    H124609   3.060   3.006   0.753
 8215TIP3    H224610   3.119   3.119   0.672
 8216TIP3   OH224611   5.712   1.159   0.919
 8216TIP3    H124612   5.807   1.170   0.918
 8216TIP3    H224613   5.687   1.156   0.827
 8217TIP3   OH224614   4.089   1.657   1.434
 8217TIP3    H124615   4.152   1.600   1.390
 8217TIP3    H224616   4.007   1.609   1.434
 8218TIP3   OH224617   1.034   4.115   3.588
 8218TIP3    H124618   0.958   4.094   3.533
 8218TIP3    H224619   1.104   4.059   3.554
 8219TIP3   OH224620   1.603   3.682   1.713
 8219TIP3    H124621   1.584   3.606   1.769
 8219TIP3    H224622   1.530   3.742   1.729
 8220TIP3   OH224623   5.297   6.430   0.530
 8220TIP3    H124624   5.305   6.513   0.483
 8220TIP3    H224625   5.212   6.434   0.573
 8221TIP3   OH224626   0.672   3.094   4.987
 8221TIP3    H124627   0.679   3.120   5.079
 8221TIP3    H224628   0.757   3.055   4.967
 8222TIP3   OH224629   2.018   4.378   4.734
 8222TIP3    H124630   2.076   4.314   4.776
 8222TIP3    H224631   2.021   4.454   4.792
 8223TIP3   OH224632   5.972   5.143   3.781
 8223TIP3    H124633   6.040   5.190   3.733
 8223TIP3    H224634   6.007   5.054   3.790
 8224TIP3   OH224635   3.792   6.200   4.006
 8224TIP3    H124636   3.717   6.207   3.948
 8224TIP3    H224637   3.792   6.283   4.055
 8225TIP3   OH224638   2.609   6.072   0.670
 8225TIP3    H124639   2.588   5.982   0.693
 8225TIP3    H224640   2.691   6.091   0.717
 8226TIP3   OH224641   4.842   0.621   2.319
 8226TIP3    H124642   4.754   0.628   2.283
 8226TIP3    H224643   4.829   0.588   2.408
 8227TIP3   OH224644   6.089   1.916   2.718
 8227TIP3    H124645   6.160   1.867   2.677
 8227TIP3    H224646   6.100   1.900   2.812
 8228TIP3   OH224647   3.273   5.142   4.840
 8228TIP3    H124648   3.338   5.186   4.895
 8228TIP3    H224649   3.273   5.191   4.758
 8229TIP3   OH224650   4.320   6.022   0.177
 8229TIP3    H124651   4.235   6.066   0.174
 8229TIP3    H224652   4.317   5.962   0.103
 8230TIP3   OH224653   5.088   1.774   1.846
 8230TIP3    H124654   5.020   1.707   1.840
 8230TIP3    H224655   5.041   1.857   1.840
 8231TIP3   OH224656   4.659   4.769   0.299
 8231TIP3    H124657   4.672   4.720   0.218
 8231TIP3    H224658   4.565   4.767   0.314
 8232TIP3   OH224659   1.614   5.600   5.312
 8232TIP3    H124660   1.524   5.570   5.325
 8232TIP3    H224661   1.620   5.622   5.219
 8233TIP3   OH224662   4.697   4.227   0.740
 8233TIP3    H124663   4.708   4.240   0.646
 8233TIP3    H224664   4.630   4.290   0.766
 8234TIP3   OH224665   3.827   2.337   0.206
 8234TIP3    H124666   3.810   2.429   0.188
 8234TIP3    H224667   3.761   2.313   0.272
 8235TIP3   OH224668   2.853   5.693   4.452
 8235TIP3    H124669   2.923   5.630   4.439
 8235TIP3    H224670   2.799   5.655   4.522
 8236TIP3   OH224671   6.474   0.249   1.455
 8236TIP3    H124672   6.508   0.184   1.393
 8236TIP3    H224673   6.543   0.314   1.462
 8237TIP3   OH224674   5.320   4.984   5.221
 8237TIP3    H124675   5.238   5.024   5.251
 8237TIP3    H224676   5.379   4.989   5.296
 8238TIP3   OH224677   1.574   0.657   5.642
 8238TIP3    H124678   1.625   0.733   5.667
 8238TIP3    H224679   1.622   0.582   5.678
 8239TIP3   OH224680   1.896   1.072   3.136
 8239TIP3    H124681   1.822   1.072   3.075
 8239TIP3    H224682   1.856   1.092   3.221
 8240TIP3   OH224683   7.077   5.368   5.838
 8240TIP3    H124684   7.063   5.283   5.880
 8240TIP3    H224685   7.127   5.348   5.759
 8241TIP3   OH224686   2.084   2.990   1.453
 8241TIP3    H124687   2.066   2.922   1.388
 8241TIP3    H224688   2.012   3.052   1.444
 8242TIP3   OH224689   1.675   3.209   2.937
 8242TIP3    H124690   1.583   3.190   2.924
 8242TIP3    H224691   1.681   3.304   2.933
 8243TIP3   OH224692   6.409   5.265   2.338
 8243TIP3    H124693   6.375   5.176   2.340
 8243TIP3    H224694   6.419   5.285   2.245
 8244TIP3   OH224695   6.822   4.078   0.392
 8244TIP3    H124696   6.824   4.114   0.303
 8244TIP3    H224697   6.781   3.992   0.382
 8245TIP3   OH224698   4.888   1.334   1.751
 8245TIP3    H124699   4.809   1.337   1.697
 8245TIP3    H224700   4.959   1.326   1.687
 8246TIP3   OH224701   3.159   1.683   1.622
 8246TIP3    H124702   3.241   1.643   1.592
 8246TIP3    H224703   3.125   1.622   1.688
 8247TIP3   OH224704   2.322   5.725   1.442
 8247TIP3    H124705   2.376   5.773   1.505
 8247TIP3    H224706   2.232   5.746   1.467
 8248TIP3   OH224707   7.136   3.958   3.813
 8248TIP3    H124708   7.230   3.943   3.807
 8248TIP3    H224709   7.098   3.870   3.814
 8249TIP3   OH224710   7.056   0.305   4.759
 8249TIP3    H124711   7.104   0.234   4.802
 8249TIP3    H224712   7.124   0.368   4.735
 8250TIP3   OH224713   3.279   5.215   2.282
 8250TIP3    H124714   3.289   5.205   2.187
 8250TIP3    H224715   3.194   5.257   2.293
 8251TIP3   OH224716   5.277   6.228   2.111
 8251TIP3    H124717   5.300   6.137   2.129
 8251TIP3    H224718   5.310   6.277   2.186
 8252TIP3   OH224719   6.486   2.146   4.448
 8252TIP3    H124720   6.461   2.122   4.537
 8252TIP3    H224721   6.571   2.104   4.434
 8253TIP3   OH224722   4.107   2.529   1.115
 8253TIP3    H124723   4.137   2.550   1.026
 8253TIP3    H224724   4.120   2.434   1.122
 8254TIP3   OH224725   1.030   3.606   2.955
 8254TIP3    H124726   0.946   3.621   2.998
 8254TIP3    H224727   1.035   3.511   2.945
 8255TIP3   OH224728   2.865   0.427   0.743
 8255TIP3    H124729   2.940   0.411   0.686
 8255TIP3    H224730   2.900   0.422   0.832
 8256TIP3   OH224731   1.969   5.146   5.646
 8256TIP3    H124732   1.942   5.227   5.688
 8256TIP3    H224733   1.908   5.135   5.573
 8257TIP3   OH224734   2.597   0.536   2.804
 8257TIP3    H124735   2.649   0.600   2.853
 8257TIP3    H224736   2.651   0.514   2.728
 8258TIP3   OH224737   2.487   4.840   1.564
 8258TIP3    H124738   2.498   4.884   1.480
 8258TIP3    H224739   2.459   4.910   1.624
 8259TIP3   OH224740   0.185   2.224   5.425
 8259TIP3    H124741   0.187   2.147   5.482
 8259TIP3    H224742   0.276   2.253   5.422
 8260TIP3   OH224743   1.876   5.814   4.470
 8260TIP3    H124744   1.969   5.796   4.462
 8260TIP3    H224745   1.870   5.883   4.536
 8261TIP3   OH224746   5.063   2.340   4.498
 8261TIP3    H124747   5.158   2.346   4.486
 8261TIP3    H224748   5.048   2.248   4.522
 8262TIP3   OH224749   1.958   4.003   2.723
 8262TIP3    H124750   2.029   4.049   2.677
 8262TIP3    H224751   1.963   3.913   2.690
 8263TIP3   OH224752   4.078   2.398   2.176
 8263TIP3    H124753   4.125   2.314   2.172
 8263TIP3    H224754   4.141   2.458   2.215
 8264TIP3   OH224755   1.624   3.813   3.542
 8264TIP3    H124756   1.588   3.900   3.523
 8264TIP3    H224757   1.583   3.755   3.477
 8265TIP3   OH224758   2.280   0.022   1.377
 8265TIP3    H124759   2.314   0.046   1.291
 8265TIP3    H224760   2.248  -0.067   1.366
 8266TIP3   OH224761   0.810   0.627   4.220
 8266TIP3    H124762   0.818   0.710   4.266
 8266TIP3    H224763   0.893   0.616   4.174
 8267TIP3   OH224764   4.912   1.768   4.914
 8267TIP3    H124765   4.989   1.711   4.920
 8267TIP3    H224766   4.915   1.820   4.994
 8268TIP3   OH224767   3.338   1.514   1.165
 8268TIP3    H124768   3.394   1.585   1.136
 8268TIP3    H224769   3.252   1.535   1.129
 8269TIP3   OH224770   6.964   6.303   2.026
 8269TIP3    H124771   7.002   6.387   2.002
 8269TIP3    H224772   6.914   6.277   1.948
 8270TIP3   OH224773   1.874   0.205   0.842
 8270TIP3    H124774   1.849   0.114   0.853
 8270TIP3    H224775   1.924   0.226   0.921
 8271TIP3   OH224776   0.401   3.135   0.102
 8271TIP3    H124777   0.366   3.067   0.161
 8271TIP3    H224778   0.493   3.142   0.126
 8272TIP3   OH224779   3.495   1.394   2.319
 8272TIP3    H124780   3.442   1.368   2.244
 8272TIP3    H224781   3.447   1.360   2.395
 8273TIP3   OH224782   4.466   4.873   2.400
 8273TIP3    H124783   4.539   4.918   2.357
 8273TIP3    H224784   4.410   4.843   2.329
 8274TIP3   OH224785   4.544   0.098   2.877
 8274TIP3    H124786   4.563   0.108   2.784
 8274TIP3    H224787   4.630   0.096   2.919
 8275TIP3   OH224788   5.796   5.513   2.299
 8275TIP3    H124789   5.773   5.507   2.206
 8275TIP3    H224790   5.756   5.595   2.329
 8276TIP3   OH224791   0.184   2.803   4.082
 8276TIP3    H124792   0.180   2.885   4.131
 8276TIP3    H224793   0.266   2.808   4.033
 8277TIP3   OH224794   1.773   0.491   3.694
 8277TIP3    H124795   1.709   0.504   3.624
 8277TIP3    H224796   1.853   0.533   3.663
 8278TIP3   OH224797   5.796   2.297   1.975
 8278TIP3    H124798   5.767   2.262   1.891
 8278TIP3    H224799   5.845   2.376   1.953
 8279TIP3   OH224800   2.380   5.502   4.119
 8279TIP3    H124801   2.346   5.423   4.162
 8279TIP3    H224802   2.472   5.504   4.142
 8280TIP3   OH224803   0.114   6.415   4.301
 8280TIP3    H124804   0.127   6.378   4.214
 8280TIP3    H224805   0.025   6.388   4.325
 8281TIP3   OH224806   1.581   2.648   0.624
 8281TIP3    H124807   1.562   2.578   0.686
 8281TIP3    H224808   1.498   2.666   0.580
 8282TIP3   OH224809   4.966   4.179   2.100
 8282TIP3    H124810   5.001   4.262   2.068
 8282TIP3    H224811   4.949   4.128   2.020
 8283TIP3   OH224812   2.387   3.304   2.050
 8283TIP3    H124813   2.472   3.335   2.020
 8283TIP3    H224814   2.400   3.210   2.066
 8284TIP3   OH224815   1.679   1.273   3.952
 8284TIP3    H124816   1.649   1.310   3.868
 8284TIP3    H224817   1.623   1.316   4.017
 8285TIP3   OH224818   5.817   4.433   4.305
 8285TIP3    H124819   5.782   4.520   4.324
 8285TIP3    H224820   5.876   4.415   4.379
 8286TIP3   OH224821   6.670   0.882   0.990
 8286TIP3    H124822   6.765   0.890   0.987
 8286TIP3    H224823   6.653   0.788   0.982
 8287TIP3   OH224824   6.382   4.836   5.261
 8287TIP3    H124825   6.358   4.906   5.200
 8287TIP3    H224826   6.400   4.881   5.343
 8288TIP3   OH224827   3.219   0.124   4.717
 8288TIP3    H124828   3.196   0.032   4.710
 8288TIP3    H224829   3.162   0.158   4.786
 8289TIP3   OH224830   3.377   6.296   1.584
 8289TIP3    H124831   3.305   6.354   1.561
 8289TIP3    H224832   3.455   6.340   1.550
 8290TIP3   OH224833   5.319   0.748   1.292
 8290TIP3    H124834   5.332   0.690   1.366
 8290TIP3    H224835   5.246   0.805   1.318
 8291TIP3   OH224836   2.385   0.685   4.814
 8291TIP3    H124837   2.321   0.756   4.812
 8291TIP3    H224838   2.461   0.720   4.767
 8292TIP3   OH224839   0.289   5.605   5.526
 8292TIP3    H124840   0.376   5.567   5.530
 8292TIP3    H224841   0.294   5.684   5.579
 8293TIP3   OH224842   6.747   4.066   3.225
 8293TIP3    H124843   6.812   4.109   3.281
 8293TIP3    H224844   6.678   4.039   3.285
 8294TIP3   OH224845   0.794   3.839   1.559
 8294TIP3    H124846   0.744   3.842   1.478
 8294TIP3    H224847   0.728   3.830   1.628
 8295TIP3   OH224848   0.155   3.089   0.324
 8295TIP3    H124849   0.230   3.030   0.323
 8295TIP3    H224850   0.098   3.056   0.393
 8296TIP3   OH224851   5.435   0.409   3.224
 8296TIP3    H124852   5.476   0.483   3.178
 8296TIP3    H224853   5.464   0.418   3.314
 8297TIP3   OH224854   2.533   4.304   3.428
 8297TIP3    H124855   2.484   4.314   3.509
 8297TIP3    H224856   2.625   4.299   3.456
 8298TIP3   OH224857   4.752   2.440   1.263
 8298TIP3    H124858   4.746   2.377   1.335
 8298TIP3    H224859   4.662   2.467   1.247
 8299TIP3   OH224860   5.266   4.271   2.195
 8299TIP3    H124861   5.276   4.182   2.227
 8299TIP3    H224862   5.213   4.315   2.262
 8300TIP3   OH224863   5.987   0.832   0.505
 8300TIP3    H124864   5.999   0.774   0.580
 8300TIP3    H224865   5.894   0.826   0.484
 8301TIP3   OH224866   4.385   1.273   1.386
 8301TIP3    H124867   4.455   1.240   1.329
 8301TIP3    H224868   4.323   1.200   1.393
 8302TIP3   OH224869   2.735   2.465   1.022
 8302TIP3    H124870   2.750   2.397   0.956
 8302TIP3    H224871   2.657   2.512   0.991
 8303TIP3   OH224872   2.335   2.384   3.024
 8303TIP3    H124873   2.386   2.304   3.012
 8303TIP3    H224874   2.336   2.400   3.118
 8304TIP3   OH224875   5.645   1.949   1.342
 8304TIP3    H124876   5.631   2.032   1.387
 8304TIP3    H224877   5.574   1.893   1.374
 8305TIP3   OH224878   5.449   4.451   4.719
 8305TIP3    H124879   5.462   4.510   4.793
 8305TIP3    H224880   5.531   4.403   4.712
 8306TIP3   OH224881   1.821   4.197   3.183
 8306TIP3    H124882   1.865   4.188   3.099
 8306TIP3    H224883   1.762   4.121   3.188
 8307TIP3   OH224884   1.501   1.040   4.902
 8307TIP3    H124885   1.421   1.091   4.888
 8307TIP3    H224886   1.470   0.955   4.934
 8308TIP3   OH224887   1.895   1.524   2.391
 8308TIP3    H124888   1.928   1.496   2.306
 8308TIP3    H224889   1.956   1.591   2.420
 8309TIP3   OH224890   3.165   3.954   0.910
 8309TIP3    H124891   3.225   3.923   0.978
 8309TIP3    H224892   3.111   4.020   0.954
 8310TIP3   OH224893   5.057   3.495   5.865
 8310TIP3    H124894   4.977   3.540   5.839
 8310TIP3    H224895   5.127   3.559   5.849
 8311TIP3   OH224896   0.091   5.030   5.574
 8311TIP3    H124897   0.065   4.993   5.490
 8311TIP3    H224898   0.146   4.962   5.614
 8312TIP3   OH224899   4.629   5.332   0.982
 8312TIP3    H124900   4.544   5.377   0.984
 8312TIP3    H224901   4.692   5.400   1.005
 8313TIP3   OH224902   6.487   3.945   4.316
 8313TIP3    H124903   6.549   3.938   4.244
 8313TIP3    H224904   6.534   3.912   4.392
 8314TIP3   OH224905   5.125   4.966   2.076
 8314TIP3    H124906   5.091   5.035   2.019
 8314TIP3    H224907   5.136   4.890   2.018
 8315TIP3   OH224908   4.714   1.800   4.331
 8315TIP3    H124909   4.698   1.855   4.409
 8315TIP3    H224910   4.636   1.745   4.325
 8316TIP3   OH224911   5.447   4.356   5.187
 8316TIP3    H124912   5.463   4.440   5.229
 8316TIP3    H224913   5.372   4.371   5.130
 8317TIP3   OH224914   5.241   1.206   3.421
 8317TIP3    H124915   5.197   1.123   3.403
 8317TIP3    H224916   5.198   1.269   3.363
 8318TIP3   OH224917   0.773   2.807   0.216
 8318TIP3    H124918   0.682   2.806   0.246
 8318TIP3    H224919   0.814   2.879   0.265
 8319TIP3   OH224920   6.241   4.656   4.773
 8319TIP3    H124921   6.267   4.678   4.684
 8319TIP3    H224922   6.318   4.677   4.826
 8320TIP3   OH224923   3.093   5.537   4.957
 8320TIP3    H124924   3.038   5.513   4.882
 8320TIP3    H224925   3.038   5.596   5.009
 8321TIP3   OH224926   2.738   3.567   1.369
 8321TIP3    H124927   2.663   3.625   1.379
 8321TIP3    H224928   2.701   3.479   1.381
 8322TIP3   OH224929   2.239   1.273   5.678
 8322TIP3    H124930   2.235   1.366   5.653
 8322TIP3    H224931   2.171   1.231   5.626
 8323TIP3   OH224932   4.012   5.507   2.338
 8323TIP3    H124933   3.976   5.456   2.265
 8323TIP3    H224934   3.960   5.481   2.414
 8324TIP3   OH224935   1.578   0.271   4.096
 8324TIP3    H124936   1.570   0.297   4.004
 8324TIP3    H224937   1.670   0.249   4.107
 8325TIP3   OH224938   5.262   6.291   2.853
 8325TIP3    H124939   5.304   6.248   2.928
 8325TIP3    H224940   5.190   6.340   2.892
 8326TIP3   OH224941   1.689   6.185   4.456
 8326TIP3    H124942   1.676   6.206   4.364
 8326TIP3    H224943   1.656   6.261   4.503
 8327TIP3   OH224944   3.323   0.389   0.580
 8327TIP3    H124945   3.394   0.392   0.644
 8327TIP3    H224946   3.260   0.454   0.611
 8328TIP3   OH224947   2.562   0.736   1.908
 8328TIP3    H124948   2.584   0.764   1.997
 8328TIP3    H224949   2.509   0.807   1.873
 8329TIP3   OH224950   6.283   1.018   2.952
 8329TIP3    H124951   6.269   0.927   2.924
 8329TIP3    H224952   6.373   1.018   2.986
 8330TIP3   OH224953   2.159   4.883   0.178
 8330TIP3    H124954   2.213   4.959   0.202
 8330TIP3    H224955   2.210   4.807   0.206
 8331TIP3   OH224956   2.549   0.176   0.608
 8331TIP3    H124957   2.628   0.215   0.646
 8331TIP3    H224958   2.543   0.090   0.649
 8332TIP3   OH224959   1.404   6.324   2.404
 8332TIP3    H124960   1.472   6.391   2.398
 8332TIP3    H224961   1.344   6.356   2.472
 8333TIP3   OH224962   1.828   3.524   0.681
 8333TIP3    H124963   1.812   3.618   0.675
 8333TIP3    H224964   1.776   3.486   0.610
 8334TIP3   OH224965   4.537   2.472   3.947
 8334TIP3    H124966   4.615   2.525   3.935
 8334TIP3    H224967   4.487   2.483   3.866
 8335TIP3   OH224968   2.125   0.906   3.714
 8335TIP3    H124969   2.136   0.994   3.678
 8335TIP3    H224970   2.211   0.883   3.748
 8336TIP3   OH224971   1.547   4.805   3.456
 8336TIP3    H124972   1.457   4.812   3.488
 8336TIP3    H224973   1.599   4.788   3.534
 8337TIP3   OH224974   2.038   5.706   3.631
 8337TIP3    H124975   2.074   5.623   3.661
 8337TIP3    H224976   2.035   5.698   3.536
 8338TIP3   OH224977   5.346   1.546   0.724
 8338TIP3    H124978   5.307   1.474   0.773
 8338TIP3    H224979   5.314   1.625   0.768
 8339TIP3   OH224980   3.182   2.747   1.089
 8339TIP3    H124981   3.217   2.685   1.153
 8339TIP3    H224982   3.089   2.726   1.084
 8340TIP3   OH224983   0.233   2.773   3.628
 8340TIP3    H124984   0.202   2.859   3.601
 8340TIP3    H224985   0.325   2.787   3.651
 8341TIP3   OH224986   3.571   3.134   2.028
 8341TIP3    H124987   3.478   3.112   2.025
 8341TIP3    H224988   3.601   3.123   1.938
 8342TIP3   OH224989   4.540   0.942   1.885
 8342TIP3    H124990   4.625   0.932   1.842
 8342TIP3    H224991   4.558   1.000   1.959
 8343TIP3   OH224992   6.303   6.186   2.423
 8343TIP3    H124993   6.355   6.261   2.395
 8343TIP3    H224994   6.287   6.137   2.342
 8344TIP3   OH224995   1.022   2.800   5.707
 8344TIP3    H124996   1.076   2.828   5.780
 8344TIP3    H224997   0.932   2.821   5.734
 8345TIP3   OH224998   2.504   5.860   5.439
 8345TIP3    H124999   2.462   5.773   5.439
 8345TIP3    H225000   2.432   5.921   5.455
 8346TIP3   OH225001   2.838   5.559   5.629
 8346TIP3    H125002   2.921   5.563   5.676
 8346TIP3    H225003   2.781   5.507   5.685
 8347TIP3   OH225004   1.999   1.937   5.241
 8347TIP3    H125005   2.025   1.933   5.149
 8347TIP3    H225006   2.011   2.029   5.265
 8348TIP3   OH225007   6.698   2.186   3.838
 8348TIP3    H125008   6.733   2.166   3.925
 8348TIP3    H225009   6.764   2.243   3.799
 8349TIP3   OH225010   4.300   0.726   0.428
 8349TIP3    H125011   4.318   0.709   0.335
 8349TIP3    H225012   4.205   0.716   0.436
 8350TIP3   OH225013   5.108   1.810   3.536
 8350TIP3    H125014   5.199   1.814   3.506
 8350TIP3    H225015   5.114   1.772   3.624
 8351TIP3   OH225016   7.074   2.332   2.677
 8351TIP3    H125017   7.042   2.395   2.742
 8351TIP3    H225018   7.035   2.249   2.703
 8352TIP3   OH225019   5.882   5.891   4.302
 8352TIP3    H125020   5.830   5.944   4.242
 8352TIP3    H225021   5.973   5.915   4.283
 8353TIP3   OH225022   5.268   3.758   0.125
 8353TIP3    H125023   5.176   3.777   0.102
 8353TIP3    H225024   5.318   3.805   0.058
 8354TIP3   OH225025   3.149   0.262   5.284
 8354TIP3    H125026   3.093   0.185   5.291
 8354TIP3    H225027   3.220   0.235   5.226
 8355TIP3   OH225028   6.162   2.557   2.313
 8355TIP3    H125029   6.129   2.623   2.374
 8355TIP3    H225030   6.186   2.607   2.235
 8356TIP3   OH225031   4.065   5.441   1.682
 8356TIP3    H125032   3.974   5.451   1.656
 8356TIP3    H225033   4.063   5.443   1.778
 8357TIP3   OH225034   0.308   4.275   1.733
 8357TIP3    H125035   0.258   4.279   1.815
 8357TIP3    H225036   0.363   4.197   1.743
 8358TIP3   OH225037   4.271   1.407   4.695
 8358TIP3    H125038   4.363   1.379   4.692
 8358TIP3    H225039   4.268   1.481   4.634
 8359TIP3   OH225040   1.011   1.541   4.520
 8359TIP3    H125041   0.938   1.500   4.565
 8359TIP3    H225042   1.079   1.473   4.517
 8360TIP3   OH225043   1.124   0.825   4.670
 8360TIP3    H125044   1.083   0.741   4.652
 8360TIP3    H225045   1.139   0.824   4.765
 8361TIP3   OH225046   4.233   5.799   1.613
 8361TIP3    H125047   4.251   5.885   1.576
 8361TIP3    H225048   4.141   5.802   1.638
 8362TIP3   OH225049   1.209   0.256   4.902
 8362TIP3    H125050   1.284   0.210   4.938
 8362TIP3    H225051   1.246   0.329   4.853
 8363TIP3   OH225052   1.351   3.805   2.325
 8363TIP3    H125053   1.324   3.740   2.390
 8363TIP3    H225054   1.372   3.883   2.376
 8364TIP3   OH225055   5.040   3.387   4.857
 8364TIP3    H125056   5.100   3.454   4.823
 8364TIP3    H225057   5.039   3.319   4.790
 8365TIP3   OH225058   0.949   4.403   0.436
 8365TIP3    H125059   0.911   4.477   0.390
 8365TIP3    H225060   0.895   4.394   0.515
 8366TIP3   OH225061   5.879   2.710   2.129
 8366TIP3    H125062   5.862   2.665   2.212
 8366TIP3    H225063   5.899   2.800   2.155
 8367TIP3   OH225064   5.016   2.555   0.287
 8367TIP3    H125065   5.073   2.581   0.359
 8367TIP3    H225066   4.929   2.548   0.326
 8368TIP3   OH225067   6.441   5.315   2.005
 8368TIP3    H125068   6.365   5.262   1.982
 8368TIP3    H225069   6.499   5.254   2.050
 8369TIP3   OH225070   4.140   4.155   5.074
 8369TIP3    H125071   4.199   4.219   5.115
 8369TIP3    H225072   4.054   4.174   5.112
 8370TIP3   OH225073   4.091   0.925   0.639
 8370TIP3    H125074   4.098   1.020   0.649
 8370TIP3    H225075   4.170   0.890   0.680
 8371TIP3   OH225076   3.262   5.273   4.572
 8371TIP3    H125077   3.337   5.256   4.515
 8371TIP3    H225078   3.188   5.284   4.512
 8372TIP3   OH225079   0.736   0.440   2.965
 8372TIP3    H125080   0.668   0.452   3.031
 8372TIP3    H225081   0.806   0.500   2.990
 8373TIP3   OH225082   5.279   1.713   5.812
 8373TIP3    H125083   5.206   1.752   5.860
 8373TIP3    H225084   5.240   1.679   5.732
 8374TIP3   OH225085   3.989   2.429   5.315
 8374TIP3    H125086   4.034   2.448   5.232
 8374TIP3    H225087   4.003   2.507   5.368
 8375TIP3   OH225088   4.391   2.354   5.873
 8375TIP3    H125089   4.382   2.445   5.845
 8375TIP3    H225090   4.311   2.311   5.841
 8376TIP3   OH225091   0.436   0.743   2.293
 8376TIP3    H125092   0.470   0.764   2.206
 8376TIP3    H225093   0.409   0.651   2.287
 8377TIP3   OH225094   1.779   4.994   2.373
 8377TIP3    H125095   1.866   5.013   2.338
 8377TIP3    H225096   1.755   5.074   2.420
 8378TIP3   OH225097   1.202   3.564   3.377
 8378TIP3    H125098   1.167   3.479   3.353
 8378TIP3    H225099   1.189   3.571   3.471
 8379TIP3   OH225100   4.095   1.354   3.632
 8379TIP3    H125101   4.081   1.448   3.640
 8379TIP3    H225102   4.185   1.341   3.662
 8380TIP3   OH225103   0.317   1.378   5.678
 8380TIP3    H125104   0.323   1.470   5.652
 8380TIP3    H225105   0.404   1.342   5.660
 8381TIP3   OH225106   7.060   1.357   2.961
 8381TIP3    H125107   6.995   1.372   3.030
 8381TIP3    H225108   7.023   1.399   2.884
 8382TIP3   OH225109   3.138   1.081   1.976
 8382TIP3    H125110   3.124   1.146   1.907
 8382TIP3    H225111   3.076   1.011   1.957
 8383TIP3   OH225112   2.938   3.949   3.173
 8383TIP3    H125113   2.996   3.995   3.234
 8383TIP3    H225114   2.852   3.987   3.188
 8384TIP3   OH225115   3.036   6.137   3.158
 8384TIP3    H125116   3.125   6.146   3.193
 8384TIP3    H225117   2.994   6.221   3.176
 8385TIP3   OH225118   5.971   6.656   1.467
 8385TIP3    H125119   5.917   6.730   1.441
 8385TIP3    H225120   6.060   6.691   1.472
 8386TIP3   OH225121   4.749   1.733   3.957
 8386TIP3    H125122   4.821   1.797   3.953
 8386TIP3    H225123   4.680   1.778   4.005
 8387TIP3   OH225124   2.341   0.074   2.417
 8387TIP3    H125125   2.323   0.140   2.349
 8387TIP3    H225126   2.375   0.124   2.491
 8388TIP3   OH225127   2.726   3.508   0.529
 8388TIP3    H125128   2.668   3.565   0.580
 8388TIP3    H225129   2.682   3.497   0.445
 8389TIP3   OH225130   2.362   6.014   5.843
 8389TIP3    H125131   2.391   6.104   5.850
 8389TIP3    H225132   2.282   6.018   5.790
 8390TIP3   OH225133   3.828   5.431   4.444
 8390TIP3    H125134   3.894   5.420   4.376
 8390TIP3    H225135   3.863   5.383   4.520
 8391TIP3   OH225136   1.297   0.535   4.015
 8391TIP3    H125137   1.281   0.461   3.958
 8391TIP3    H225138   1.364   0.587   3.970
 8392TIP3   OH225139   5.637   3.699   5.027
 8392TIP3    H125140   5.654   3.754   5.103
 8392TIP3    H225141   5.719   3.699   4.978
 8393TIP3   OH225142   0.078   5.591   0.772
 8393TIP3    H125143   0.124   5.643   0.838
 8393TIP3    H225144   0.147   5.544   0.725
 8394TIP3   OH225145   3.813   6.225   5.476
 8394TIP3    H125146   3.760   6.256   5.403
 8394TIP3    H225147   3.750   6.211   5.547
 8395TIP3   OH225148   5.830   4.104   5.096
 8395TIP3    H125149   5.743   4.108   5.057
 8395TIP3    H225150   5.882   4.166   5.044
 8396TIP3   OH225151   2.573   3.165   2.884
 8396TIP3    H125152   2.614   3.230   2.826
 8396TIP3    H225153   2.488   3.202   2.905
 8397TIP3   OH225154   0.941   2.675   3.320
 8397TIP3    H125155   0.954   2.759   3.277
 8397TIP3    H225156   0.987   2.612   3.265
 8398TIP3   OH225157   6.554   1.486   4.625
 8398TIP3    H125158   6.638   1.443   4.608
 8398TIP3    H225159   6.548   1.555   4.559
 8399TIP3   OH225160   4.038   3.071   0.029
 8399TIP3    H125161   4.016   3.137  -0.037
 8399TIP3    H225162   4.133   3.065   0.026
 8400TIP3   OH225163   2.244   0.431   0.043
 8400TIP3    H125164   2.333   0.456   0.068
 8400TIP3    H225165   2.194   0.512   0.052
 8401TIP3   OH225166   5.641   1.111   3.648
 8401TIP3    H125167   5.627   1.104   3.742
 8401TIP3    H225168   5.685   1.029   3.625
 8402TIP3   OH225169   6.730   4.505   4.553
 8402TIP3    H125170   6.818   4.499   4.589
 8402TIP3    H225171   6.730   4.446   4.478
 8403TIP3   OH225172   6.600   2.723   5.771
 8403TIP3    H125173   6.672   2.693   5.826
 8403TIP3    H225174   6.590   2.815   5.793
 8404TIP3   OH225175   5.628   2.516   3.100
 8404TIP3    H125176   5.668   2.542   3.183
 8404TIP3    H225177   5.535   2.536   3.111
 8405TIP3   OH225178   1.439   0.673   3.587
 8405TIP3    H125179   1.401   0.686   3.500
 8405TIP3    H225180   1.380   0.720   3.646
 8406TIP3   OH225181   2.743   6.680   1.955
 8406TIP3    H125182   2.677   6.670   1.886
 8406TIP3    H225183   2.807   6.611   1.937
 8407TIP3   OH225184   6.495   2.538   5.285
 8407TIP3    H125185   6.471   2.465   5.343
 8407TIP3    H225186   6.414   2.560   5.240
 8408TIP3   OH225187   2.757   1.953   0.098
 8408TIP3    H125188   2.662   1.966   0.092
 8408TIP3    H225189   2.786   2.018   0.162
 8409TIP3   OH225190   2.157   1.542   5.327
 8409TIP3    H125191   2.217   1.612   5.302
 8409TIP3    H225192   2.213   1.468   5.347
 8410TIP3   OH225193   3.347   4.732   0.936
 8410TIP3    H125194   3.417   4.685   0.980
 8410TIP3    H225195   3.304   4.781   1.006
 8411TIP3   OH225196   6.447   5.875   1.479
 8411TIP3    H125197   6.525   5.845   1.525
 8411TIP3    H225198   6.425   5.958   1.522
 8412TIP3   OH225199   1.599   1.470   1.364
 8412TIP3    H125200   1.693   1.457   1.371
 8412TIP3    H225201   1.588   1.560   1.334
 8413TIP3   OH225202   1.559   2.301   0.364
 8413TIP3    H125203   1.470   2.321   0.335
 8413TIP3    H225204   1.553   2.213   0.402
 8414TIP3   OH225205   3.743   5.749   2.415
 8414TIP3    H125206   3.758   5.720   2.505
 8414TIP3    H225207   3.787   5.834   2.410
 8415TIP3   OH225208   4.632   3.189   1.269
 8415TIP3    H125209   4.541   3.207   1.291
 8415TIP3    H225210   4.666   3.141   1.345
 8416TIP3   OH225211   2.249   0.503   2.616
 8416TIP3    H125212   2.293   0.579   2.654
 8416TIP3    H225213   2.182   0.540   2.559
 8417TIP3   OH225214   3.207   5.082   5.174
 8417TIP3    H125215   3.156   5.046   5.102
 8417TIP3    H225216   3.288   5.032   5.174
 8418TIP3   OH225217   0.381   1.378   0.764
 8418TIP3    H125218   0.380   1.433   0.686
 8418TIP3    H225219   0.364   1.290   0.732
 8419TIP3   OH225220   1.394   6.575   2.762
 8419TIP3    H125221   1.347   6.658   2.762
 8419TIP3    H225222   1.401   6.552   2.669
 8420TIP3   OH225223   2.525   0.131   4.190
 8420TIP3    H125224   2.603   0.088   4.226
 8420TIP3    H225225   2.521   0.215   4.236
 8421TIP3   OH225226   3.909   1.476   4.559
 8421TIP3    H125227   3.817   1.500   4.544
 8421TIP3    H225228   3.959   1.549   4.524
 8422TIP3   OH225229   2.438   2.860   1.101
 8422TIP3    H125230   2.366   2.894   1.048
 8422TIP3    H225231   2.402   2.850   1.189
 8423TIP3   OH225232   2.427   3.886   5.679
 8423TIP3    H125233   2.469   3.840   5.606
 8423TIP3    H225234   2.498   3.937   5.719
 8424TIP3   OH225235   5.809   4.532   0.874
 8424TIP3    H125236   5.723   4.550   0.912
 8424TIP3    H225237   5.805   4.439   0.850
 8425TIP3   OH225238   4.037   2.495   5.652
 8425TIP3    H125239   3.949   2.457   5.656
 8425TIP3    H225240   4.095   2.424   5.680
 8426TIP3   OH225241   3.882   1.922   1.678
 8426TIP3    H125242   3.838   1.839   1.701
 8426TIP3    H225243   3.841   1.987   1.736
 8427TIP3   OH225244   1.323   5.067   4.100
 8427TIP3    H125245   1.284   5.150   4.071
 8427TIP3    H225246   1.404   5.060   4.050
 8428TIP3   OH225247   0.529   5.993   1.100
 8428TIP3    H125248   0.546   5.955   1.187
 8428TIP3    H225249   0.561   6.083   1.107
 8429TIP3   OH225250   1.800   6.574   0.977
 8429TIP3    H125251   1.882   6.568   1.027
 8429TIP3    H225252   1.824   6.544   0.889
 8430TIP3   OH225253   3.984   4.837   1.611
 8430TIP3    H125254   4.063   4.889   1.596
 8430TIP3    H225255   3.919   4.902   1.640
 8431TIP3   OH225256   4.395   5.297   0.772
 8431TIP3    H125257   4.403   5.207   0.805
 8431TIP3    H225258   4.436   5.294   0.685
 8432TIP3   OH225259   1.871   2.670   0.672
 8432TIP3    H125260   1.777   2.661   0.689
 8432TIP3    H225261   1.878   2.670   0.577
 8433TIP3   OH225262   4.765   6.280   3.091
 8433TIP3    H125263   4.670   6.267   3.087
 8433TIP3    H225264   4.788   6.316   3.005
 8434TIP3   OH225265   5.343   1.941   2.659
 8434TIP3    H125266   5.254   1.910   2.641
 8434TIP3    H225267   5.400   1.878   2.616
 8435TIP3   OH225268   3.220   5.675   3.016
 8435TIP3    H125269   3.306   5.682   2.976
 8435TIP3    H225270   3.231   5.713   3.103
 8436TIP3   OH225271   4.438   1.324   3.417
 8436TIP3    H125272   4.402   1.241   3.448
 8436TIP3    H225273   4.480   1.362   3.494
 8437TIP3   OH225274   6.122   3.104   0.410
 8437TIP3    H125275   6.030   3.102   0.384
 8437TIP3    H225276   6.132   3.032   0.472
 8438TIP3   OH225277   2.135   4.455   2.772
 8438TIP3    H125278   2.186   4.527   2.809
 8438TIP3    H225279   2.167   4.446   2.683
 8439TIP3   OH225280   4.324   1.369   0.641
 8439TIP3    H125281   4.251   1.405   0.590
 8439TIP3    H225282   4.365   1.446   0.681
 8440TIP3   OH225283   1.714   6.373   4.166
 8440TIP3    H125284   1.776   6.432   4.210
 8440TIP3    H225285   1.628   6.402   4.196
 8441TIP3   OH225286   6.378   1.787   4.861
 8441TIP3    H125287   6.370   1.867   4.912
 8441TIP3    H225288   6.470   1.761   4.869
 8442TIP3   OH225289   3.064   4.006   5.843
 8442TIP3    H125290   3.109   4.041   5.766
 8442TIP3    H225291   3.018   3.928   5.811
 8443TIP3   OH225292   5.537   4.565   3.638
 8443TIP3    H125293   5.579   4.484   3.608
 8443TIP3    H225294   5.598   4.602   3.702
 8444TIP3   OH225295   2.231   3.576   4.040
 8444TIP3    H125296   2.137   3.573   4.055
 8444TIP3    H225297   2.240   3.561   3.945
 8445TIP3   OH225298   3.397   4.568   3.364
 8445TIP3    H125299   3.382   4.475   3.380
 8445TIP3    H225300   3.372   4.581   3.273
 8446TIP3   OH225301   1.084   6.106   5.883
 8446TIP3    H125302   1.035   6.060   5.815
 8446TIP3    H225303   1.040   6.191   5.890
 8447TIP3   OH225304   3.291   2.040   3.016
 8447TIP3    H125305   3.236   1.965   3.040
 8447TIP3    H225306   3.355   2.046   3.088
 8448TIP3   OH225307   6.225   3.614   3.556
 8448TIP3    H125308   6.155   3.680   3.557
 8448TIP3    H225309   6.288   3.646   3.620
 8449TIP3   OH225310   3.653   1.184   1.983
 8449TIP3    H125311   3.570   1.200   2.029
 8449TIP3    H225312   3.720   1.189   2.051
 8450TIP3   OH225313   1.331   0.781   5.311
 8450TIP3    H125314   1.367   0.841   5.377
 8450TIP3    H225315   1.358   0.694   5.340
 8451TIP3   OH225316   3.657   2.939   5.625
 8451TIP3    H125317   3.705   2.861   5.597
 8451TIP3    H225318   3.675   3.004   5.557
 8452TIP3   OH225319   5.080   2.248   1.908
 8452TIP3    H125320   5.020   2.181   1.875
 8452TIP3    H225321   5.128   2.205   1.979
 8453TIP3   OH225322   6.527   6.788   1.677
 8453TIP3    H125323   6.464   6.791   1.749
 8453TIP3    H225324   6.612   6.800   1.718
 8454TIP3   OH225325   3.473   2.747   2.159
 8454TIP3    H125326   3.441   2.763   2.248
 8454TIP3    H225327   3.519   2.663   2.165
 8455TIP3   OH225328   3.182   6.792   0.042
 8455TIP3    H125329   3.240   6.732   0.089
 8455TIP3    H225330   3.222   6.802  -0.044
 8456TIP3   OH225331   5.356   2.629   0.219
 8456TIP3    H125332   5.356   2.657   0.311
 8456TIP3    H225333   5.401   2.545   0.219
 8457TIP3   OH225334   4.523   2.499   5.502
 8457TIP3    H125335   4.427   2.498   5.504
 8457TIP3    H225336   4.547   2.582   5.543
 8458TIP3   OH225337   4.413   3.499   2.039
 8458TIP3    H125338   4.321   3.474   2.030
 8458TIP3    H225339   4.411   3.590   2.068
 8459TIP3   OH225340   2.749   1.359   4.811
 8459TIP3    H125341   2.763   1.305   4.733
 8459TIP3    H225342   2.687   1.426   4.783
 8460TIP3   OH225343   6.114   2.372   3.575
 8460TIP3    H125344   6.134   2.372   3.669
 8460TIP3    H225345   6.163   2.298   3.540
 8461TIP3   OH225346   2.576   5.352   1.786
 8461TIP3    H125347   2.496   5.333   1.736
 8461TIP3    H225348   2.640   5.290   1.752
 8462TIP3   OH225349   3.519   3.204   4.970
 8462TIP3    H125350   3.582   3.132   4.965
 8462TIP3    H225351   3.514   3.225   5.064
 8463TIP3   OH225352   1.621   4.909   4.041
 8463TIP3    H125353   1.658   4.862   4.115
 8463TIP3    H225354   1.679   4.985   4.029
 8464TIP3   OH225355   3.987   0.863   5.831
 8464TIP3    H125356   3.994   0.850   5.926
 8464TIP3    H225357   4.078   0.869   5.801
 8465TIP3   OH225358   3.658   4.787   4.881
 8465TIP3    H125359   3.666   4.822   4.793
 8465TIP3    H225360   3.614   4.702   4.870
 8466TIP3   OH225361   3.119   5.302   5.893
 8466TIP3    H125362   3.068   5.379   5.918
 8466TIP3    H225363   3.166   5.329   5.814
 8467TIP3   OH225364   0.277   2.292   1.112
 8467TIP3    H125365   0.307   2.204   1.089
 8467TIP3    H225366   0.246   2.329   1.029
 8468TIP3   OH225367   5.084   5.849   4.674
 8468TIP3    H125368   5.062   5.942   4.662
 8468TIP3    H225369   5.031   5.803   4.609
 8469TIP3   OH225370   1.995   2.809   3.612
 8469TIP3    H125371   2.088   2.830   3.621
 8469TIP3    H225372   1.950   2.881   3.657
 8470TIP3   OH225373   0.811   5.528   3.209
 8470TIP3    H125374   0.782   5.596   3.271
 8470TIP3    H225375   0.889   5.565   3.167
 8471TIP3   OH225376   4.399   5.070   5.779
 8471TIP3    H125377   4.404   5.105   5.868
 8471TIP3    H225378   4.490   5.052   5.756
 8472TIP3   OH225379   4.402   2.876   4.266
 8472TIP3    H125380   4.393   2.971   4.273
 8472TIP3    H225381   4.445   2.850   4.348
 8473TIP3   OH225382   6.374   2.825   2.934
 8473TIP3    H125383   6.409   2.736   2.941
 8473TIP3    H225384   6.452   2.881   2.932
 8474TIP3   OH225385   5.496   4.905   2.112
 8474TIP3    H125386   5.456   4.988   2.136
 8474TIP3    H225387   5.438   4.869   2.044
 8475TIP3   OH225388   0.848   6.642   5.350
 8475TIP3    H125389   0.759   6.626   5.317
 8475TIP3    H225390   0.839   6.636   5.445
 8476TIP3   OH225391   0.393   5.795   5.710
 8476TIP3    H125392   0.476   5.844   5.714
 8476TIP3    H225393   0.363   5.792   5.800
 8477TIP3   OH225394   5.706   1.220   2.853
 8477TIP3    H125395   5.637   1.275   2.817
 8477TIP3    H225396   5.689   1.133   2.817
 8478TIP3   OH225397   4.627   1.143   0.039
 8478TIP3    H125398   4.660   1.226   0.074
 8478TIP3    H225399   4.544   1.130   0.084
 8479TIP3   OH225400   5.774   4.751   0.681
 8479TIP3    H125401   5.835   4.688   0.719
 8479TIP3    H225402   5.714   4.697   0.629
 8480TIP3   OH225403   2.463   4.921   2.942
 8480TIP3    H125404   2.405   4.997   2.939
 8480TIP3    H225405   2.527   4.942   3.010
 8481TIP3   OH225406   4.310   2.820   2.115
 8481TIP3    H125407   4.354   2.775   2.043
 8481TIP3    H225408   4.380   2.836   2.179
 8482TIP3   OH225409   5.496   2.821   0.023
 8482TIP3    H125410   5.453   2.804  -0.061
 8482TIP3    H225411   5.472   2.747   0.078
 8483TIP3   OH225412   6.793   6.468   4.632
 8483TIP3    H125413   6.887   6.484   4.626
 8483TIP3    H225414   6.769   6.434   4.546
 8484TIP3   OH225415   2.295   5.653   0.748
 8484TIP3    H125416   2.376   5.627   0.792
 8484TIP3    H225417   2.240   5.575   0.752
 8485TIP3   OH225418   3.536   5.880   1.876
 8485TIP3    H125419   3.582   5.833   1.807
 8485TIP3    H225420   3.502   5.811   1.934
 8486TIP3   OH225421   1.699   0.430   5.735
 8486TIP3    H125422   1.700   0.373   5.812
 8486TIP3    H225423   1.778   0.407   5.687
 8487TIP3   OH225424   3.606   4.673   3.165
 8487TIP3    H125425   3.578   4.634   3.248
 8487TIP3    H225426   3.565   4.760   3.165
 8488TIP3   OH225427   7.101   1.667   0.924
 8488TIP3    H125428   7.109   1.708   1.010
 8488TIP3    H225429   7.073   1.577   0.941
 8489TIP3   OH225430   0.828   6.201   1.756
 8489TIP3    H125431   0.744   6.164   1.784
 8489TIP3    H225432   0.822   6.293   1.779
 8490TIP3   OH225433   0.933   2.517   5.791
 8490TIP3    H125434   0.966   2.492   5.877
 8490TIP3    H225435   1.008   2.559   5.748
 8491TIP3   OH225436   7.156   0.348   0.953
 8491TIP3    H125437   7.169   0.382   0.865
 8491TIP3    H225438   7.237   0.301   0.973
 8492TIP3   OH225439   0.116   0.748   5.720
 8492TIP3    H125440   0.149   0.766   5.632
 8492TIP3    H225441   0.052   0.817   5.736
 8493TIP3   OH225442   2.999   6.623   3.716
 8493TIP3    H125443   2.966   6.606   3.628
 8493TIP3    H225444   2.987   6.717   3.729
 8494TIP3   OH225445   5.430   0.432   5.208
 8494TIP3    H125446   5.384   0.436   5.292
 8494TIP3    H225447   5.386   0.364   5.159
 8495TIP3   OH225448   5.720   0.225   4.314
 8495TIP3    H125449   5.668   0.297   4.351
 8495TIP3    H225450   5.664   0.148   4.322
 8496TIP3   OH225451   7.193   4.583   0.259
 8496TIP3    H125452   7.226   4.651   0.318
 8496TIP3    H225453   7.131   4.533   0.312
 8497TIP3   OH225454   1.557   1.424   3.723
 8497TIP3    H125455   1.475   1.390   3.758
 8497TIP3    H225456   1.562   1.513   3.756
 8498TIP3   OH225457   3.048   1.274   5.491
 8498TIP3    H125458   3.069   1.358   5.451
 8498TIP3    H225459   3.037   1.214   5.417
 8499TIP3   OH225460   4.231   0.488   1.375
 8499TIP3    H125461   4.205   0.571   1.334
 8499TIP3    H225462   4.194   0.421   1.316
 8500TIP3   OH225463   0.125   4.692   4.721
 8500TIP3    H125464   0.179   4.771   4.724
 8500TIP3    H225465   0.091   4.683   4.810
 8501TIP3   OH225466   2.953   2.042   4.326
 8501TIP3    H125467   2.868   2.086   4.323
 8501TIP3    H225468   3.012   2.106   4.365
 8502TIP3   OH225469   3.104   3.232   0.506
 8502TIP3    H125470   3.197   3.222   0.523
 8502TIP3    H225471   3.077   3.303   0.565
 8503TIP3   OH225472   6.015   6.426   1.307
 8503TIP3    H125473   5.945   6.431   1.243
 8503TIP3    H225474   6.004   6.504   1.362
 8504TIP3   OH225475   1.258   6.736   1.655
 8504TIP3    H125476   1.345   6.707   1.628
 8504TIP3    H225477   1.255   6.829   1.631
 8505TIP3   OH225478   2.980   5.229   0.921
 8505TIP3    H125479   3.014   5.317   0.940
 8505TIP3    H225480   2.944   5.237   0.832
 8506TIP3   OH225481   3.715   3.803   3.731
 8506TIP3    H125482   3.651   3.750   3.780
 8506TIP3    H225483   3.788   3.813   3.792
 8507TIP3   OH225484   4.413   2.523   3.714
 8507TIP3    H125485   4.387   2.612   3.690
 8507TIP3    H225486   4.496   2.509   3.668
 8508TIP3   OH225487   2.717   2.169   3.212
 8508TIP3    H125488   2.740   2.200   3.125
 8508TIP3    H225489   2.691   2.078   3.199
 8509TIP3   OH225490   6.707   4.397   5.773
 8509TIP3    H125491   6.767   4.453   5.723
 8509TIP3    H225492   6.764   4.336   5.820
 8510TIP3   OH225493   4.984   2.295   1.162
 8510TIP3    H125494   4.954   2.249   1.241
 8510TIP3    H225495   4.943   2.381   1.167
 8511TIP3   OH225496   5.514   6.456   4.049
 8511TIP3    H125497   5.530   6.481   3.958
 8511TIP3    H225498   5.528   6.536   4.099
 8512TIP3   OH225499   1.841   2.910   4.482
 8512TIP3    H125500   1.897   2.861   4.422
 8512TIP3    H225501   1.758   2.918   4.435
 8513TIP3   OH225502   2.263   1.083   0.057
 8513TIP3    H125503   2.225   1.162   0.018
 8513TIP3    H225504   2.187   1.034   0.090
 8514TIP3   OH225505   6.849   0.170   2.696
 8514TIP3    H125506   6.805   0.091   2.664
 8514TIP3    H225507   6.935   0.139   2.726
 8515TIP3   OH225508   5.356   2.685   0.530
 8515TIP3    H125509   5.316   2.607   0.568
 8515TIP3    H225510   5.303   2.758   0.563
 8516TIP3   OH225511   0.517   6.689   0.621
 8516TIP3    H125512   0.597   6.697   0.674
 8516TIP3    H225513   0.456   6.751   0.661
 8517TIP3   OH225514   1.650   1.403   4.452
 8517TIP3    H125515   1.669   1.309   4.457
 8517TIP3    H225516   1.569   1.413   4.501
 8518TIP3   OH225517   3.935   2.884   3.865
 8518TIP3    H125518   3.986   2.846   3.793
 8518TIP3    H225519   3.872   2.816   3.887
 8519TIP3   OH225520   0.359   0.114   4.214
 8519TIP3    H125521   0.426   0.091   4.278
 8519TIP3    H225522   0.343   0.207   4.229
 8520TIP3   OH225523   2.035   1.241   0.303
 8520TIP3    H125524   1.948   1.204   0.288
 8520TIP3    H225525   2.031   1.328   0.265
 8521TIP3   OH225526   4.916   4.951   1.611
 8521TIP3    H125527   4.917   5.026   1.551
 8521TIP3    H225528   5.005   4.917   1.608
 8522TIP3   OH225529   2.917   1.043   3.444
 8522TIP3    H125530   2.964   1.119   3.409
 8522TIP3    H225531   2.910   1.060   3.538
 8523TIP3   OH225532   3.637   0.247   5.374
 8523TIP3    H125533   3.635   0.260   5.279
 8523TIP3    H225534   3.633   0.336   5.410
 8524TIP3   OH225535   2.732   1.573   0.882
 8524TIP3    H125536   2.816   1.557   0.839
 8524TIP3    H225537   2.708   1.662   0.857
 8525TIP3   OH225538   2.778   3.015   5.453
 8525TIP3    H125539   2.695   3.011   5.406
 8525TIP3    H225540   2.782   3.104   5.488
 8526TIP3   OH225541   6.635   3.463   2.430
 8526TIP3    H125542   6.717   3.512   2.437
 8526TIP3    H225543   6.569   3.523   2.465
 8527TIP3   OH225544   5.644   4.420   2.782
 8527TIP3    H125545   5.557   4.432   2.820
 8527TIP3    H225546   5.658   4.500   2.730
 8528TIP3   OH225547   0.354   1.242   0.410
 8528TIP3    H125548   0.304   1.160   0.414
 8528TIP3    H225549   0.420   1.233   0.479
 8529TIP3   OH225550   0.730   6.064   0.109
 8529TIP3    H125551   0.763   5.975   0.103
 8529TIP3    H225552   0.651   6.057   0.162
 8530TIP3   OH225553   0.391   2.923   0.344
 8530TIP3    H125554   0.455   2.946   0.411
 8530TIP3    H225555   0.411   2.833   0.320
 8531TIP3   OH225556   6.220   1.822   2.103
 8531TIP3    H125557   6.253   1.761   2.038
 8531TIP3    H225558   6.153   1.772   2.150
 8532TIP3   OH225559   2.852   1.662   1.517
 8532TIP3    H125560   2.931   1.704   1.552
 8532TIP3    H225561   2.812   1.619   1.593
 8533TIP3   OH225562   4.417   3.317  -0.017
 8533TIP3    H125563   4.416   3.410  -0.038
 8533TIP3    H225564   4.369   3.311   0.066
 8534TIP3   OH225565   3.873   5.992   1.871
 8534TIP3    H125566   3.871   5.909   1.918
 8534TIP3    H225567   3.904   5.970   1.783
 8535TIP3   OH225568   2.602   2.023   3.842
 8535TIP3    H125569   2.681   1.970   3.841
 8535TIP3    H225570   2.595   2.058   3.753
 8536TIP3   OH225571   6.272   4.125   1.411
 8536TIP3    H125572   6.259   4.035   1.439
 8536TIP3    H225573   6.185   4.164   1.411
 8537TIP3   OH225574   6.693   5.064   3.252
 8537TIP3    H125575   6.738   5.004   3.311
 8537TIP3    H225576   6.760   5.087   3.187
 8538TIP3   OH225577   1.779   1.289   5.128
 8538TIP3    H125578   1.696   1.330   5.102
 8538TIP3    H225579   1.837   1.363   5.146
 8539TIP3   OH225580   0.637   0.285   5.071
 8539TIP3    H125581   0.552   0.315   5.103
 8539TIP3    H225582   0.627   0.191   5.061
 8540TIP3   OH225583   4.602   1.639   0.891
 8540TIP3    H125584   4.565   1.726   0.879
 8540TIP3    H225585   4.606   1.601   0.803
 8541TIP3   OH225586   2.445   2.939   1.377
 8541TIP3    H125587   2.456   3.034   1.376
 8541TIP3    H225588   2.360   2.926   1.421
 8542TIP3   OH225589   0.019   1.310   1.484
 8542TIP3    H125590   0.096   1.253   1.490
 8542TIP3    H225591  -0.006   1.326   1.575
 8543TIP3   OH225592   3.927   4.365   0.560
 8543TIP3    H125593   3.970   4.440   0.519
 8543TIP3    H225594   3.850   4.349   0.506
 8544TIP3   OH225595   2.087   6.184   2.148
 8544TIP3    H125596   2.027   6.248   2.185
 8544TIP3    H225597   2.034   6.104   2.140
 8545TIP3   OH225598   4.742   5.068   0.992
 8545TIP3    H125599   4.702   5.154   0.983
 8545TIP3    H225600   4.792   5.073   1.073
 8546TIP3   OH225601   7.105   3.153   3.184
 8546TIP3    H125602   7.074   3.168   3.273
 8546TIP3    H225603   7.025   3.144   3.132
 8547TIP3   OH225604   1.439   6.631   2.489
 8547TIP3    H125605   1.391   6.712   2.473
 8547TIP3    H225606   1.504   6.628   2.418
 8548TIP3   OH225607   6.804   4.827   5.202
 8548TIP3    H125608   6.768   4.916   5.210
 8548TIP3    H225609   6.728   4.773   5.180
 8549TIP3   OH225610   1.224   3.256   1.981
 8549TIP3    H125611   1.218   3.342   2.022
 8549TIP3    H225612   1.296   3.263   1.919
 8550TIP3   OH225613   1.003   5.648   2.784
 8550TIP3    H125614   0.921   5.678   2.823
 8550TIP3    H225615   1.071   5.686   2.840
 8551TIP3   OH225616   5.217   4.576   5.711
 8551TIP3    H125617   5.210   4.511   5.641
 8551TIP3    H225618   5.160   4.542   5.781
 8552TIP3   OH225619   3.934   3.860   3.864
 8552TIP3    H125620   3.952   3.943   3.910
 8552TIP3    H225621   3.969   3.793   3.923
 8553TIP3   OH225622   5.776   3.142   2.992
 8553TIP3    H125623   5.700   3.160   2.936
 8553TIP3    H225624   5.847   3.192   2.951
 8554TIP3   OH225625   1.352   1.690   0.979
 8554TIP3    H125626   1.292   1.756   0.943
 8554TIP3    H225627   1.421   1.740   1.021
 8555TIP3   OH225628   0.143   3.049   3.635
 8555TIP3    H125629   0.139   3.132   3.588
 8555TIP3    H225630   0.204   3.064   3.707
 8556TIP3   OH225631   1.658   6.098   2.417
 8556TIP3    H125632   1.628   6.119   2.329
 8556TIP3    H225633   1.753   6.093   2.410
 8557TIP3   OH225634   7.066   0.887   2.240
 8557TIP3    H125635   6.971   0.876   2.233
 8557TIP3    H225636   7.091   0.837   2.318
 8558TIP3   OH225637   5.400   6.295   1.353
 8558TIP3    H125638   5.368   6.322   1.267
 8558TIP3    H225639   5.488   6.261   1.336
 8559TIP3   OH225640   0.287   0.366   5.550
 8559TIP3    H125641   0.347   0.426   5.507
 8559TIP3    H225642   0.207   0.370   5.499
 8560TIP3   OH225643   0.153   4.076   4.903
 8560TIP3    H125644   0.141   4.089   4.809
 8560TIP3    H225645   0.072   4.107   4.943
 8561TIP3   OH225646   5.345   1.968   4.277
 8561TIP3    H125647   5.268   1.965   4.334
 8561TIP3    H225648   5.320   1.916   4.200
 8562TIP3   OH225649   2.768   4.833   3.066
 8562TIP3    H125650   2.783   4.743   3.094
 8562TIP3    H225651   2.856   4.869   3.053
 8563TIP3   OH225652   0.068   5.939   4.870
 8563TIP3    H125653   0.087   6.032   4.860
 8563TIP3    H225654   0.112   5.897   4.796
 8564TIP3   OH225655   5.562   3.772   3.449
 8564TIP3    H125656   5.496   3.723   3.400
 8564TIP3    H225657   5.610   3.821   3.382
 8565TIP3   OH225658   4.624   2.301   4.463
 8565TIP3    H125659   4.642   2.388   4.497
 8565TIP3    H225660   4.602   2.315   4.371
 8566TIP3   OH225661   6.249   4.181   5.215
 8566TIP3    H125662   6.211   4.260   5.254
 8566TIP3    H225663   6.339   4.179   5.247
 8567TIP3   OH225664   6.473   2.285   1.402
 8567TIP3    H125665   6.509   2.241   1.479
 8567TIP3    H225666   6.486   2.223   1.330
 8568TIP3   OH225667   6.450   3.588   1.066
 8568TIP3    H125668   6.518   3.656   1.067
 8568TIP3    H225669   6.447   3.556   1.157
 8569TIP3   OH225670   3.786  -0.006   3.857
 8569TIP3    H125671   3.864   0.033   3.897
 8569TIP3    H225672   3.790   0.022   3.766
 8570TIP3   OH225673   1.335   0.210   4.203
 8570TIP3    H125674   1.309   0.118   4.201
 8570TIP3    H225675   1.424   0.210   4.168
 8571TIP3   OH225676   0.606   3.264   3.513
 8571TIP3    H125677   0.578   3.302   3.429
 8571TIP3    H225678   0.587   3.171   3.504
 8572TIP3   OH225679   3.118   6.652   3.318
 8572TIP3    H125680   3.173   6.678   3.391
 8572TIP3    H225681   3.038   6.619   3.359
 8573TIP3   OH225682   6.347   6.704   2.291
 8573TIP3    H125683   6.429   6.753   2.300
 8573TIP3    H225684   6.299   6.750   2.222
 8574TIP3   OH225685   3.436   1.386   2.644
 8574TIP3    H125686   3.355   1.347   2.609
 8574TIP3    H225687   3.482   1.312   2.684
 8575TIP3   OH225688   1.306   1.807   4.240
 8575TIP3    H125689   1.334   1.863   4.312
 8575TIP3    H225690   1.271   1.728   4.282
 8576TIP3   OH225691   5.366   0.172  -0.001
 8576TIP3    H125692   5.408   0.092   0.029
 8576TIP3    H225693   5.438   0.232  -0.020
 8577TIP3   OH225694   5.881   1.363   3.004
 8577TIP3    H125695   5.812   1.359   2.938
 8577TIP3    H225696   5.933   1.285   2.990
 8578TIP3   OH225697   1.137   2.406   2.313
 8578TIP3    H125698   1.158   2.440   2.400
 8578TIP3    H225699   1.058   2.355   2.326
 8579TIP3   OH225700   2.878   3.608   4.436
 8579TIP3    H125701   2.929   3.544   4.387
 8579TIP3    H225702   2.828   3.654   4.368
 8580TIP3   OH225703   0.053   1.066   2.152
 8580TIP3    H125704   0.113   0.996   2.127
 8580TIP3    H225705  -0.027   1.021   2.178
 8581TIP3   OH225706   1.527   5.869   3.998
 8581TIP3    H125707   1.613   5.828   3.989
 8581TIP3    H225708   1.538   5.956   3.958
 8582TIP3   OH225709   5.299   5.938   4.403
 8582TIP3    H125710   5.325   6.022   4.365
 8582TIP3    H225711   5.360   5.926   4.477
 8583TIP3   OH225712   0.904   4.130   5.169
 8583TIP3    H125713   0.944   4.190   5.233
 8583TIP3    H225714   0.834   4.087   5.218
 8584TIP3   OH225715   1.339   0.639   3.325
 8584TIP3    H125716   1.264   0.583   3.343
 8584TIP3    H225717   1.400   0.582   3.276
 8585TIP3   OH225718   3.828   0.410   3.834
 8585TIP3    H125719   3.830   0.399   3.929
 8585TIP3    H225720   3.918   0.396   3.806
 8586TIP3   OH225721   0.010   1.162   4.512
 8586TIP3    H125722  -0.051   1.167   4.439
 8586TIP3    H225723   0.066   1.239   4.501
 8587TIP3   OH225724   0.874   0.969   0.172
 8587TIP3    H125725   0.955   0.919   0.159
 8587TIP3    H225726   0.900   1.041   0.230
 8588TIP3   OH225727   1.864   0.810   5.518
 8588TIP3    H125728   1.802   0.841   5.585
 8588TIP3    H225729   1.880   0.887   5.463
 8589TIP3   OH225730   4.951   3.976   0.650
 8589TIP3    H125731   5.006   4.054   0.637
 8589TIP3    H225732   4.863   4.005   0.623
 8590TIP3   OH225733   4.421   1.709   1.682
 8590TIP3    H125734   4.436   1.628   1.633
 8590TIP3    H225735   4.348   1.751   1.637
 8591TIP3   OH225736   3.401   1.954   1.490
 8591TIP3    H125737   3.430   2.031   1.441
 8591TIP3    H225738   3.330   1.918   1.437
 8592TIP3   OH225739   3.553   5.181   3.081
 8592TIP3    H125740   3.535   5.266   3.120
 8592TIP3    H225741   3.580   5.126   3.155
 8593TIP3   OH225742   4.620   1.748   3.445
 8593TIP3    H125743   4.706   1.757   3.404
 8593TIP3    H225744   4.637   1.755   3.539
 8594TIP3   OH225745   3.106   0.149   4.423
 8594TIP3    H125746   3.055   0.068   4.419
 8594TIP3    H225747   3.197   0.121   4.416
 8595TIP3   OH225748   6.268   2.869   3.728
 8595TIP3    H125749   6.327   2.939   3.700
 8595TIP3    H225750   6.208   2.911   3.789
 8596TIP3   OH225751   4.034   4.454   1.543
 8596TIP3    H125752   4.108   4.452   1.482
 8596TIP3    H225753   3.998   4.366   1.540
 8597TIP3   OH225754   1.942   3.326   5.395
 8597TIP3    H125755   1.893   3.353   5.472
 8597TIP3    H225756   2.022   3.379   5.398
 8598TIP3   OH225757   6.198   5.594   0.754
 8598TIP3    H125758   6.107   5.577   0.779
 8598TIP3    H225759   6.241   5.616   0.837
 8599TIP3   OH225760   2.928   6.262   3.526
 8599TIP3    H125761   2.948   6.241   3.618
 8599TIP3    H225762   3.005   6.233   3.478
 8600TIP3   OH225763   1.901   3.050   1.062
 8600TIP3    H125764   1.818   3.065   1.017
 8600TIP3    H225765   1.922   2.958   1.042
 8601TIP3   OH225766   4.093   3.266   3.946
 8601TIP3    H125767   4.084   3.329   3.875
 8601TIP3    H225768   4.185   3.272   3.971
 8602TIP3   OH225769   6.144   2.348   2.070
 8602TIP3    H125770   6.161   2.430   2.023
 8602TIP3    H225771   6.161   2.369   2.162
 8603TIP3   OH225772   6.359   3.256   0.465
 8603TIP3    H125773   6.278   3.207   0.463
 8603TIP3    H225774   6.398   3.236   0.550
 8604TIP3   OH225775   1.560   0.851   0.359
 8604TIP3    H125776   1.643   0.838   0.314
 8604TIP3    H225777   1.526   0.934   0.326
 8605TIP3   OH225778   0.702   6.175   0.565
 8605TIP3    H125779   0.627   6.115   0.557
 8605TIP3    H225780   0.662   6.262   0.565
 8606TIP3   OH225781   3.011   5.492   3.141
 8606TIP3    H125782   3.082   5.429   3.137
 8606TIP3    H225783   3.031   5.556   3.073
 8607TIP3   OH225784   0.805   5.007   2.517
 8607TIP3    H125785   0.885   5.057   2.536
 8607TIP3    H225786   0.773   5.045   2.435
 8608TIP3   OH225787   0.669   5.186   5.451
 8608TIP3    H125788   0.586   5.210   5.411
 8608TIP3    H225789   0.652   5.102   5.493
 8609TIP3   OH225790   1.536   4.955   5.841
 8609TIP3    H125791   1.613   4.902   5.822
 8609TIP3    H225792   1.462   4.898   5.819
 8610TIP3   OH225793   3.234   0.083   1.000
 8610TIP3    H125794   3.250   0.031   1.079
 8610TIP3    H225795   3.318   0.125   0.981
 8611TIP3   OH225796   3.995   1.246   4.458
 8611TIP3    H125797   3.976   1.318   4.517
 8611TIP3    H225798   4.060   1.281   4.397
 8612TIP3   OH225799   3.724   1.806   1.220
 8612TIP3    H125800   3.723   1.745   1.293
 8612TIP3    H225801   3.658   1.772   1.159
 8613TIP3   OH225802   5.407   6.315   0.874
 8613TIP3    H125803   5.458   6.234   0.875
 8613TIP3    H225804   5.469   6.381   0.842
 8614TIP3   OH225805   5.870   3.795   1.016
 8614TIP3    H125806   5.957   3.786   0.977
 8614TIP3    H225807   5.827   3.861   0.963
 8615TIP3   OH225808   6.842   2.179   5.816
 8615TIP3    H125809   6.856   2.259   5.867
 8615TIP3    H225810   6.845   2.109   5.881
 8616TIP3   OH225811   6.776   5.258   5.813
 8616TIP3    H125812   6.709   5.304   5.762
 8616TIP3    H225813   6.726   5.217   5.885
 8617TIP3   OH225814   2.580   0.258   2.598
 8617TIP3    H125815   2.504   0.264   2.655
 8617TIP3    H225816   2.611   0.168   2.609
 8618TIP3   OH225817   5.117   6.312   0.852
 8618TIP3    H125818   5.096   6.300   0.945
 8618TIP3    H225819   5.193   6.369   0.852
 8619TIP3   OH225820   2.689   3.775   2.563
 8619TIP3    H125821   2.691   3.703   2.626
 8619TIP3    H225822   2.724   3.738   2.482
 8620TIP3   OH225823   3.304   3.441   5.288
 8620TIP3    H125824   3.294   3.371   5.223
 8620TIP3    H225825   3.330   3.517   5.237
 8621TIP3   OH225826   3.280   4.687   4.749
 8621TIP3    H125827   3.347   4.682   4.817
 8621TIP3    H225828   3.271   4.598   4.717
 8622TIP3   OH225829   4.830   2.905   2.849
 8622TIP3    H125830   4.817   2.845   2.775
 8622TIP3    H225831   4.923   2.928   2.845
 8623TIP3   OH225832   0.862   5.140   0.136
 8623TIP3    H125833   0.877   5.215   0.193
 8623TIP3    H225834   0.816   5.175   0.061
 8624TIP3   OH225835   1.729   2.696   0.405
 8624TIP3    H125836   1.665   2.688   0.475
 8624TIP3    H225837   1.694   2.641   0.334
 8625TIP3   OH225838   1.426   5.199   0.435
 8625TIP3    H125839   1.484   5.129   0.406
 8625TIP3    H225840   1.483   5.261   0.480
 8626TIP3   OH225841   4.095   4.867   1.037
 8626TIP3    H125842   4.123   4.934   1.099
 8626TIP3    H225843   4.071   4.915   0.959
 8627TIP3   OH225844   4.782   3.704   4.549
 8627TIP3    H125845   4.783   3.729   4.641
 8627TIP3    H225846   4.828   3.620   4.547
 8628TIP3   OH225847   4.168   4.581   0.145
 8628TIP3    H125848   4.090   4.546   0.188
 8628TIP3    H225849   4.220   4.503   0.123
 8629TIP3   OH225850   6.283   1.252   3.812
 8629TIP3    H125851   6.304   1.291   3.727
 8629TIP3    H225852   6.192   1.225   3.803
 8630TIP3   OH225853   5.161   2.675   3.821
 8630TIP3    H125854   5.119   2.696   3.737
 8630TIP3    H225855   5.186   2.760   3.857
 8631TIP3   OH225856   2.601   0.518   3.812
 8631TIP3    H125857   2.646   0.433   3.819
 8631TIP3    H225858   2.555   0.513   3.728
 8632TIP3   OH225859   3.709   4.218   0.144
 8632TIP3    H125860   3.633   4.275   0.128
 8632TIP3    H225861   3.752   4.212   0.059
 8633TIP3   OH225862   1.279   3.146   1.107
 8633TIP3    H125863   1.314   3.065   1.072
 8633TIP3    H225864   1.185   3.130   1.115
 8634TIP3   OH225865   5.724   3.557   3.537
 8634TIP3    H125866   5.664   3.619   3.495
 8634TIP3    H225867   5.673   3.521   3.610
 8635TIP3   OH225868   5.230   2.942   3.889
 8635TIP3    H125869   5.257   2.977   3.804
 8635TIP3    H225870   5.219   3.018   3.945
 8636TIP3   OH225871   0.498   2.848   1.959
 8636TIP3    H125872   0.561   2.795   2.009
 8636TIP3    H225873   0.471   2.917   2.020
 8637TIP3   OH225874   5.307   5.257   3.638
 8637TIP3    H125875   5.280   5.175   3.679
 8637TIP3    H225876   5.394   5.273   3.672
 8638TIP3   OH225877   6.111   1.709   4.426
 8638TIP3    H125878   6.112   1.771   4.353
 8638TIP3    H225879   6.083   1.761   4.501
 8639TIP3   OH225880   6.077   1.084   5.694
 8639TIP3    H125881   6.013   1.076   5.765
 8639TIP3    H225882   6.077   0.998   5.652
 8640TIP3   OH225883   3.763   2.365   1.007
 8640TIP3    H125884   3.668   2.367   1.002
 8640TIP3    H225885   3.786   2.445   1.054
 8641TIP3   OH225886   1.981   2.413   1.650
 8641TIP3    H125887   2.009   2.504   1.652
 8641TIP3    H225888   1.970   2.388   1.741
 8642TIP3   OH225889   0.765   6.098   4.033
 8642TIP3    H125890   0.780   6.163   4.101
 8642TIP3    H225891   0.730   6.148   3.960
 8643TIP3   OH225892   1.339   5.713   1.889
 8643TIP3    H125893   1.252   5.753   1.881
 8643TIP3    H225894   1.358   5.716   1.983
 8644TIP3   OH225895   4.951   6.122   1.228
 8644TIP3    H125896   5.011   6.126   1.154
 8644TIP3    H225897   4.867   6.098   1.190
 8645TIP3   OH225898   4.306   0.698   1.058
 8645TIP3    H125899   4.383   0.729   1.105
 8645TIP3    H225900   4.325   0.606   1.040
 8646TIP3   OH225901   3.750   0.994   5.714
 8646TIP3    H125902   3.813   0.966   5.780
 8646TIP3    H225903   3.747   1.089   5.722
 8647TIP3   OH225904   1.300   2.734   2.095
 8647TIP3    H125905   1.300   2.705   2.186
 8647TIP3    H225906   1.387   2.773   2.082
 8648TIP3   OH225907   4.259   5.216   5.600
 8648TIP3    H125908   4.287   5.305   5.623
 8648TIP3    H225909   4.291   5.162   5.672
 8649TIP3   OH225910   0.408   5.768   4.285
 8649TIP3    H125911   0.472   5.725   4.341
 8649TIP3    H225912   0.457   5.796   4.208
 8650TIP3   OH225913   5.323   4.800   0.391
 8650TIP3    H125914   5.251   4.852   0.425
 8650TIP3    H225915   5.351   4.846   0.312
 8651TIP3   OH225916   6.168   5.682   5.359
 8651TIP3    H125917   6.226   5.700   5.285
 8651TIP3    H225918   6.095   5.743   5.348
 8652TIP3   OH225919   1.224   4.158   4.101
 8652TIP3    H125920   1.238   4.074   4.058
 8652TIP3    H225921   1.273   4.221   4.049
 8653TIP3   OH225922   1.245   5.319   2.442
 8653TIP3    H125923   1.281   5.233   2.420
 8653TIP3    H225924   1.247   5.322   2.538
 8654TIP3   OH225925   3.950   3.333   2.530
 8654TIP3    H125926   3.985   3.405   2.478
 8654TIP3    H225927   4.027   3.290   2.565
 8655TIP3   OH225928   0.327   1.614   3.831
 8655TIP3    H125929   0.339   1.550   3.761
 8655TIP3    H225930   0.364   1.572   3.908
 8656TIP3   OH225931   6.640   6.410   3.674
 8656TIP3    H125932   6.634   6.493   3.721
 8656TIP3    H225933   6.731   6.383   3.683
 8657TIP3   OH225934   6.541   1.599   0.359
 8657TIP3    H125935   6.622   1.596   0.307
 8657TIP3    H225936   6.534   1.691   0.385
 8658TIP3   OH225937   7.115   2.427   5.175
 8658TIP3    H125938   7.166   2.347   5.182
 8658TIP3    H225939   7.127   2.471   5.259
 8659TIP3   OH225940   0.776   1.974   1.109
 8659TIP3    H125941   0.738   2.006   1.190
 8659TIP3    H225942   0.789   1.880   1.124
 8660TIP3   OH225943   6.585   2.355   3.200
 8660TIP3    H125944   6.579   2.295   3.274
 8660TIP3    H225945   6.516   2.327   3.140
 8661TIP3   OH225946   4.740   0.396   1.594
 8661TIP3    H125947   4.649   0.411   1.566
 8661TIP3    H225948   4.735   0.386   1.689
 8662TIP3   OH225949   3.194   0.658   2.851
 8662TIP3    H125950   3.266   0.691   2.904
 8662TIP3    H225951   3.236   0.624   2.772
 8663TIP3   OH225952   1.335   2.752   4.006
 8663TIP3    H125953   1.254   2.736   4.054
 8663TIP3    H225954   1.347   2.847   4.008
 8664TIP3   OH225955   5.795   4.385   1.150
 8664TIP3    H125956   5.766   4.477   1.152
 8664TIP3    H225957   5.748   4.346   1.076
 8665TIP3   OH225958   4.459   4.428   4.213
 8665TIP3    H125959   4.503   4.506   4.180
 8665TIP3    H225960   4.366   4.451   4.212
 8666TIP3   OH225961   6.076   3.056   5.783
 8666TIP3    H125962   6.050   3.145   5.807
 8666TIP3    H225963   6.169   3.051   5.807
 8667TIP3   OH225964   3.029   1.674   1.223
 8667TIP3    H125965   2.956   1.714   1.175
 8667TIP3    H225966   3.027   1.582   1.197
 8668TIP3   OH225967   0.707   1.966   4.281
 8668TIP3    H125968   0.622   1.988   4.320
 8668TIP3    H225969   0.752   1.916   4.349
 8669TIP3   OH225970   2.325   4.660   0.141
 8669TIP3    H125971   2.309   4.663   0.047
 8669TIP3    H225972   2.332   4.567   0.161
 8670TIP3   OH225973   2.604   2.851   1.857
 8670TIP3    H125974   2.575   2.816   1.773
 8670TIP3    H225975   2.621   2.944   1.839
 8671TIP3   OH225976   4.408   4.336   1.644
 8671TIP3    H125977   4.327   4.380   1.672
 8671TIP3    H225978   4.391   4.313   1.553
 8672TIP3   OH225979   1.135   2.445   4.334
 8672TIP3    H125980   1.045   2.439   4.301
 8672TIP3    H225981   1.151   2.360   4.376
 8673TIP3   OH225982   5.715   6.448   2.061
 8673TIP3    H125983   5.805   6.449   2.094
 8673TIP3    H225984   5.725   6.452   1.966
 8674TIP3   OH225985   0.388   2.522   2.339
 8674TIP3    H125986   0.417   2.613   2.333
 8674TIP3    H225987   0.363   2.499   2.250
 8675TIP3   OH225988   2.318   1.744   4.711
 8675TIP3    H125989   2.252   1.682   4.742
 8675TIP3    H225990   2.330   1.721   4.619
 8676TIP3   OH225991   2.943   5.110   3.315
 8676TIP3    H125992   3.033   5.080   3.303
 8676TIP3    H225993   2.915   5.139   3.228
 8677TIP3   OH225994   0.061   2.303   3.267
 8677TIP3    H125995   0.136   2.275   3.319
 8677TIP3    H225996  -0.004   2.331   3.332
 8678TIP3   OH225997   5.812   0.887   3.593
 8678TIP3    H125998   5.802   0.801   3.634
 8678TIP3    H225999   5.868   0.871   3.517
 8679TIP3   OH226000   1.645   4.665   2.759
 8679TIP3    H126001   1.574   4.648   2.822
 8679TIP3    H226002   1.640   4.591   2.698
 8680TIP3   OH226003   5.856   0.311   4.806
 8680TIP3    H126004   5.901   0.286   4.887
 8680TIP3    H226005   5.767   0.281   4.817
 8681TIP3   OH226006   5.675  -0.009   1.451
 8681TIP3    H126007   5.642   0.080   1.458
 8681TIP3    H226008   5.707  -0.030   1.539
 8682TIP3   OH226009   5.630   3.351   3.755
 8682TIP3    H126010   5.622   3.277   3.695
 8682TIP3    H226011   5.721   3.347   3.785
 8683TIP3   OH226012   3.250   3.862   0.239
 8683TIP3    H126013   3.176   3.858   0.299
 8683TIP3    H226014   3.212   3.840   0.154
 8684TIP3   OH226015   6.536   1.128   0.808
 8684TIP3    H126016   6.620   1.122   0.854
 8684TIP3    H226017   6.481   1.061   0.849
 8685TIP3   OH226018   6.511   2.941   0.679
 8685TIP3    H126019   6.521   3.032   0.708
 8685TIP3    H226020   6.417   2.929   0.669
 8686TIP3   OH226021   0.733   3.560   5.491
 8686TIP3    H126022   0.706   3.650   5.472
 8686TIP3    H226023   0.654   3.519   5.527
 8687TIP3   OH226024   4.302   3.936   5.593
 8687TIP3    H126025   4.309   4.027   5.623
 8687TIP3    H226026   4.283   3.943   5.500
 8688TIP3   OH226027   2.840   1.638   0.489
 8688TIP3    H126028   2.797   1.563   0.450
 8688TIP3    H226029   2.769   1.698   0.511
 8689TIP3   OH226030   5.032   5.353   3.453
 8689TIP3    H126031   5.020   5.374   3.361
 8689TIP3    H226032   5.117   5.308   3.457
 8690TIP3   OH226033   3.449   4.909   0.332
 8690TIP3    H126034   3.512   4.972   0.296
 8690TIP3    H226035   3.500   4.857   0.394
 8691TIP3   OH226036   3.826   2.868   2.134
 8691TIP3    H126037   3.817   2.960   2.110
 8691TIP3    H226038   3.785   2.820   2.062
 8692TIP3   OH226039   1.359   6.249   1.226
 8692TIP3    H126040   1.285   6.190   1.214
 8692TIP3    H226041   1.356   6.274   1.318
 8693TIP3   OH226042   0.974   5.875   1.694
 8693TIP3    H126043   0.964   5.807   1.628
 8693TIP3    H226044   1.067   5.898   1.690
 8694TIP3   OH226045   2.752   6.030   0.321
 8694TIP3    H126046   2.767   6.082   0.242
 8694TIP3    H226047   2.657   6.024   0.328
 8695TIP3   OH226048   3.418   0.110   0.293
 8695TIP3    H126049   3.475   0.121   0.217
 8695TIP3    H226050   3.379   0.196   0.307
 8696TIP3   OH226051   6.011   1.356   0.045
 8696TIP3    H126052   6.046   1.377  -0.042
 8696TIP3    H226053   5.933   1.303   0.026
 8697TIP3   OH226054   0.243   6.763   1.174
 8697TIP3    H126055   0.293   6.697   1.127
 8697TIP3    H226056   0.206   6.716   1.249
 8698TIP3   OH226057   1.901   0.931   1.749
 8698TIP3    H126058   1.911   0.994   1.677
 8698TIP3    H226059   1.834   0.970   1.805
 8699TIP3   OH226060   6.042   5.030   0.302
 8699TIP3    H126061   6.036   5.095   0.231
 8699TIP3    H226062   5.972   5.054   0.362
 8700TIP3   OH226063   4.639   2.464   3.580
 8700TIP3    H126064   4.723   2.452   3.624
 8700TIP3    H226065   4.606   2.376   3.565
 8701TIP3   OH226066   0.533   4.263   5.838
 8701TIP3    H126067   0.503   4.353   5.850
 8701TIP3    H226068   0.480   4.231   5.765
 8702TIP3   OH226069   0.718   4.245   3.093
 8702TIP3    H126070   0.772   4.289   3.027
 8702TIP3    H226071   0.750   4.156   3.095
 8703TIP3   OH226072   0.763   0.027   4.916
 8703TIP3    H126073   0.806   0.022   5.001
 8703TIP3    H226074   0.829   0.063   4.857
 8704TIP3   OH226075   6.708   0.968   3.993
 8704TIP3    H126076   6.776   1.034   4.011
 8704TIP3    H226077   6.662   1.002   3.917
 8705TIP3   OH226078   2.549   3.730   3.657
 8705TIP3    H126079   2.564   3.647   3.612
 8705TIP3    H226080   2.509   3.706   3.740
 8706TIP3   OH226081   5.573   1.700   5.064
 8706TIP3    H126082   5.530   1.786   5.067
 8706TIP3    H226083   5.598   1.689   4.972
 8707TIP3   OH226084   5.301   3.952   4.988
 8707TIP3    H126085   5.258   3.945   5.073
 8707TIP3    H226086   5.394   3.941   5.006
 8708TIP3   OH226087   1.025   4.032   1.153
 8708TIP3    H126088   1.101   4.069   1.199
 8708TIP3    H226089   1.008   3.949   1.198
 8709TIP3   OH226090   2.200   3.293   1.778
 8709TIP3    H126091   2.142   3.356   1.736
 8709TIP3    H226092   2.148   3.213   1.784
 8710TIP3   OH226093   2.406   4.202   4.237
 8710TIP3    H126094   2.340   4.249   4.289
 8710TIP3    H226095   2.381   4.219   4.146
 8711TIP3   OH226096   2.934   3.306   1.273
 8711TIP3    H126097   2.936   3.400   1.254
 8711TIP3    H226098   2.847   3.278   1.245
 8712TIP3   OH226099   1.935   3.270   5.130
 8712TIP3    H126100   1.935   3.285   5.224
 8712TIP3    H226101   1.849   3.300   5.100
 8713TIP3   OH226102   5.250   4.082   5.700
 8713TIP3    H126103   5.225   4.170   5.671
 8713TIP3    H226104   5.275   4.036   5.620
 8714TIP3   OH226105   5.665   6.693   2.364
 8714TIP3    H126106   5.608   6.739   2.302
 8714TIP3    H226107   5.664   6.602   2.334
 8715TIP3   OH226108   6.186   3.818   4.910
 8715TIP3    H126109   6.179   3.908   4.942
 8715TIP3    H226110   6.214   3.768   4.987
 8716TIP3   OH226111   3.781   3.244   2.290
 8716TIP3    H126112   3.698   3.205   2.265
 8716TIP3    H226113   3.769   3.274   2.380
 8717TIP3   OH226114   2.272   6.367   1.314
 8717TIP3    H126115   2.283   6.337   1.224
 8717TIP3    H226116   2.283   6.287   1.366
 8718TIP3   OH226117   2.003   4.623   2.257
 8718TIP3    H126118   2.020   4.574   2.176
 8718TIP3    H226119   1.913   4.600   2.280
 8719TIP3   OH226120   5.116   1.868   3.095
 8719TIP3    H126121   5.098   1.910   3.011
 8719TIP3    H226122   5.075   1.782   3.087
 8720TIP3   OH226123   4.897   4.365   2.664
 8720TIP3    H126124   4.973   4.340   2.717
 8720TIP3    H226125   4.872   4.284   2.619
 8721TIP3   OH226126   3.568   5.691   0.478
 8721TIP3    H126127   3.604   5.645   0.554
 8721TIP3    H226128   3.642   5.700   0.418
 8722TIP3   OH226129   5.702   1.257   2.049
 8722TIP3    H126130   5.717   1.164   2.032
 8722TIP3    H226131   5.768   1.281   2.114
 8723TIP3   OH226132   6.316   6.458   1.590
 8723TIP3    H126133   6.391   6.458   1.650
 8723TIP3    H226134   6.259   6.527   1.623
 8724TIP3   OH226135   1.385   2.076   1.028
 8724TIP3    H126136   1.335   2.041   0.954
 8724TIP3    H226137   1.318   2.098   1.093
 8725TIP3   OH226138   4.534   5.105   0.112
 8725TIP3    H126139   4.531   5.045   0.038
 8725TIP3    H226140   4.536   5.192   0.073
 8726TIP3   OH226141   0.841   1.090   3.690
 8726TIP3    H126142   0.767   1.123   3.742
 8726TIP3    H226143   0.913   1.149   3.712
 8727TIP3   OH226144   1.353   4.848   2.403
 8727TIP3    H126145   1.327   4.918   2.463
 8727TIP3    H226146   1.347   4.887   2.316
 8728TIP3   OH226147   3.310   2.216   0.828
 8728TIP3    H126148   3.258   2.274   0.773
 8728TIP3    H226149   3.369   2.274   0.876
 8729TIP3   OH226150   1.916   5.097   4.961
 8729TIP3    H126151   1.859   5.021   4.943
 8729TIP3    H226152   1.873   5.170   4.917
 8730TIP3   OH226153   0.460   4.909   1.825
 8730TIP3    H126154   0.538   4.888   1.877
 8730TIP3    H226155   0.406   4.963   1.883
 8731TIP3   OH226156   3.829   6.117   4.547
 8731TIP3    H126157   3.863   6.046   4.602
 8731TIP3    H226158   3.796   6.073   4.469
 8732TIP3   OH226159   7.214   0.055   0.417
 8732TIP3    H126160   7.121   0.071   0.399
 8732TIP3    H226161   7.243   0.135   0.461
 8733TIP3   OH226162   2.483   4.773   4.642
 8733TIP3    H126163   2.510   4.708   4.577
 8733TIP3    H226164   2.427   4.833   4.594
 8734TIP3   OH226165   2.638   2.632   5.289
 8734TIP3    H126166   2.690   2.657   5.365
 8734TIP3    H226167   2.699   2.588   5.231
 8735TIP3   OH226168   2.440   5.502   5.488
 8735TIP3    H126169   2.454   5.408   5.500
 8735TIP3    H226170   2.481   5.542   5.564
 8736TIP3   OH226171   5.681   3.074   1.057
 8736TIP3    H126172   5.661   3.136   1.127
 8736TIP3    H226173   5.744   3.120   1.001
 8737TIP3   OH226174   5.526   5.891   4.618
 8737TIP3    H126175   5.555   5.980   4.637
 8737TIP3    H226176   5.554   5.840   4.694
 8738TIP3   OH226177   4.791   0.878   2.073
 8738TIP3    H126178   4.808   0.892   1.980
 8738TIP3    H226179   4.854   0.934   2.118
 8739TIP3   OH226180   6.257   6.035   2.172
 8739TIP3    H126181   6.175   5.997   2.141
 8739TIP3    H226182   6.320   5.963   2.168
 8740TIP3   OH226183   3.246   3.755   4.633
 8740TIP3    H126184   3.238   3.659   4.631
 8740TIP3    H226185   3.192   3.785   4.560
 8741TIP3   OH226186   2.572   5.843   4.551
 8741TIP3    H126187   2.560   5.753   4.520
 8741TIP3    H226188   2.511   5.851   4.624
 8742TIP3   OH226189   3.820   5.229   3.788
 8742TIP3    H126190   3.758   5.302   3.794
 8742TIP3    H226191   3.872   5.236   3.868
 8743TIP3   OH226192   0.828   5.830   4.757
 8743TIP3    H126193   0.893   5.766   4.787
 8743TIP3    H226194   0.777   5.850   4.836
 8744TIP3   OH226195   0.437   0.481   2.252
 8744TIP3    H126196   0.357   0.428   2.241
 8744TIP3    H226197   0.501   0.420   2.288
 8745TIP3   OH226198   4.793   4.039   4.827
 8745TIP3    H126199   4.798   3.946   4.849
 8745TIP3    H226200   4.882   4.072   4.842
 8746TIP3   OH226201   4.153   1.940   4.125
 8746TIP3    H126202   4.094   2.009   4.156
 8746TIP3    H226203   4.100   1.861   4.127
 8747TIP3   OH226204   6.937   5.935   0.787
 8747TIP3    H126205   7.003   5.996   0.821
 8747TIP3    H226206   6.867   5.937   0.853
 8748TIP3   OH226207   3.206   3.163   4.390
 8748TIP3    H126208   3.121   3.182   4.429
 8748TIP3    H226209   3.223   3.072   4.412
 8749TIP3   OH226210   6.156   0.724   0.864
 8749TIP3    H126211   6.071   0.699   0.826
 8749TIP3    H226212   6.211   0.647   0.853
 8750TIP3   OH226213   5.061   4.118   4.949
 8750TIP3    H126214   5.142   4.161   4.975
 8750TIP3    H226215   5.038   4.063   5.024
 8751TIP3   OH226216   2.065   6.683   4.487
 8751TIP3    H126217   2.137   6.630   4.452
 8751TIP3    H226218   2.108   6.759   4.527
 8752TIP3   OH226219   3.741   6.642   1.581
 8752TIP3    H126220   3.696   6.598   1.653
 8752TIP3    H226221   3.831   6.610   1.585
 8753TIP3   OH226222   5.727   4.508   0.463
 8753TIP3    H126223   5.754   4.526   0.373
 8753TIP3    H226224   5.808   4.480   0.507
 8754TIP3   OH226225   4.442   2.422   0.243
 8754TIP3    H126226   4.513   2.469   0.198
 8754TIP3    H226227   4.401   2.369   0.175
 8755TIP3   OH226228   1.064   3.776   5.117
 8755TIP3    H126229   1.125   3.843   5.086
 8755TIP3    H226230   0.982   3.796   5.073
 8756TIP3   OH226231   1.818   2.036   4.812
 8756TIP3    H126232   1.777   2.062   4.729
 8756TIP3    H226233   1.858   1.951   4.793
 8757TIP3   OH226234   0.794   1.888   1.556
 8757TIP3    H126235   0.867   1.831   1.533
 8757TIP3    H226236   0.719   1.829   1.562
 8758TIP3   OH226237   3.646   5.255   0.562
 8758TIP3    H126238   3.625   5.165   0.588
 8758TIP3    H226239   3.611   5.263   0.473
 8759TIP3   OH226240   2.260   4.652   5.804
 8759TIP3    H126241   2.175   4.615   5.782
 8759TIP3    H226242   2.277   4.717   5.735
 8760TIP3   OH226243   0.546   5.461   0.930
 8760TIP3    H126244   0.622   5.518   0.931
 8760TIP3    H226245   0.568   5.392   0.993
 8761TIP3   OH226246   5.406   5.984   0.692
 8761TIP3    H126247   5.497   5.952   0.687
 8761TIP3    H226248   5.365   5.952   0.612
 8762TIP3   OH226249   4.650   1.994   1.695
 8762TIP3    H126250   4.596   1.917   1.673
 8762TIP3    H226251   4.615   2.064   1.640
 8763TIP3   OH226252   1.307   0.155   1.711
 8763TIP3    H126253   1.233   0.196   1.666
 8763TIP3    H226254   1.338   0.222   1.772
 8764TIP3   OH226255   1.189   4.238   1.628
 8764TIP3    H126256   1.276   4.243   1.666
 8764TIP3    H226257   1.171   4.144   1.622
 8765TIP3   OH226258   5.760   4.904   3.257
 8765TIP3    H126259   5.689   4.889   3.319
 8765TIP3    H226260   5.717   4.916   3.173
 8766TIP3   OH226261   1.563   3.707   4.623
 8766TIP3    H126262   1.474   3.742   4.627
 8766TIP3    H226263   1.551   3.612   4.623
 8767TIP3   OH226264   4.489   5.024   0.507
 8767TIP3    H126265   4.581   5.045   0.493
 8767TIP3    H226266   4.442   5.076   0.442
 8768TIP3   OH226267   6.450   3.578   4.864
 8768TIP3    H126268   6.363   3.559   4.900
 8768TIP3    H226269   6.476   3.660   4.908
 8769TIP3   OH226270   5.017   5.324   3.725
 8769TIP3    H126271   5.079   5.388   3.762
 8769TIP3    H226272   5.017   5.343   3.631
 8770TIP3   OH226273   3.155   0.844   0.361
 8770TIP3    H126274   3.067   0.881   0.361
 8770TIP3    H226275   3.213   0.920   0.369
 8771TIP3   OH226276   1.215   3.408   1.120
 8771TIP3    H126277   1.220   3.405   1.024
 8771TIP3    H226278   1.260   3.328   1.148
 8772TIP3   OH226279   7.152   5.990   4.171
 8772TIP3    H126280   7.141   6.016   4.262
 8772TIP3    H226281   7.239   5.950   4.167
 8773TIP3   OH226282   4.356   1.468   0.145
 8773TIP3    H126283   4.322   1.422   0.221
 8773TIP3    H226284   4.450   1.452   0.147
 8774TIP3   OH226285   5.958   2.964   4.743
 8774TIP3    H126286   5.876   3.009   4.763
 8774TIP3    H226287   5.940   2.872   4.761
 8775TIP3   OH226288   5.923   1.587   3.975
 8775TIP3    H126289   5.995   1.576   3.913
 8775TIP3    H226290   5.962   1.568   4.060
 8776TIP3   OH226291   5.813   4.232   0.406
 8776TIP3    H126292   5.883   4.274   0.456
 8776TIP3    H226293   5.807   4.144   0.443
 8777TIP3   OH226294   5.239   3.554   4.783
 8777TIP3    H126295   5.252   3.642   4.748
 8777TIP3    H226296   5.317   3.538   4.836
 8778TIP3   OH226297   5.440   3.101   5.136
 8778TIP3    H126298   5.470   3.166   5.200
 8778TIP3    H226299   5.386   3.150   5.075
 8779TIP3   OH226300   1.071   0.738   1.892
 8779TIP3    H126301   1.011   0.783   1.832
 8779TIP3    H226302   1.104   0.807   1.949
 8780TIP3   OH226303   1.669   5.590   0.991
 8780TIP3    H126304   1.627   5.544   1.063
 8780TIP3    H226305   1.598   5.634   0.944
 8781TIP3   OH226306   0.337   6.743   2.860
 8781TIP3    H126307   0.353   6.806   2.930
 8781TIP3    H226308   0.422   6.701   2.846
 8782TIP3   OH226309   2.759   4.403   4.312
 8782TIP3    H126310   2.722   4.331   4.364
 8782TIP3    H226311   2.740   4.379   4.221
 8783TIP3   OH226312   3.410   5.723   2.079
 8783TIP3    H126313   3.346   5.660   2.046
 8783TIP3    H226314   3.450   5.679   2.154
 8784TIP3   OH226315   3.807   3.949   1.175
 8784TIP3    H126316   3.902   3.957   1.170
 8784TIP3    H226317   3.792   3.858   1.199
 8785TIP3   OH226318   6.328   3.168   3.756
 8785TIP3    H126319   6.351   3.231   3.688
 8785TIP3    H226320   6.280   3.220   3.821
 8786TIP3   OH226321   2.546   2.090   4.613
 8786TIP3    H126322   2.618   2.029   4.600
 8786TIP3    H226323   2.576   2.172   4.575
 8787TIP3   OH226324   0.882   4.471   3.216
 8787TIP3    H126325   0.880   4.491   3.309
 8787TIP3    H226326   0.929   4.388   3.210
 8788TIP3   OH226327   0.982   5.350   2.768
 8788TIP3    H126328   1.020   5.434   2.797
 8788TIP3    H226329   1.022   5.285   2.826
 8789TIP3   OH226330   0.426   5.712   3.206
 8789TIP3    H126331   0.447   5.626   3.168
 8789TIP3    H226332   0.400   5.765   3.130
 8790TIP3   OH226333   0.354   4.741   3.868
 8790TIP3    H126334   0.355   4.647   3.850
 8790TIP3    H226335   0.322   4.747   3.958
 8791TIP3   OH226336   6.410   2.571   0.025
 8791TIP3    H126337   6.428   2.514   0.100
 8791TIP3    H226338   6.315   2.569   0.015
 8792TIP3   OH226339   0.675   0.669   3.886
 8792TIP3    H126340   0.690   0.746   3.941
 8792TIP3    H226341   0.714   0.692   3.801
 8793TIP3   OH226342   5.372   0.071   3.820
 8793TIP3    H126343   5.368   0.054   3.914
 8793TIP3    H226344   5.326   0.154   3.808
 8794TIP3   OH226345   1.302   3.345   0.654
 8794TIP3    H126346   1.244   3.385   0.719
 8794TIP3    H226347   1.276   3.385   0.571
 8795TIP3   OH226348   4.457   3.841   1.023
 8795TIP3    H126349   4.524   3.895   1.063
 8795TIP3    H226350   4.474   3.846   0.929
 8796TIP3   OH226351   2.125   4.149   3.860
 8796TIP3    H126352   2.086   4.200   3.789
 8796TIP3    H226353   2.064   4.076   3.873
 8797TIP3   OH226354   5.241   0.437   2.140
 8797TIP3    H126355   5.281   0.481   2.066
 8797TIP3    H226356   5.149   0.429   2.117
 8798TIP3   OH226357   2.498   6.587   3.415
 8798TIP3    H126358   2.429   6.579   3.349
 8798TIP3    H226359   2.579   6.572   3.367
 8799TIP3   OH226360   1.462   5.728   1.360
 8799TIP3    H126361   1.549   5.761   1.338
 8799TIP3    H226362   1.476   5.637   1.386
 8800TIP3   OH226363   0.610   1.700   4.405
 8800TIP3    H126364   0.663   1.757   4.460
 8800TIP3    H226365   0.646   1.613   4.418
 8801TIP3   OH226366   6.583   4.761   4.452
 8801TIP3    H126367   6.656   4.768   4.514
 8801TIP3    H226368   6.613   4.698   4.387
 8802TIP3   OH226369   6.581   0.511   1.697
 8802TIP3    H126370   6.597   0.603   1.718
 8802TIP3    H226371   6.598   0.505   1.603
 8803TIP3   OH226372   0.570   6.098   4.379
 8803TIP3    H126373   0.547   6.109   4.287
 8803TIP3    H226374   0.520   6.166   4.425
 8804TIP3   OH226375   5.978   6.697   4.786
 8804TIP3    H126376   5.980   6.781   4.741
 8804TIP3    H226377   5.971   6.633   4.715
 8805TIP3   OH226378   2.044   4.908   1.807
 8805TIP3    H126379   2.001   4.836   1.854
 8805TIP3    H226380   2.137   4.890   1.816
 8806TIP3   OH226381   5.079   1.980   4.382
 8806TIP3    H126382   5.025   2.038   4.327
 8806TIP3    H226383   5.065   2.012   4.471
 8807TIP3   OH226384   0.422   4.780   2.213
 8807TIP3    H126385   0.493   4.799   2.151
 8807TIP3    H226386   0.465   4.770   2.297
 8808TIP3   OH226387   1.183   2.922   4.500
 8808TIP3    H126388   1.093   2.897   4.519
 8808TIP3    H226389   1.221   2.845   4.459
 8809TIP3   OH226390   5.176   2.442   3.928
 8809TIP3    H126391   5.090   2.428   3.967
 8809TIP3    H226392   5.179   2.536   3.909
 8810TIP3   OH226393   4.781   3.225   0.216
 8810TIP3    H126394   4.754   3.294   0.157
 8810TIP3    H226395   4.803   3.270   0.298
 8811TIP3   OH226396   0.106   5.610   5.308
 8811TIP3    H126397   0.181   5.613   5.368
 8811TIP3    H226398   0.113   5.691   5.258
 8812TIP3   OH226399   0.248   6.437   2.747
 8812TIP3    H126400   0.323   6.470   2.795
 8812TIP3    H226401   0.172   6.472   2.793
 8813TIP3   OH226402   4.709   0.713   5.071
 8813TIP3    H126403   4.717   0.683   4.980
 8813TIP3    H226404   4.615   0.708   5.089
 8814TIP3   OH226405   3.331   2.716   5.353
 8814TIP3    H126406   3.280   2.644   5.316
 8814TIP3    H226407   3.313   2.711   5.447
 8815TIP3   OH226408   0.835   0.695   5.187
 8815TIP3    H126409   0.918   0.739   5.174
 8815TIP3    H226410   0.775   0.738   5.126
 8816TIP3   OH226411   7.072   4.278   1.404
 8816TIP3    H126412   7.070   4.268   1.309
 8816TIP3    H226413   7.071   4.373   1.418
 8817TIP3   OH226414   5.440   0.721   1.035
 8817TIP3    H126415   5.403   0.708   1.122
 8817TIP3    H226416   5.468   0.812   1.034
 8818TIP3   OH226417   3.725   3.945   0.195
 8818TIP3    H126418   3.659   3.899   0.143
 8818TIP3    H226419   3.704   4.037   0.184
 8819TIP3   OH226420   4.075   2.425   0.149
 8819TIP3    H126421   4.096   2.453   0.060
 8819TIP3    H226422   4.022   2.346   0.137
 8820TIP3   OH226423   6.389   0.914   0.910
 8820TIP3    H126424   6.425   0.916   0.999
 8820TIP3    H226425   6.308   0.864   0.918
 8821TIP3   OH226426   5.868   2.537   5.085
 8821TIP3    H126427   5.892   2.584   5.165
 8821TIP3    H226428   5.941   2.476   5.071
 8822TIP3   OH226429   4.820   4.125   4.319
 8822TIP3    H126430   4.823   4.101   4.412
 8822TIP3    H226431   4.750   4.070   4.283
 8823TIP3   OH226432   6.063   1.453   4.387
 8823TIP3    H126433   6.131   1.453   4.320
 8823TIP3    H226434   6.068   1.540   4.427
 8824TIP3   OH226435   3.545   5.461   4.224
 8824TIP3    H126436   3.515   5.371   4.230
 8824TIP3    H226437   3.601   5.463   4.146
 8825TIP3   OH226438   1.498   0.869   3.312
 8825TIP3    H126439   1.443   0.792   3.303
 8825TIP3    H226440   1.516   0.898   3.222
 8826TIP3   OH226441   1.844   5.409   0.169
 8826TIP3    H126442   1.804   5.330   0.206
 8826TIP3    H226443   1.914   5.375   0.112
 8827TIP3   OH226444   4.541   3.636   1.767
 8827TIP3    H126445   4.600   3.626   1.842
 8827TIP3    H226446   4.598   3.626   1.691
 8828TIP3   OH226447   3.845   0.374   4.118
 8828TIP3    H126448   3.852   0.445   4.182
 8828TIP3    H226449   3.759   0.335   4.135
 8829TIP3   OH226450   1.677   3.989   1.228
 8829TIP3    H126451   1.765   3.994   1.191
 8829TIP3    H226452   1.624   4.048   1.174
 8830TIP3   OH226453   2.501   2.977   3.872
 8830TIP3    H126454   2.566   2.994   3.941
 8830TIP3    H226455   2.419   2.960   3.920
 8831TIP3   OH226456   3.755   4.359   4.867
 8831TIP3    H126457   3.745   4.364   4.772
 8831TIP3    H226458   3.833   4.411   4.886
 8832TIP3   OH226459   1.327   6.361   1.859
 8832TIP3    H126460   1.299   6.417   1.786
 8832TIP3    H226461   1.251   6.358   1.917
 8833TIP3   OH226462   0.416   4.213   3.043
 8833TIP3    H126463   0.341   4.259   3.005
 8833TIP3    H226464   0.457   4.169   2.969
 8834TIP3   OH226465   4.769   0.286   0.354
 8834TIP3    H126466   4.681   0.311   0.381
 8834TIP3    H226467   4.755   0.215   0.291
 8835TIP3   OH226468   4.008   2.136   1.506
 8835TIP3    H126469   3.957   2.078   1.563
 8835TIP3    H226470   4.048   2.078   1.442
 8836TIP3   OH226471   1.028   2.836   1.138
 8836TIP3    H126472   0.995   2.861   1.225
 8836TIP3    H226473   0.964   2.871   1.077
 8837TIP3   OH226474   5.244   1.498   3.613
 8837TIP3    H126475   5.209   1.498   3.524
 8837TIP3    H226476   5.171   1.528   3.668
 8838TIP3   OH226477   4.385   1.775   2.648
 8838TIP3    H126478   4.347   1.810   2.728
 8838TIP3    H226479   4.317   1.718   2.612
 8839TIP3   OH226480   5.225   3.232   5.419
 8839TIP3    H126481   5.148   3.191   5.379
 8839TIP3    H226482   5.249   3.302   5.358
 8840TIP3   OH226483   5.353   2.965   1.393
 8840TIP3    H126484   5.402   2.947   1.313
 8840TIP3    H226485   5.398   3.040   1.432
 8841TIP3   OH226486   7.038   6.695   2.148
 8841TIP3    H126487   7.057   6.762   2.213
 8841TIP3    H226488   6.946   6.710   2.125
 8842TIP3   OH226489   4.490   0.476   2.429
 8842TIP3    H126490   4.421   0.531   2.466
 8842TIP3    H226491   4.462   0.460   2.339
 8843TIP3   OH226492   4.905   3.271   1.870
 8843TIP3    H126493   4.913   3.365   1.886
 8843TIP3    H226494   4.931   3.229   1.952
 8844TIP3   OH226495   6.814   1.974   0.811
 8844TIP3    H126496   6.746   2.020   0.859
 8844TIP3    H226497   6.814   2.015   0.724
 8845TIP3   OH226498   2.152   3.245   3.955
 8845TIP3    H126499   2.105   3.289   4.026
 8845TIP3    H226500   2.220   3.306   3.929
 8846TIP3   OH226501   1.682   4.250   0.049
 8846TIP3    H126502   1.639   4.324   0.091
 8846TIP3    H226503   1.676   4.270  -0.045
 8847TIP3   OH226504   5.364   5.010   2.772
 8847TIP3    H126505   5.304   5.006   2.697
 8847TIP3    H226506   5.307   5.012   2.848
 8848TIP3   OH226507   3.120   1.649   2.537
 8848TIP3    H126508   3.178   1.645   2.613
 8848TIP3    H226509   3.045   1.700   2.566
 8849TIP3   OH226510   0.852   1.658   0.000
 8849TIP3    H126511   0.835   1.747   0.030
 8849TIP3    H226512   0.947   1.653  -0.010
 8850TIP3   OH226513   5.826   5.109   3.504
 8850TIP3    H126514   5.819   5.013   3.505
 8850TIP3    H226515   5.823   5.133   3.597
 8851TIP3   OH226516   4.184   4.158   0.367
 8851TIP3    H126517   4.181   4.064   0.349
 8851TIP3    H226518   4.160   4.165   0.459
 8852TIP3   OH226519   3.447   0.688   4.779
 8852TIP3    H126520   3.454   0.778   4.810
 8852TIP3    H226521   3.361   0.658   4.809
 8853TIP3   OH226522   3.497   2.076   3.197
 8853TIP3    H126523   3.482   2.163   3.234
 8853TIP3    H226524   3.591   2.073   3.181
 8854TIP3   OH226525   4.079   5.977   4.202
 8854TIP3    H126526   4.029   5.988   4.121
 8854TIP3    H226527   4.033   5.909   4.250
 8855TIP3   OH226528   5.147   4.446   4.664
 8855TIP3    H126529   5.160   4.534   4.630
 8855TIP3    H226530   5.234   4.406   4.662
 8856TIP3   OH226531   5.580   0.958   5.150
 8856TIP3    H126532   5.522   0.888   5.180
 8856TIP3    H226533   5.666   0.935   5.185
 8857TIP3   OH226534   1.097   6.118   2.061
 8857TIP3    H126535   1.155   6.129   2.136
 8857TIP3    H226536   1.027   6.182   2.074
 8858TIP3   OH226537   3.340   4.359   2.321
 8858TIP3    H126538   3.341   4.358   2.416
 8858TIP3    H226539   3.316   4.449   2.298
 8859TIP3   OH226540   6.562   4.028   5.854
 8859TIP3    H126541   6.491   3.996   5.909
 8859TIP3    H226542   6.556   4.123   5.860
 8860TIP3   OH226543   6.743   1.619   3.995
 8860TIP3    H126544   6.664   1.587   3.951
 8860TIP3    H226545   6.784   1.678   3.932
 8861TIP3   OH226546   1.061   4.187   4.964
 8861TIP3    H126547   0.997   4.149   5.024
 8861TIP3    H226548   1.038   4.280   4.961
 8862TIP3   OH226549   3.238   6.062   2.545
 8862TIP3    H126550   3.311   6.124   2.547
 8862TIP3    H226551   3.253   6.010   2.466
 8863TIP3   OH226552   4.380   2.628   1.923
 8863TIP3    H126553   4.432   2.647   1.845
 8863TIP3    H226554   4.300   2.588   1.890
 8864TIP3   OH226555   5.758   2.095   0.273
 8864TIP3    H126556   5.845   2.123   0.247
 8864TIP3    H226557   5.773   2.028   0.340
 8865TIP3   OH226558   5.329   5.095   2.212
 8865TIP3    H126559   5.294   5.156   2.277
 8865TIP3    H226560   5.252   5.051   2.176
 8866TIP3   OH226561   5.283   2.401   4.178
 8866TIP3    H126562   5.232   2.475   4.212
 8866TIP3    H226563   5.227   2.362   4.112
 8867TIP3   OH226564   6.471   0.039   2.344
 8867TIP3    H126565   6.528   0.114   2.330
 8867TIP3    H226566   6.415   0.065   2.418
 8868TIP3   OH226567   3.809   2.685   5.008
 8868TIP3    H126568   3.849   2.767   4.977
 8868TIP3    H226569   3.866   2.656   5.079
 8869TIP3   OH226570   6.741   3.193   0.486
 8869TIP3    H126571   6.715   3.218   0.397
 8869TIP3    H226572   6.724   3.098   0.490
 8870TIP3   OH226573   5.515   3.458   1.130
 8870TIP3    H126574   5.446   3.506   1.177
 8870TIP3    H226575   5.563   3.412   1.198
 8871TIP3   OH226576   6.956   2.130   0.313
 8871TIP3    H126577   7.042   2.141   0.272
 8871TIP3    H226578   6.976   2.099   0.402
 8872TIP3   OH226579   2.988   1.568   5.422
 8872TIP3    H126580   2.960   1.619   5.498
 8872TIP3    H226581   2.907   1.545   5.378
 8873TIP3   OH226582   1.140   4.412   0.022
 8873TIP3    H126583   1.161   4.319   0.028
 8873TIP3    H226584   1.159   4.446   0.109
 8874TIP3   OH226585   5.061   2.920   0.341
 8874TIP3    H126586   4.966   2.921   0.351
 8874TIP3    H226587   5.079   2.850   0.279
 8875TIP3   OH226588   1.602   3.110   3.197
 8875TIP3    H126589   1.624   3.181   3.136
 8875TIP3    H226590   1.651   3.034   3.164
 8876TIP3   OH226591   5.502   1.248   1.079
 8876TIP3    H126592   5.544   1.210   1.156
 8876TIP3    H226593   5.575   1.267   1.019
 8877TIP3   OH226594   2.207   2.878   0.275
 8877TIP3    H126595   2.212   2.886   0.179
 8877TIP3    H226596   2.118   2.907   0.296
 8878TIP3   OH226597   4.449   0.793   3.050
 8878TIP3    H126598   4.435   0.879   3.090
 8878TIP3    H226599   4.416   0.802   2.961
 8879TIP3   OH226600   0.151   5.096   4.608
 8879TIP3    H126601   0.173   5.181   4.571
 8879TIP3    H226602   0.174   5.033   4.539
 8880TIP3   OH226603   5.833   1.401   0.285
 8880TIP3    H126604   5.858   1.397   0.192
 8880TIP3    H226605   5.804   1.491   0.298
 8881TIP3   OH226606   1.085   5.388   3.101
 8881TIP3    H126607   1.111   5.358   3.188
 8881TIP3    H226608   1.006   5.338   3.081
 8882TIP3   OH226609   0.960   4.658   0.339
 8882TIP3    H126610   0.883   4.709   0.363
 8882TIP3    H226611   1.005   4.712   0.274
 8883TIP3   OH226612   6.653   5.227   0.469
 8883TIP3    H126613   6.702   5.235   0.551
 8883TIP3    H226614   6.637   5.318   0.442
 8884TIP3   OH226615   3.201   5.806   4.443
 8884TIP3    H126616   3.291   5.812   4.474
 8884TIP3    H226617   3.201   5.730   4.385
 8885TIP3   OH226618   7.051   4.273   2.160
 8885TIP3    H126619   6.964   4.312   2.163
 8885TIP3    H226620   7.059   4.225   2.242
 8886TIP3   OH226621   6.469   0.751   4.341
 8886TIP3    H126622   6.430   0.687   4.401
 8886TIP3    H226623   6.474   0.832   4.392
 8887TIP3   OH226624   6.882   0.103   0.688
 8887TIP3    H126625   6.975   0.104   0.713
 8887TIP3    H226626   6.848   0.021   0.724
 8888TIP3   OH226627   3.078   1.755   4.273
 8888TIP3    H126628   3.091   1.842   4.311
 8888TIP3    H226629   3.016   1.712   4.333
 8889TIP3   OH226630   3.899   5.723   1.947
 8889TIP3    H126631   3.852   5.653   1.992
 8889TIP3    H226632   3.988   5.719   1.983
 8890TIP3   OH226633   5.242   1.292   2.583
 8890TIP3    H126634   5.208   1.353   2.648
 8890TIP3    H226635   5.322   1.258   2.622
 8891TIP3   OH226636   5.682   2.166   0.653
 8891TIP3    H126637   5.744   2.098   0.681
 8891TIP3    H226638   5.684   2.230   0.723
 8892TIP3   OH226639   3.533   4.117   0.664
 8892TIP3    H126640   3.576   4.043   0.707
 8892TIP3    H226641   3.554   4.107   0.572
 8893TIP3   OH226642   3.749   2.060   3.004
 8893TIP3    H126643   3.671   2.012   2.979
 8893TIP3    H226644   3.804   2.060   2.926
 8894TIP3   OH226645   4.583   1.954   5.768
 8894TIP3    H126646   4.615   1.876   5.722
 8894TIP3    H226647   4.646   2.023   5.745
 8895TIP3   OH226648   2.598   4.009   4.171
 8895TIP3    H126649   2.537   4.077   4.199
 8895TIP3    H226650   2.682   4.034   4.209
 8896TIP3   OH226651   2.414   0.717   5.626
 8896TIP3    H126652   2.436   0.747   5.537
 8896TIP3    H226653   2.453   0.782   5.684
 8897TIP3   OH226654   3.387   2.741   4.113
 8897TIP3    H126655   3.455   2.724   4.048
 8897TIP3    H226656   3.408   2.682   4.186
 8898TIP3   OH226657   4.667   6.647   5.768
 8898TIP3    H126658   4.750   6.599   5.766
 8898TIP3    H226659   4.608   6.591   5.818
 8899TIP3   OH226660   5.111   0.068   1.224
 8899TIP3    H126661   5.079   0.020   1.147
 8899TIP3    H226662   5.140   0.152   1.190
 8900TIP3   OH226663   0.057   3.764   4.368
 8900TIP3    H126664   0.124   3.780   4.434
 8900TIP3    H226665   0.018   3.680   4.393
 8901TIP3   OH226666   6.256   3.281   2.310
 8901TIP3    H126667   6.188   3.261   2.246
 8901TIP3    H226668   6.267   3.375   2.306
 8902TIP3   OH226669   6.320   0.441   0.303
 8902TIP3    H126670   6.342   0.476   0.389
 8902TIP3    H226671   6.344   0.511   0.242
 8903TIP3   OH226672   0.457   4.532   5.859
 8903TIP3    H126673   0.478   4.599   5.924
 8903TIP3    H226674   0.361   4.526   5.860
 8904TIP3   OH226675   6.604   1.885   3.909
 8904TIP3    H126676   6.586   1.943   3.834
 8904TIP3    H226677   6.558   1.804   3.888
 8905TIP3   OH226678   0.526   2.744   2.309
 8905TIP3    H126679   0.566   2.774   2.227
 8905TIP3    H226680   0.556   2.805   2.375
 8906TIP3   OH226681   1.776   2.059   5.585
 8906TIP3    H126682   1.682   2.063   5.599
 8906TIP3    H226683   1.786   2.012   5.502
 8907TIP3   OH226684   5.957   0.275   0.309
 8907TIP3    H126685   6.041   0.268   0.263
 8907TIP3    H226686   5.945   0.369   0.324
 8908TIP3   OH226687   0.807   6.370   5.187
 8908TIP3    H126688   0.846   6.344   5.271
 8908TIP3    H226689   0.713   6.357   5.200
 8909TIP3   OH226690   6.862   3.779   4.633
 8909TIP3    H126691   6.946   3.814   4.664
 8909TIP3    H226692   6.861   3.688   4.663
 8910TIP3   OH226693   4.541   1.825   0.353
 8910TIP3    H126694   4.494   1.898   0.314
 8910TIP3    H226695   4.472   1.769   0.388
 8911TIP3   OH226696   3.770   4.699   1.039
 8911TIP3    H126697   3.788   4.647   1.118
 8911TIP3    H226698   3.700   4.651   0.995
 8912TIP3   OH226699   5.154   1.636   1.245
 8912TIP3    H126700   5.071   1.602   1.212
 8912TIP3    H226701   5.221   1.585   1.200
 8913TIP3   OH226702   2.967   3.860   2.917
 8913TIP3    H126703   2.904   3.883   2.849
 8913TIP3    H226704   2.922   3.882   2.999
 8914TIP3   OH226705   6.252   0.733   5.738
 8914TIP3    H126706   6.188   0.779   5.684
 8914TIP3    H226707   6.328   0.721   5.681
 8915TIP3   OH226708   7.035   4.560   5.017
 8915TIP3    H126709   7.111   4.618   5.030
 8915TIP3    H226710   7.010   4.534   5.105
 8916TIP3   OH226711   1.705   0.047   0.252
 8916TIP3    H126712   1.679  -0.041   0.223
 8916TIP3    H226713   1.780   0.069   0.196
 8917TIP3   OH226714   5.090   4.767   0.988
 8917TIP3    H126715   5.121   4.808   0.907
 8917TIP3    H226716   5.134   4.682   0.992
 8918TIP3   OH226717   2.647   6.328   0.438
 8918TIP3    H126718   2.591   6.405   0.424
 8918TIP3    H226719   2.592   6.267   0.487
 8919TIP3   OH226720   2.809   6.162   0.066
 8919TIP3    H126721   2.766   6.240   0.100
 8919TIP3    H226722   2.740   6.114   0.020
 8920TIP3   OH226723   2.314   1.459   1.967
 8920TIP3    H126724   2.270   1.388   2.014
 8920TIP3    H226725   2.245   1.523   1.949
 8921TIP3   OH226726   6.584   2.349   0.484
 8921TIP3    H126727   6.662   2.355   0.428
 8921TIP3    H226728   6.569   2.438   0.514
 8922TIP3   OH226729   2.122   5.562   4.186
 8922TIP3    H126730   2.082   5.583   4.102
 8922TIP3    H226731   2.216   5.567   4.170
 8923TIP3   OH226732   6.710   5.850   3.896
 8923TIP3    H126733   6.615   5.863   3.898
 8923TIP3    H226734   6.746   5.935   3.918
 8924TIP3   OH226735   3.878   4.037   5.835
 8924TIP3    H126736   3.872   3.958   5.781
 8924TIP3    H226737   3.794   4.082   5.820
 8925TIP3   OH226738   5.806   4.349   2.267
 8925TIP3    H126739   5.840   4.435   2.294
 8925TIP3    H226740   5.713   4.352   2.291
 8926TIP3   OH226741   1.522   6.797   0.747
 8926TIP3    H126742   1.471   6.781   0.667
 8926TIP3    H226743   1.474   6.751   0.815
 8927TIP3   OH226744   6.008   4.186   2.340
 8927TIP3    H126745   5.969   4.111   2.385
 8927TIP3    H226746   5.934   4.241   2.316
 8928TIP3   OH226747   1.402   2.149   4.936
 8928TIP3    H126748   1.412   2.089   4.862
 8928TIP3    H226749   1.415   2.236   4.899
 8929TIP3   OH226750   5.258   3.684   0.727
 8929TIP3    H126751   5.284   3.596   0.698
 8929TIP3    H226752   5.340   3.725   0.755
 8930TIP3   OH226753   4.731   5.798   5.719
 8930TIP3    H126754   4.769   5.878   5.682
 8930TIP3    H226755   4.727   5.814   5.813
 8931TIP3   OH226756   5.501   0.750   4.500
 8931TIP3    H126757   5.457   0.670   4.530
 8931TIP3    H226758   5.489   0.813   4.571
 8932TIP3   OH226759   3.267   3.444   1.681
 8932TIP3    H126760   3.216   3.437   1.601
 8932TIP3    H226761   3.223   3.513   1.731
 8933TIP3   OH226762   4.426   5.176   1.458
 8933TIP3    H126763   4.490   5.146   1.522
 8933TIP3    H226764   4.453   5.134   1.376
 8934TIP3   OH226765   6.497   1.749   5.485
 8934TIP3    H126766   6.474   1.810   5.415
 8934TIP3    H226767   6.421   1.692   5.494
 8935TIP3   OH226768   5.304   1.549   4.375
 8935TIP3    H126769   5.385   1.587   4.342
 8935TIP3    H226770   5.331   1.490   4.446
 8936TIP3   OH226771   4.568   6.352   0.316
 8936TIP3    H126772   4.551   6.328   0.407
 8936TIP3    H226773   4.562   6.448   0.316
 8937TIP3   OH226774   0.090   4.420   0.053
 8937TIP3    H126775   0.114   4.467  -0.027
 8937TIP3    H226776   0.095   4.487   0.122
 8938TIP3   OH226777   0.043   5.058   0.191
 8938TIP3    H126778   0.126   5.024   0.223
 8938TIP3    H226779  -0.002   4.981   0.156
 8939TIP3   OH226780   1.018   0.327   2.787
 8939TIP3    H126781   1.060   0.272   2.722
 8939TIP3    H226782   1.089   0.362   2.841
 8940TIP3   OH226783   5.313   4.467   0.999
 8940TIP3    H126784   5.346   4.378   0.993
 8940TIP3    H226785   5.227   4.464   0.957
 8941TIP3   OH226786   2.729   4.044   0.101
 8941TIP3    H126787   2.801   3.982   0.116
 8941TIP3    H226788   2.763   4.103   0.034
 8942TIP3   OH226789   0.644   1.576   2.033
 8942TIP3    H126790   0.634   1.671   2.041
 8942TIP3    H226791   0.559   1.541   2.062
 8943TIP3   OH226792   6.765   5.728   2.438
 8943TIP3    H126793   6.762   5.812   2.393
 8943TIP3    H226794   6.717   5.742   2.520
 8944TIP3   OH226795   1.004   2.534   5.112
 8944TIP3    H126796   0.914   2.542   5.079
 8944TIP3    H226797   1.053   2.499   5.038
 8945TIP3   OH226798   2.359   5.612   4.493
 8945TIP3    H126799   2.418   5.552   4.446
 8945TIP3    H226800   2.379   5.598   4.585
 8946TIP3   OH226801   6.793   6.740   4.572
 8946TIP3    H126802   6.864   6.743   4.508
 8946TIP3    H226803   6.837   6.726   4.656
 8947TIP3   OH226804   0.695   3.391   2.712
 8947TIP3    H126805   0.610   3.407   2.670
 8947TIP3    H226806   0.715   3.472   2.758
 8948TIP3   OH226807   0.551   2.870   3.224
 8948TIP3    H126808   0.518   2.887   3.136
 8948TIP3    H226809   0.474   2.843   3.274
 8949TIP3   OH226810   3.554   4.717   0.150
 8949TIP3    H126811   3.504   4.776   0.095
 8949TIP3    H226812   3.507   4.716   0.234
 8950TIP3   OH226813   2.510   0.312   5.540
 8950TIP3    H126814   2.448   0.350   5.602
 8950TIP3    H226815   2.572   0.264   5.595
 8951TIP3   OH226816   5.867   6.518   2.820
 8951TIP3    H126817   5.775   6.519   2.791
 8951TIP3    H226818   5.893   6.610   2.822
 8952TIP3   OH226819   6.064   3.112   5.157
 8952TIP3    H126820   6.069   3.019   5.134
 8952TIP3    H226821   5.972   3.126   5.179
 8953TIP3   OH226822   7.162   4.572   1.465
 8953TIP3    H126823   7.245   4.538   1.498
 8953TIP3    H226824   7.120   4.612   1.542
 8954TIP3   OH226825   6.899   3.895   0.040
 8954TIP3    H126826   6.807   3.922   0.041
 8954TIP3    H226827   6.910   3.844   0.120
 8955TIP3   OH226828   5.087   4.653   1.371
 8955TIP3    H126829   5.022   4.604   1.421
 8955TIP3    H226830   5.169   4.642   1.420
 8956TIP3   OH226831   4.874   1.532   2.483
 8956TIP3    H126832   4.787   1.523   2.522
 8956TIP3    H226833   4.926   1.463   2.523
 8957TIP3   OH226834   5.265   2.228   3.780
 8957TIP3    H126835   5.325   2.180   3.837
 8957TIP3    H226836   5.234   2.301   3.834
 8958TIP3   OH226837   6.336   0.519   4.444
 8958TIP3    H126838   6.250   0.478   4.433
 8958TIP3    H226839   6.359   0.500   4.535
 8959TIP3   OH226840   2.825   2.507   3.146
 8959TIP3    H126841   2.900   2.507   3.087
 8959TIP3    H226842   2.749   2.515   3.088
 8960TIP3   OH226843   2.546   3.284   5.371
 8960TIP3    H126844   2.489   3.237   5.310
 8960TIP3    H226845   2.517   3.375   5.365
 8961TIP3   OH226846   5.069   4.089   0.100
 8961TIP3    H126847   5.076   4.122   0.190
 8961TIP3    H226848   5.140   4.132   0.053
 8962TIP3   OH226849   2.501   5.371   0.752
 8962TIP3    H126850   2.472   5.345   0.840
 8962TIP3    H226851   2.425   5.355   0.696
 8963TIP3   OH226852   2.967   1.998   5.392
 8963TIP3    H126853   2.882   2.042   5.398
 8963TIP3    H226854   2.955   1.932   5.324
 8964TIP3   OH226855   4.912   3.233   3.101
 8964TIP3    H126856   4.898   3.183   3.182
 8964TIP3    H226857   4.859   3.312   3.113
 8965TIP3   OH226858   4.912   0.744   3.637
 8965TIP3    H126859   4.890   0.724   3.546
 8965TIP3    H226860   5.006   0.731   3.643
 8966TIP3   OH226861   4.968   5.128   1.165
 8966TIP3    H126862   5.057   5.109   1.195
 8966TIP3    H226863   4.979   5.172   1.081
 8967TIP3   OH226864   3.707   0.519   0.504
 8967TIP3    H126865   3.794   0.502   0.541
 8967TIP3    H226866   3.714   0.608   0.468
 8968TIP3   OH226867   6.022   2.841   5.109
 8968TIP3    H126868   5.941   2.847   5.057
 8968TIP3    H226869   6.003   2.774   5.175
 8969TIP3   OH226870   4.967   5.959   0.444
 8969TIP3    H126871   4.894   5.999   0.396
 8969TIP3    H226872   4.924   5.911   0.515
 8970TIP3   OH226873   3.771   4.972   1.713
 8970TIP3    H126874   3.692   4.983   1.660
 8970TIP3    H226875   3.807   5.061   1.721
 8971TIP3   OH226876   6.447   5.247   0.883
 8971TIP3    H126877   6.400   5.315   0.931
 8971TIP3    H226878   6.378   5.202   0.834
 8972TIP3   OH226879   5.524   5.540   5.496
 8972TIP3    H126880   5.527   5.572   5.586
 8972TIP3    H226881   5.431   5.528   5.478
 8973TIP3   OH226882   1.237   4.215   1.271
 8973TIP3    H126883   1.247   4.254   1.184
 8973TIP3    H226884   1.299   4.262   1.326
 8974TIP3   OH226885   0.379   2.464   1.290
 8974TIP3    H126886   0.463   2.418   1.297
 8974TIP3    H226887   0.341   2.432   1.208
 8975TIP3   OH226888   6.578   2.158   2.110
 8975TIP3    H126889   6.484   2.147   2.094
 8975TIP3    H226890   6.582   2.205   2.193
 8976TIP3   OH226891   3.752   5.704   1.118
 8976TIP3    H126892   3.670   5.654   1.117
 8976TIP3    H226893   3.813   5.648   1.166
 8977TIP3   OH226894   1.932   6.626   2.688
 8977TIP3    H126895   1.841   6.597   2.687
 8977TIP3    H226896   1.984   6.546   2.694
 8978TIP3   OH226897   6.629   5.216   2.711
 8978TIP3    H126898   6.597   5.280   2.647
 8978TIP3    H226899   6.552   5.196   2.764
 8979TIP3   OH226900   6.953   6.206   2.928
 8979TIP3    H126901   6.916   6.250   2.851
 8979TIP3    H226902   7.048   6.215   2.917
 8980TIP3   OH226903   3.589   6.753   1.859
 8980TIP3    H126904   3.672   6.795   1.879
 8980TIP3    H226905   3.580   6.684   1.926
 8981TIP3   OH226906   2.274   0.833   0.332
 8981TIP3    H126907   2.348   0.797   0.382
 8981TIP3    H226908   2.197   0.788   0.367
 8982TIP3   OH226909   2.348   2.784   3.266
 8982TIP3    H126910   2.352   2.693   3.238
 8982TIP3    H226911   2.271   2.820   3.222
 8983TIP3   OH226912   1.953   3.515   0.932
 8983TIP3    H126913   1.968   3.421   0.933
 8983TIP3    H226914   1.928   3.535   0.842
 8984TIP3   OH226915   6.597   0.775   3.456
 8984TIP3    H126916   6.587   0.726   3.537
 8984TIP3    H226917   6.669   0.835   3.472
 8985TIP3   OH226918   5.839   0.655   3.975
 8985TIP3    H126919   5.914   0.708   3.947
 8985TIP3    H226920   5.786   0.644   3.896
 8986TIP3   OH226921   0.914   1.855   5.787
 8986TIP3    H126922   0.892   1.807   5.867
 8986TIP3    H226923   0.849   1.926   5.783
 8987TIP3   OH226924   2.508   6.285   2.676
 8987TIP3    H126925   2.417   6.258   2.682
 8987TIP3    H226926   2.505   6.378   2.653
 8988TIP3   OH226927   6.849   3.564   1.213
 8988TIP3    H126928   6.918   3.576   1.278
 8988TIP3    H226929   6.836   3.651   1.176
 8989TIP3   OH226930   6.103   6.353   3.681
 8989TIP3    H126931   6.191   6.317   3.678
 8989TIP3    H226932   6.112   6.443   3.650
 8990TIP3   OH226933   4.158   1.036   3.401
 8990TIP3    H126934   4.120   1.024   3.488
 8990TIP3    H226935   4.090   1.080   3.350
 8991TIP3   OH226936   0.095   2.745   1.567
 8991TIP3    H126937   0.165   2.710   1.622
 8991TIP3    H226938   0.036   2.790   1.627
 8992TIP3   OH226939   5.339   2.173   3.525
 8992TIP3    H126940   5.337   2.209   3.613
 8992TIP3    H226941   5.388   2.091   3.534
 8993TIP3   OH226942   3.374   3.235   2.847
 8993TIP3    H126943   3.456   3.235   2.796
 8993TIP3    H226944   3.379   3.316   2.898
 8994TIP3   OH226945   2.236   4.075   5.389
 8994TIP3    H126946   2.156   4.110   5.429
 8994TIP3    H226947   2.307   4.119   5.435
 8995TIP3   OH226948   5.664   1.862   4.574
 8995TIP3    H126949   5.658   1.914   4.493
 8995TIP3    H226950   5.758   1.851   4.587
 8996TIP3   OH226951   1.916   2.936   2.561
 8996TIP3    H126952   1.895   3.000   2.493
 8996TIP3    H226953   2.012   2.937   2.566
 8997TIP3   OH226954   3.615   5.904   3.424
 8997TIP3    H126955   3.614   5.979   3.365
 8997TIP3    H226956   3.553   5.842   3.386
 8998TIP3   OH226957   2.350   4.678   0.522
 8998TIP3    H126958   2.437   4.699   0.489
 8998TIP3    H226959   2.291   4.704   0.452
 8999TIP3   OH226960   5.795   1.006   1.950
 8999TIP3    H126961   5.882   1.017   1.989
 8999TIP3    H226962   5.805   1.039   1.861
 9000TIP3   OH226963   4.153   5.603   1.059
 9000TIP3    H126964   4.096   5.576   0.987
 9000TIP3    H226965   4.241   5.576   1.032
 9001TIP3   OH226966   1.962   2.072   1.718
 9001TIP3    H126967   1.889   2.018   1.748
 9001TIP3    H226968   1.937   2.162   1.742
 9002TIP3   OH226969   2.772   4.930   1.763
 9002TIP3    H126970   2.752   5.023   1.760
 9002TIP3    H226971   2.833   4.915   1.691
 9003TIP3   OH226972   0.096   1.212   5.338
 9003TIP3    H126973   0.084   1.279   5.405
 9003TIP3    H226974   0.007   1.188   5.311
 9004TIP3   OH226975   5.773   5.343   0.516
 9004TIP3    H126976   5.815   5.363   0.433
 9004TIP3    H226977   5.779   5.248   0.524
 9005TIP3   OH226978   6.179   5.311   3.672
 9005TIP3    H126979   6.129   5.373   3.619
 9005TIP3    H226980   6.271   5.336   3.659
 9006TIP3   OH226981   2.086   5.647   2.945
 9006TIP3    H126982   2.036   5.627   3.024
 9006TIP3    H226983   2.147   5.715   2.973
 9007TIP3   OH226984   6.809   4.404   1.183
 9007TIP3    H126985   6.888   4.385   1.133
 9007TIP3    H226986   6.838   4.461   1.254
 9008TIP3   OH226987   2.309   2.974   1.649
 9008TIP3    H126988   2.368   2.927   1.707
 9008TIP3    H226989   2.232   2.992   1.703
 9009TIP3   OH226990   6.617   4.729   1.766
 9009TIP3    H126991   6.574   4.679   1.836
 9009TIP3    H226992   6.576   4.697   1.686
 9010TIP3   OH226993   2.947   3.784   0.105
 9010TIP3    H126994   2.874   3.733   0.070
 9010TIP3    H226995   3.021   3.722   0.105
 9011TIP3   OH226996   4.338   4.725   0.633
 9011TIP3    H126997   4.421   4.755   0.594
 9011TIP3    H226998   4.365   4.679   0.713
 9012TIP3   OH226999   5.671   4.584   1.901
 9012TIP3    H127000   5.714   4.667   1.921
 9012TIP3    H227001   5.736   4.536   1.850
 9013TIP3   OH227002   4.644   6.590   4.902
 9013TIP3    H127003   4.561   6.607   4.946
 9013TIP3    H227004   4.630   6.509   4.853
 9014TIP3   OH227005   0.204   3.779   4.978
 9014TIP3    H127006   0.124   3.832   4.982
 9014TIP3    H227007   0.271   3.839   4.947
 9015TIP3   OH227008   6.515   5.697   4.334
 9015TIP3    H127009   6.564   5.642   4.273
 9015TIP3    H227010   6.440   5.644   4.360
 9016TIP3   OH227011   0.941   3.590   5.313
 9016TIP3    H127012   0.904   3.582   5.225
 9016TIP3    H227013   0.867   3.575   5.372
 9017TIP3   OH227014   2.058   3.151   0.312
 9017TIP3    H127015   2.082   3.181   0.224
 9017TIP3    H227016   1.963   3.160   0.315
 9018TIP3   OH227017   0.636   6.550   4.051
 9018TIP3    H127018   0.640   6.458   4.077
 9018TIP3    H227019   0.697   6.594   4.110
 9019TIP3   OH227020   4.688   0.205   3.274
 9019TIP3    H127021   4.683   0.200   3.178
 9019TIP3    H227022   4.606   0.166   3.304
 9020TIP3   OH227023   5.466   3.829   0.849
 9020TIP3    H127024   5.525   3.765   0.888
 9020TIP3    H227025   5.407   3.854   0.920
 9021TIP3   OH227026   0.543   0.211   3.462
 9021TIP3    H127027   0.612   0.166   3.413
 9021TIP3    H227028   0.589   0.253   3.535
 9022TIP3   OH227029   6.014   1.094   0.904
 9022TIP3    H127030   6.070   1.080   0.981
 9022TIP3    H227031   6.051   1.171   0.862
 9023TIP3   OH227032   5.281   1.536   1.742
 9023TIP3    H127033   5.274   1.587   1.823
 9023TIP3    H227034   5.227   1.584   1.678
 9024TIP3   OH227035   2.728   1.903   5.846
 9024TIP3    H127036   2.779   1.898   5.927
 9024TIP3    H227037   2.769   1.973   5.796
 9025TIP3   OH227038   0.530   3.170   1.552
 9025TIP3    H127039   0.444   3.131   1.568
 9025TIP3    H227040   0.580   3.150   1.631
 9026TIP3   OH227041   4.939   3.634   4.215
 9026TIP3    H127042   4.897   3.701   4.161
 9026TIP3    H227043   4.927   3.664   4.305
 9027TIP3   OH227044   1.359   1.282   3.878
 9027TIP3    H127045   1.310   1.359   3.906
 9027TIP3    H227046   1.401   1.249   3.958
 9028TIP3   OH227047   3.486   2.362   1.018
 9028TIP3    H127048   3.448   2.427   0.959
 9028TIP3    H227049   3.427   2.362   1.094
 9029TIP3   OH227050   0.492   2.826   4.499
 9029TIP3    H127051   0.440   2.749   4.477
 9029TIP3    H227052   0.513   2.815   4.592
 9030TIP3   OH227053   0.184  -0.006   3.528
 9030TIP3    H127054   0.093  -0.034   3.537
 9030TIP3    H227055   0.184   0.058   3.458
 9031TIP3   OH227056   2.397   5.685   2.796
 9031TIP3    H127057   2.347   5.714   2.872
 9031TIP3    H227058   2.425   5.597   2.818
 9032TIP3   OH227059   4.014   2.898   4.972
 9032TIP3    H127060   4.043   2.856   4.891
 9032TIP3    H227061   4.020   2.992   4.953
 9033TIP3   OH227062   3.875   2.064   3.275
 9033TIP3    H127063   3.837   2.040   3.190
 9033TIP3    H227064   3.963   2.094   3.253
 9034TIP3   OH227065   1.421   5.399   4.674
 9034TIP3    H127066   1.511   5.402   4.706
 9034TIP3    H227067   1.418   5.466   4.606
 9035TIP3   OH227068   3.540   5.030   1.889
 9035TIP3    H127069   3.507   4.946   1.920
 9035TIP3    H227070   3.530   5.026   1.794
 9036TIP3   OH227071   6.246   6.610   4.374
 9036TIP3    H127072   6.274   6.542   4.436
 9036TIP3    H227073   6.151   6.611   4.381
 9037TIP3   OH227074   5.996   6.457   0.751
 9037TIP3    H127075   6.077   6.489   0.711
 9037TIP3    H227076   6.024   6.388   0.810
 9038TIP3   OH227077   1.833   4.840   0.229
 9038TIP3    H127078   1.801   4.925   0.261
 9038TIP3    H227079   1.759   4.780   0.241
 9039TIP3   OH227080   2.398   1.423   1.652
 9039TIP3    H127081   2.423   1.340   1.610
 9039TIP3    H227082   2.399   1.487   1.582
 9040TIP3   OH227083   4.588   3.764   5.337
 9040TIP3    H127084   4.606   3.855   5.314
 9040TIP3    H227085   4.505   3.744   5.294
 9041TIP3   OH227086   4.056   2.841   4.499
 9041TIP3    H127087   4.065   2.859   4.405
 9041TIP3    H227088   3.988   2.901   4.529
 9042TIP3   OH227089   5.331   3.596   2.212
 9042TIP3    H127090   5.358   3.505   2.223
 9042TIP3    H227091   5.365   3.622   2.126
 9043TIP3   OH227092   6.936   3.950   5.604
 9043TIP3    H127093   6.942   4.045   5.617
 9043TIP3    H227094   6.856   3.925   5.649
 9044TIP3   OH227095   2.384   1.983   0.723
 9044TIP3    H127096   2.420   2.069   0.702
 9044TIP3    H227097   2.460   1.925   0.725
 9045TIP3   OH227098   0.448   0.879   4.369
 9045TIP3    H127099   0.484   0.791   4.357
 9045TIP3    H227100   0.525   0.936   4.374
 9046TIP3   OH227101   0.172   3.926   0.148
 9046TIP3    H127102   0.106   3.996   0.151
 9046TIP3    H227103   0.185   3.909   0.055
 9047TIP3   OH227104   3.805   3.246   3.973
 9047TIP3    H127105   3.787   3.192   3.896
 9047TIP3    H227106   3.900   3.243   3.983
 9048TIP3   OH227107   0.730   2.784   4.162
 9048TIP3    H127108   0.784   2.855   4.198
 9048TIP3    H227109   0.713   2.811   4.072
 9049TIP3   OH227110   4.288   0.334   4.799
 9049TIP3    H127111   4.217   0.338   4.862
 9049TIP3    H227112   4.366   0.356   4.849
 9050TIP3   OH227113   3.291   5.681   2.611
 9050TIP3    H127114   3.329   5.594   2.596
 9050TIP3    H227115   3.368   5.737   2.625
 9051TIP3   OH227116   5.977   4.880   3.946
 9051TIP3    H127117   5.882   4.871   3.936
 9051TIP3    H227118   6.012   4.794   3.925
 9052TIP3   OH227119   3.506   3.412   1.567
 9052TIP3    H127120   3.426   3.419   1.619
 9052TIP3    H227121   3.489   3.342   1.504
 9053TIP3   OH227122   2.963   4.908   2.230
 9053TIP3    H127123   2.935   4.859   2.153
 9053TIP3    H227124   3.049   4.943   2.207
 9054TIP3   OH227125   4.302   3.190   3.754
 9054TIP3    H127126   4.248   3.140   3.815
 9054TIP3    H227127   4.240   3.235   3.697
 9055TIP3   OH227128   3.959   0.629   0.149
 9055TIP3    H127129   3.940   0.535   0.159
 9055TIP3    H227130   3.969   0.660   0.239
 9056TIP3   OH227131   4.749   3.726   4.858
 9056TIP3    H127132   4.745   3.714   4.953
 9056TIP3    H227133   4.842   3.722   4.837
 9057TIP3   OH227134   2.259   6.637   1.206
 9057TIP3    H127135   2.292   6.547   1.207
 9057TIP3    H227136   2.207   6.645   1.286
 9058TIP3   OH227137   4.807   4.173   0.191
 9058TIP3    H127138   4.727   4.120   0.196
 9058TIP3    H227139   4.877   4.112   0.215
 9059TIP3   OH227140   1.131   3.117   1.529
 9059TIP3    H127141   1.074   3.159   1.594
 9059TIP3    H227142   1.215   3.161   1.540
 9060TIP3   OH227143   3.766   4.965   1.348
 9060TIP3    H127144   3.832   5.005   1.405
 9060TIP3    H227145   3.792   4.873   1.343
 9061TIP3   OH227146   4.872   5.393   4.811
 9061TIP3    H127147   4.891   5.301   4.830
 9061TIP3    H227148   4.844   5.430   4.895
 9062TIP3   OH227149   0.474   1.709   0.778
 9062TIP3    H127150   0.385   1.732   0.805
 9062TIP3    H227151   0.530   1.773   0.823
 9063TIP3   OH227152   4.689   1.399   0.100
 9063TIP3    H127153   4.760   1.435   0.046
 9063TIP3    H227154   4.719   1.411   0.190
 9064TIP3   OH227155   6.857   1.899   2.918
 9064TIP3    H127156   6.946   1.863   2.909
 9064TIP3    H227157   6.802   1.838   2.868
 9065TIP3   OH227158   5.309   1.606   3.173
 9065TIP3    H127159   5.318   1.630   3.081
 9065TIP3    H227160   5.329   1.686   3.221
 9066TIP3   OH227161   5.487   3.090   5.542
 9066TIP3    H127162   5.465   3.183   5.544
 9066TIP3    H227163   5.419   3.048   5.594
 9067TIP3   OH227164   3.608   4.169   2.809
 9067TIP3    H127165   3.599   4.078   2.782
 9067TIP3    H227166   3.522   4.193   2.843
 9068TIP3   OH227167   4.407   0.271   3.089
 9068TIP3    H127168   4.456   0.313   3.018
 9068TIP3    H227169   4.324   0.245   3.050
 9069TIP3   OH227170   5.436   0.260   4.570
 9069TIP3    H127171   5.491   0.324   4.525
 9069TIP3    H227172   5.372   0.233   4.504
 9070TIP3   OH227173   1.584   2.829   5.066
 9070TIP3    H127174   1.675   2.848   5.090
 9070TIP3    H227175   1.563   2.895   5.000
 9071TIP3   OH227176   6.262   5.505   5.533
 9071TIP3    H127177   6.263   5.569   5.605
 9071TIP3    H227178   6.214   5.549   5.463
 9072TIP3   OH227179   0.872   6.230   1.284
 9072TIP3    H127180   0.911   6.175   1.352
 9072TIP3    H227181   0.811   6.287   1.332
 9073TIP3   OH227182   6.003   3.638   1.710
 9073TIP3    H127183   5.943   3.612   1.639
 9073TIP3    H227184   5.946   3.680   1.775
 9074TIP3   OH227185   3.663   5.534   0.679
 9074TIP3    H127186   3.660   5.445   0.645
 9074TIP3    H227187   3.725   5.531   0.752
 9075TIP3   OH227188   2.540   4.767   4.913
 9075TIP3    H127189   2.459   4.718   4.931
 9075TIP3    H227190   2.534   4.789   4.820
 9076TIP3   OH227191   0.219   0.550  -0.025
 9076TIP3    H127192   0.289   0.580   0.033
 9076TIP3    H227193   0.177   0.478   0.022
 9077TIP3   OH227194   6.777   4.173   4.118
 9077TIP3    H127195   6.839   4.191   4.189
 9077TIP3    H227196   6.832   4.149   4.044
 9078TIP3   OH227197   2.544   4.720   1.943
 9078TIP3    H127198   2.458   4.741   1.906
 9078TIP3    H227199   2.599   4.795   1.919
 9079TIP3   OH227200   4.972   0.922   4.718
 9079TIP3    H127201   4.953   0.846   4.663
 9079TIP3    H227202   4.910   0.989   4.689
 9080TIP3   OH227203   3.214   0.924   1.027
 9080TIP3    H127204   3.123   0.915   0.998
 9080TIP3    H227205   3.237   0.837   1.059
 9081TIP3   OH227206   6.488   3.220   4.197
 9081TIP3    H127207   6.461   3.236   4.287
 9081TIP3    H227208   6.523   3.304   4.167
 9082TIP3   OH227209   1.932   1.866   4.490
 9082TIP3    H127210   1.943   1.818   4.572
 9082TIP3    H227211   2.015   1.855   4.444
 9083TIP3   OH227212   0.869   1.410   3.500
 9083TIP3    H127213   0.810   1.376   3.567
 9083TIP3    H227214   0.957   1.387   3.531
 9084TIP3   OH227215   2.272   5.260   4.209
 9084TIP3    H127216   2.216   5.194   4.249
 9084TIP3    H227217   2.361   5.233   4.233
 9085TIP3   OH227218   1.589   4.849   1.914
 9085TIP3    H127219   1.671   4.843   1.963
 9085TIP3    H227220   1.529   4.792   1.962
 9086TIP3   OH227221   2.441   4.448   4.444
 9086TIP3    H127222   2.444   4.452   4.348
 9086TIP3    H227223   2.497   4.521   4.473
 9087TIP3   OH227224   1.626   1.221   0.058
 9087TIP3    H127225   1.645   1.167   0.134
 9087TIP3    H227226   1.674   1.303   0.074
 9088TIP3   OH227227   2.213   1.403   0.831
 9088TIP3    H127228   2.139   1.356   0.791
 9088TIP3    H227229   2.257   1.337   0.885
 9089TIP3   OH227230   1.860   5.529   2.251
 9089TIP3    H127231   1.887   5.439   2.236
 9089TIP3    H227232   1.860   5.570   2.165
 9090TIP3   OH227233   1.045   2.543   1.148
 9090TIP3    H127234   1.024   2.636   1.145
 9090TIP3    H227235   1.133   2.539   1.185
 9091TIP3   OH227236   6.848   1.038   0.078
 9091TIP3    H127237   6.874   0.983   0.004
 9091TIP3    H227238   6.856   0.980   0.154
 9092TIP3   OH227239   2.236   1.848   3.216
 9092TIP3    H127240   2.276   1.836   3.130
 9092TIP3    H227241   2.235   1.943   3.228
 9093TIP3   OH227242   6.955   3.105   1.683
 9093TIP3    H127243   6.971   3.013   1.700
 9093TIP3    H227244   6.949   3.111   1.587
 9094TIP3   OH227245   7.093   6.068   1.626
 9094TIP3    H127246   7.159   6.137   1.626
 9094TIP3    H227247   7.103   6.025   1.541
 9095TIP3   OH227248   3.377   5.705   3.479
 9095TIP3    H127249   3.309   5.646   3.511
 9095TIP3    H227250   3.454   5.650   3.470
 9096TIP3   OH227251   6.185   4.375   1.191
 9096TIP3    H127252   6.215   4.454   1.236
 9096TIP3    H227253   6.107   4.349   1.240
 9097TIP3   OH227254   0.190   0.355   2.560
 9097TIP3    H127255   0.206   0.271   2.605
 9097TIP3    H227256   0.179   0.331   2.468
 9098TIP3   OH227257   5.800   0.838   5.242
 9098TIP3    H127258   5.803   0.879   5.328
 9098TIP3    H227259   5.807   0.744   5.259
 9099TIP3   OH227260   2.329   2.496   0.091
 9099TIP3    H127261   2.259   2.561   0.089
 9099TIP3    H227262   2.344   2.480   0.185
 9100TIP3   OH227263   3.253   4.496   5.451
 9100TIP3    H127264   3.337   4.468   5.489
 9100TIP3    H227265   3.265   4.489   5.357
 9101TIP3   OH227266   3.522   0.867   5.587
 9101TIP3    H127267   3.504   0.786   5.634
 9101TIP3    H227268   3.581   0.916   5.646
 9102TIP3   OH227269   5.263   4.484   0.122
 9102TIP3    H127270   5.201   4.556   0.133
 9102TIP3    H227271   5.279   4.453   0.212
 9103TIP3   OH227272   1.523   0.980   4.099
 9103TIP3    H127273   1.589   1.041   4.130
 9103TIP3    H227274   1.492   0.936   4.178
 9104TIP3   OH227275   4.251   6.149   3.905
 9104TIP3    H127276   4.299   6.189   3.832
 9104TIP3    H227277   4.283   6.197   3.982
 9105TIP3   OH227278   2.577   0.225   1.215
 9105TIP3    H127279   2.600   0.132   1.205
 9105TIP3    H227280   2.648   0.263   1.266
 9106TIP3   OH227281   0.042   6.442   4.934
 9106TIP3    H127282   0.037   6.350   4.908
 9106TIP3    H227283  -0.020   6.449   5.006
 9107TIP3   OH227284   6.835   3.613   5.601
 9107TIP3    H127285   6.821   3.635   5.508
 9107TIP3    H227286   6.802   3.690   5.648
 9108TIP3   OH227287   2.395   0.715   2.712
 9108TIP3    H127288   2.471   0.661   2.736
 9108TIP3    H227289   2.432   0.802   2.696
 9109TIP3   OH227290   3.707   2.831   4.475
 9109TIP3    H127291   3.616   2.824   4.446
 9109TIP3    H227292   3.756   2.777   4.413
 9110TIP3   OH227293   5.704   2.384   4.935
 9110TIP3    H127294   5.625   2.428   4.967
 9110TIP3    H227295   5.776   2.431   4.977
 9111TIP3   OH227296   2.932   2.423   5.393
 9111TIP3    H127297   2.879   2.441   5.315
 9111TIP3    H227298   2.975   2.506   5.412
 9112TIP3   OH227299   5.045   5.867   4.293
 9112TIP3    H127300   4.996   5.833   4.367
 9112TIP3    H227301   5.131   5.889   4.328
 9113TIP3   OH227302   1.746   1.821   4.266
 9113TIP3    H127303   1.835   1.813   4.232
 9113TIP3    H227304   1.754   1.881   4.341
 9114TIP3   OH227305   4.640   5.339   2.943
 9114TIP3    H127306   4.716   5.280   2.944
 9114TIP3    H227307   4.566   5.284   2.968
 9115TIP3   OH227308   3.393   6.508   3.087
 9115TIP3    H127309   3.442   6.558   3.021
 9115TIP3    H227310   3.314   6.479   3.040
 9116TIP3   OH227311   5.593   0.482   4.979
 9116TIP3    H127312   5.583   0.408   4.919
 9116TIP3    H227313   5.529   0.465   5.049
 9117TIP3   OH227314   5.788   4.391   5.016
 9117TIP3    H127315   5.876   4.382   5.052
 9117TIP3    H227316   5.784   4.480   4.983
 9118TIP3   OH227317   6.140   2.802   5.898
 9118TIP3    H127318   6.116   2.873   5.839
 9118TIP3    H227319   6.085   2.728   5.869
 9119TIP3   OH227320   6.224   2.995   0.684
 9119TIP3    H127321   6.243   2.915   0.732
 9119TIP3    H227322   6.228   3.064   0.750
 9120TIP3   OH227323   7.053   0.397   5.509
 9120TIP3    H127324   6.975   0.427   5.462
 9120TIP3    H227325   7.064   0.462   5.578
 9121TIP3   OH227326   3.159   5.929   3.529
 9121TIP3    H127327   3.225   5.861   3.525
 9121TIP3    H227328   3.208   6.011   3.531
 9122TIP3   OH227329   4.195   6.535   2.695
 9122TIP3    H127330   4.120   6.521   2.638
 9122TIP3    H227331   4.173   6.613   2.746
 9123TIP3   OH227332   6.213   6.499   0.572
 9123TIP3    H127333   6.183   6.579   0.529
 9123TIP3    H227334   6.306   6.493   0.550
 9124TIP3   OH227335   2.772   5.764   4.134
 9124TIP3    H127336   2.812   5.851   4.138
 9124TIP3    H227337   2.750   5.744   4.225
 9125TIP3   OH227338   3.030   3.876   4.197
 9125TIP3    H127339   2.958   3.857   4.137
 9125TIP3    H227340   3.070   3.956   4.163
 9126TIP3   OH227341   4.258   2.605   2.276
 9126TIP3    H127342   4.273   2.681   2.220
 9126TIP3    H227343   4.344   2.584   2.313
 9127TIP3   OH227344   5.447   4.775   1.880
 9127TIP3    H127345   5.521   4.714   1.884
 9127TIP3    H227346   5.436   4.793   1.787
 9128TIP3   OH227347   5.759   4.570   4.632
 9128TIP3    H127348   5.789   4.614   4.711
 9128TIP3    H227349   5.694   4.630   4.594
 9129TIP3   OH227350   6.789   1.640   5.497
 9129TIP3    H127351   6.697   1.656   5.518
 9129TIP3    H227352   6.806   1.695   5.421
 9130TIP3   OH227353   6.117   5.808   4.734
 9130TIP3    H127354   6.108   5.762   4.817
 9130TIP3    H227355   6.162   5.746   4.676
 9131TIP3   OH227356   2.184   5.030   4.936
 9131TIP3    H127357   2.091   5.053   4.940
 9131TIP3    H227358   2.229   5.109   4.966
 9132TIP3   OH227359   6.756   5.290   1.383
 9132TIP3    H127360   6.699   5.291   1.460
 9132TIP3    H227361   6.730   5.212   1.335
 9133TIP3   OH227362   2.076   5.304   3.981
 9133TIP3    H127363   2.155   5.289   4.031
 9133TIP3    H227364   2.021   5.227   3.997
 9134TIP3   OH227365   6.864   3.008   4.025
 9134TIP3    H127366   6.959   3.014   4.037
 9134TIP3    H227367   6.830   2.993   4.113
 9135TIP3   OH227368   1.289   6.561   5.044
 9135TIP3    H127369   1.231   6.545   5.119
 9135TIP3    H227370   1.276   6.654   5.024
 9136TIP3   OH227371   0.973   5.622   0.994
 9136TIP3    H127372   1.013   5.663   0.917
 9136TIP3    H227373   0.967   5.529   0.971
 9137TIP3   OH227374   0.439   6.539   1.447
 9137TIP3    H127375   0.487   6.622   1.440
 9137TIP3    H227376   0.453   6.512   1.538
 9138TIP3   OH227377   1.062   0.260   5.751
 9138TIP3    H127378   1.026   0.308   5.825
 9138TIP3    H227379   1.047   0.318   5.676
 9139TIP3   OH227380   0.946   5.653   4.485
 9139TIP3    H127381   1.019   5.666   4.424
 9139TIP3    H227382   0.901   5.737   4.488
 9140TIP3   OH227383   4.411   1.980   5.214
 9140TIP3    H127384   4.382   1.944   5.298
 9140TIP3    H227385   4.494   2.023   5.235
 9141TIP3   OH227386   5.907   3.387   1.851
 9141TIP3    H127387   5.922   3.482   1.850
 9141TIP3    H227388   5.821   3.376   1.811
 9142TIP3   OH227389   2.667   4.589   0.238
 9142TIP3    H127390   2.745   4.577   0.184
 9142TIP3    H227391   2.594   4.581   0.177
 9143TIP3   OH227392   0.907   0.627   3.080
 9143TIP3    H127393   0.914   0.639   3.174
 9143TIP3    H227394   0.988   0.583   3.055
 9144TIP3   OH227395   1.084   0.012   2.859
 9144TIP3    H127396   1.025   0.037   2.788
 9144TIP3    H227397   1.170   0.043   2.831
 9145TIP3   OH227398   3.446   5.876   4.146
 9145TIP3    H127399   3.408   5.789   4.141
 9145TIP3    H227400   3.514   5.876   4.078
 9146TIP3   OH227401   3.317   0.554   5.085
 9146TIP3    H127402   3.231   0.512   5.092
 9146TIP3    H227403   3.340   0.578   5.175
 9147TIP3   OH227404   0.999   4.485   1.648
 9147TIP3    H127405   1.065   4.543   1.685
 9147TIP3    H227406   1.045   4.438   1.577
 9148TIP3   OH227407   1.449   6.654   1.441
 9148TIP3    H127408   1.499   6.725   1.400
 9148TIP3    H227409   1.510   6.581   1.443
 9149TIP3   OH227410   5.341   5.072   4.767
 9149TIP3    H127411   5.266   5.129   4.755
 9149TIP3    H227412   5.379   5.064   4.680
 9150TIP3   OH227413   5.054   1.653   3.767
 9150TIP3    H127414   4.985   1.588   3.768
 9150TIP3    H227415   5.039   1.706   3.846
 9151TIP3   OH227416   1.784   2.769   5.386
 9151TIP3    H127417   1.842   2.812   5.323
 9151TIP3    H227418   1.828   2.686   5.406
 9152TIP3   OH227419   1.073   6.007   2.885
 9152TIP3    H127420   0.977   6.006   2.895
 9152TIP3    H227421   1.106   6.003   2.974
 9153TIP3   OH227422   5.508   4.680   0.536
 9153TIP3    H127423   5.567   4.650   0.468
 9153TIP3    H227424   5.455   4.748   0.494
 9154TIP3   OH227425   3.604   4.511   3.885
 9154TIP3    H127426   3.663   4.438   3.865
 9154TIP3    H227427   3.559   4.529   3.803
 9155TIP3   OH227428   2.064   2.214   2.191
 9155TIP3    H127429   2.098   2.263   2.116
 9155TIP3    H227430   1.985   2.262   2.216
 9156TIP3   OH227431   1.194   5.298   4.007
 9156TIP3    H127432   1.162   5.292   4.097
 9156TIP3    H227433   1.249   5.377   4.006
 9157TIP3   OH227434   0.109   5.963   0.658
 9157TIP3    H127435   0.059   6.043   0.677
 9157TIP3    H227436   0.182   5.994   0.604
 9158TIP3   OH227437   4.131   4.152   0.637
 9158TIP3    H127438   4.142   4.233   0.688
 9158TIP3    H227439   4.041   4.124   0.657
 9159TIP3   OH227440   3.309   2.203   5.180
 9159TIP3    H127441   3.360   2.129   5.213
 9159TIP3    H227442   3.375   2.262   5.141
 9160TIP3   OH227443   4.460   0.303   1.885
 9160TIP3    H127444   4.467   0.217   1.843
 9160TIP3    H227445   4.515   0.296   1.963
 9161TIP3   OH227446   2.826   2.828   0.220
 9161TIP3    H127447   2.879   2.907   0.216
 9161TIP3    H227448   2.770   2.839   0.297
 9162TIP3   OH227449   3.097   1.835   4.722
 9162TIP3    H127450   3.017   1.872   4.685
 9162TIP3    H227451   3.077   1.743   4.737
 9163TIP3   OH227452   4.543   6.620   0.039
 9163TIP3    H127453   4.535   6.663  -0.046
 9163TIP3    H227454   4.480   6.549   0.037
 9164TIP3   OH227455   2.900   5.709   5.077
 9164TIP3    H127456   2.829   5.742   5.132
 9164TIP3    H227457   2.866   5.714   4.988
 9165TIP3   OH227458   0.769   4.177   2.197
 9165TIP3    H127459   0.691   4.171   2.142
 9165TIP3    H227460   0.740   4.150   2.284
 9166TIP3   OH227461   3.270   0.021   2.573
 9166TIP3    H127462   3.301   0.104   2.537
 9166TIP3    H227463   3.348  -0.033   2.578
 9167TIP3   OH227464   0.109   4.121   2.165
 9167TIP3    H127465   0.092   4.145   2.074
 9167TIP3    H227466   0.045   4.172   2.215
 9168TIP3   OH227467   1.733   4.455   1.749
 9168TIP3    H127468   1.715   4.519   1.817
 9168TIP3    H227469   1.800   4.398   1.786
 9169TIP3   OH227470   3.122   3.698   0.870
 9169TIP3    H127471   3.053   3.720   0.806
 9169TIP3    H227472   3.134   3.779   0.920
 9170TIP3   OH227473   1.686   2.205   2.832
 9170TIP3    H127474   1.653   2.116   2.845
 9170TIP3    H227475   1.717   2.232   2.918
 9171TIP3   OH227476   4.700   3.695   1.546
 9171TIP3    H127477   4.741   3.711   1.461
 9171TIP3    H227478   4.707   3.779   1.592
 9172TIP3   OH227479   1.638   5.192   0.176
 9172TIP3    H127480   1.551   5.232   0.178
 9172TIP3    H227481   1.663   5.193   0.084
 9173TIP3   OH227482   4.374   3.259   3.309
 9173TIP3    H127483   4.398   3.179   3.262
 9173TIP3    H227484   4.303   3.233   3.367
 9174TIP3   OH227485   1.841   2.224   4.330
 9174TIP3    H127486   1.922   2.176   4.313
 9174TIP3    H227487   1.868   2.315   4.337
 9175TIP3   OH227488   6.953   1.983   1.925
 9175TIP3    H127489   6.861   2.003   1.909
 9175TIP3    H227490   7.001   2.031   1.858
 9176TIP3   OH227491   3.468   4.989   5.146
 9176TIP3    H127492   3.550   5.039   5.147
 9176TIP3    H227493   3.470   4.940   5.229
 9177TIP3   OH227494   5.126   4.714   3.412
 9177TIP3    H127495   5.078   4.793   3.435
 9177TIP3    H227496   5.156   4.679   3.496
 9178TIP3   OH227497   0.510   2.465   3.782
 9178TIP3    H127498   0.468   2.471   3.868
 9178TIP3    H227499   0.546   2.376   3.780
 9179TIP3   OH227500   4.820   6.211   5.834
 9179TIP3    H127501   4.807   6.130   5.785
 9179TIP3    H227502   4.902   6.198   5.881
 9180TIP3   OH227503   5.821   2.064   2.372
 9180TIP3    H127504   5.821   2.146   2.322
 9180TIP3    H227505   5.879   2.081   2.447
 9181TIP3   OH227506   5.303   1.992   2.323
 9181TIP3    H127507   5.394   1.983   2.349
 9181TIP3    H227508   5.277   1.905   2.293
 9182TIP3   OH227509   0.268   5.448   4.168
 9182TIP3    H127510   0.222   5.507   4.228
 9182TIP3    H227511   0.228   5.466   4.082
 9183TIP3   OH227512   4.015   6.634   1.672
 9183TIP3    H127513   4.009   6.729   1.662
 9183TIP3    H227514   4.060   6.621   1.755
 9184TIP3   OH227515   6.276   1.271   5.677
 9184TIP3    H127516   6.216   1.341   5.703
 9184TIP3    H227517   6.220   1.194   5.669
 9185TIP3   OH227518   0.312   6.534   1.003
 9185TIP3    H127519   0.399   6.560   1.034
 9185TIP3    H227520   0.321   6.530   0.908
 9186TIP3   OH227521   2.582   1.985   2.283
 9186TIP3    H127522   2.637   1.956   2.210
 9186TIP3    H227523   2.619   1.941   2.360
 9187TIP3   OH227524   3.022   2.433   2.954
 9187TIP3    H127525   3.041   2.440   2.861
 9187TIP3    H227526   3.036   2.341   2.975
 9188TIP3   OH227527   3.010   5.641   3.842
 9188TIP3    H127528   2.990   5.611   3.753
 9188TIP3    H227529   2.963   5.581   3.899
 9189TIP3   OH227530   6.835   6.305   2.699
 9189TIP3    H127531   6.799   6.383   2.740
 9189TIP3    H227532   6.896   6.339   2.633
 9190TIP3   OH227533   0.092   6.617   3.189
 9190TIP3    H127534   0.142   6.536   3.186
 9190TIP3    H227535   0.147   6.679   3.237
 9191TIP3   OH227536   2.202   0.631   1.643
 9191TIP3    H127537   2.110   0.653   1.628
 9191TIP3    H227538   2.244   0.646   1.558
 9192TIP3   OH227539   4.518   4.944   4.969
 9192TIP3    H127540   4.526   4.890   5.048
 9192TIP3    H227541   4.517   5.034   5.002
 9193TIP3   OH227542   1.770   4.150   3.499
 9193TIP3    H127543   1.720   4.086   3.448
 9193TIP3    H227544   1.848   4.165   3.446
 9194TIP3   OH227545   6.564   1.943   0.482
 9194TIP3    H127546   6.576   2.013   0.546
 9194TIP3    H227547   6.641   1.888   0.492
 9195TIP3   OH227548   5.168   0.426   3.133
 9195TIP3    H127549   5.169   0.518   3.105
 9195TIP3    H227550   5.260   0.402   3.141
 9196TIP3   OH227551   0.585   0.141   4.381
 9196TIP3    H127552   0.661   0.159   4.438
 9196TIP3    H227553   0.586   0.213   4.318
 9197TIP3   OH227554   2.824   1.598   3.163
 9197TIP3    H127555   2.771   1.611   3.085
 9197TIP3    H227556   2.851   1.506   3.158
 9198TIP3   OH227557   3.713   1.953   2.581
 9198TIP3    H127558   3.667   1.875   2.548
 9198TIP3    H227559   3.805   1.927   2.583
 9199TIP3   OH227560   0.921   4.726   1.373
 9199TIP3    H127561   0.954   4.768   1.453
 9199TIP3    H227562   0.998   4.685   1.334
 9200TIP3   OH227563   6.731   2.516   4.385
 9200TIP3    H127564   6.662   2.471   4.434
 9200TIP3    H227565   6.752   2.457   4.312
 9201TIP3   OH227566   4.842   0.585   4.831
 9201TIP3    H127567   4.792   0.575   4.750
 9201TIP3    H227568   4.874   0.497   4.851
 9202TIP3   OH227569   4.845   3.278   4.308
 9202TIP3    H127570   4.823   3.294   4.216
 9202TIP3    H227571   4.767   3.306   4.356
 9203TIP3   OH227572   5.796   4.020   3.788
 9203TIP3    H127573   5.798   3.928   3.816
 9203TIP3    H227574   5.728   4.060   3.842
 9204TIP3   OH227575   6.799   2.148   4.091
 9204TIP3    H127576   6.790   2.060   4.126
 9204TIP3    H227577   6.882   2.180   4.126
 9205TIP3   OH227578   2.830   5.738   3.014
 9205TIP3    H127579   2.831   5.803   3.085
 9205TIP3    H227580   2.886   5.775   2.947
 9206TIP3   OH227581   0.238   4.556   3.638
 9206TIP3    H127582   0.210   4.501   3.565
 9206TIP3    H227583   0.172   4.626   3.642
 9207TIP3   OH227584   3.913   0.317   0.117
 9207TIP3    H127585   3.909   0.299   0.023
 9207TIP3    H227586   3.867   0.243   0.158
 9208TIP3   OH227587   0.626   1.243   3.526
 9208TIP3    H127588   0.670   1.166   3.488
 9208TIP3    H227589   0.593   1.291   3.450
 9209TIP3   OH227590   3.852   6.321   0.591
 9209TIP3    H127591   3.916   6.381   0.630
 9209TIP3    H227592   3.807   6.281   0.666
 9210TIP3   OH227593   1.767   4.333   1.132
 9210TIP3    H127594   1.821   4.387   1.075
 9210TIP3    H227595   1.811   4.336   1.216
 9211TIP3   OH227596   4.055   0.840   2.891
 9211TIP3    H127597   4.150   0.843   2.877
 9211TIP3    H227598   4.021   0.793   2.815
 9212TIP3   OH227599   4.966   5.415   4.337
 9212TIP3    H127600   4.879   5.449   4.316
 9212TIP3    H227601   5.027   5.483   4.309
 9213TIP3   OH227602   6.810   0.444   4.755
 9213TIP3    H127603   6.818   0.475   4.664
 9213TIP3    H227604   6.894   0.400   4.772
 9214TIP3   OH227605   3.650   2.088   0.637
 9214TIP3    H127606   3.730   2.137   0.623
 9214TIP3    H227607   3.669   2.030   0.711
 9215TIP3   OH227608   1.589   6.468   1.124
 9215TIP3    H127609   1.617   6.462   1.215
 9215TIP3    H227610   1.670   6.483   1.075
 9216TIP3   OH227611   1.118  -0.030   2.085
 9216TIP3    H127612   1.096   0.004   2.172
 9216TIP3    H227613   1.074   0.030   2.025
 9217TIP3   OH227614   5.781   1.268   4.461
 9217TIP3    H127615   5.723   1.192   4.458
 9217TIP3    H227616   5.848   1.245   4.524
 9218TIP3   OH227617   3.814   5.784   3.095
 9218TIP3    H127618   3.800   5.690   3.108
 9218TIP3    H227619   3.886   5.788   3.032
 9219TIP3   OH227620   4.310   4.196   5.832
 9219TIP3    H127621   4.237   4.219   5.774
 9219TIP3    H227622   4.283   4.229   5.918
 9220TIP3   OH227623   0.104   0.115   1.891
 9220TIP3    H127624   0.141   0.131   1.803
 9220TIP3    H227625   0.164   0.053   1.932
 9221TIP3   OH227626   1.266   6.437   1.576
 9221TIP3    H127627   1.171   6.433   1.581
 9221TIP3    H227628   1.283   6.504   1.509
 9222TIP3   OH227629   3.009   2.695   4.879
 9222TIP3    H127630   2.942   2.753   4.916
 9222TIP3    H227631   3.091   2.726   4.917
 9223TIP3   OH227632   3.738   3.528   2.430
 9223TIP3    H127633   3.772   3.607   2.471
 9223TIP3    H227634   3.657   3.510   2.477
 9224TIP3   OH227635   1.649   5.697   3.037
 9224TIP3    H127636   1.606   5.707   3.122
 9224TIP3    H227637   1.595   5.749   2.977
 9225TIP3   OH227638   7.151   0.817   5.229
 9225TIP3    H127639   7.149   0.765   5.149
 9225TIP3    H227640   7.166   0.753   5.299
 9226TIP3   OH227641   4.921   3.520   0.856
 9226TIP3    H127642   4.983   3.489   0.923
 9226TIP3    H227643   4.942   3.612   0.845
 9227TIP3   OH227644   3.265   5.811   3.263
 9227TIP3    H127645   3.195   5.862   3.305
 9227TIP3    H227646   3.314   5.774   3.336
 9228TIP3   OH227647   0.644   5.234   4.114
 9228TIP3    H127648   0.659   5.203   4.025
 9228TIP3    H227649   0.711   5.301   4.128
 9229TIP3   OH227650   1.317   1.399   0.557
 9229TIP3    H127651   1.394   1.446   0.523
 9229TIP3    H227652   1.277   1.460   0.618
 9230TIP3   OH227653   6.020   2.188   3.081
 9230TIP3    H127654   5.925   2.177   3.070
 9230TIP3    H227655   6.046   2.116   3.139
 9231TIP3   OH227656   3.604   0.241   0.062
 9231TIP3    H127657   3.593   0.318   0.119
 9231TIP3    H227658   3.611   0.278  -0.026
 9232TIP3   OH227659   3.147   0.611   1.083
 9232TIP3    H127660   3.132   0.517   1.083
 9232TIP3    H227661   3.133   0.637   1.175
 9233TIP3   OH227662   1.095   1.082   3.995
 9233TIP3    H127663   1.103   1.131   4.077
 9233TIP3    H227664   1.103   1.148   3.926
 9234TIP3   OH227665   4.413   4.309   4.934
 9234TIP3    H127666   4.494   4.310   4.883
 9234TIP3    H227667   4.344   4.329   4.871
 9235TIP3   OH227668   5.931   2.023   5.172
 9235TIP3    H127669   5.835   2.026   5.177
 9235TIP3    H227670   5.961   2.036   5.262
 9236TIP3   OH227671   2.870   0.532   1.020
 9236TIP3    H127672   2.941   0.589   1.049
 9236TIP3    H227673   2.865   0.464   1.088
 9237TIP3   OH227674   6.944   3.096   0.332
 9237TIP3    H127675   6.966   3.122   0.242
 9237TIP3    H227676   6.906   3.174   0.371
 9238TIP3   OH227677   1.203   3.519   2.090
 9238TIP3    H127678   1.157   3.505   2.172
 9238TIP3    H227679   1.206   3.614   2.080
 9239TIP3   OH227680   1.759   0.929   2.403
 9239TIP3    H127681   1.722   0.868   2.467
 9239TIP3    H227682   1.683   0.975   2.368
 9240TIP3   OH227683   3.191   0.940   2.965
 9240TIP3    H127684   3.140   1.004   2.915
 9240TIP3    H227685   3.164   0.855   2.930
 9241TIP3   OH227686   4.356   1.539   1.268
 9241TIP3    H127687   4.376   1.503   1.182
 9241TIP3    H227688   4.349   1.462   1.325
 9242TIP3   OH227689   5.887   3.741   4.472
 9242TIP3    H127690   5.959   3.765   4.530
 9242TIP3    H227691   5.899   3.647   4.456
 9243TIP3   OH227692   1.969   2.530   2.601
 9243TIP3    H127693   2.006   2.475   2.532
 9243TIP3    H227694   1.883   2.491   2.619
 9244TIP3   OH227695   6.526   0.922   5.673
 9244TIP3    H127696   6.490   0.852   5.619
 9244TIP3    H227697   6.533   0.997   5.614
 9245TIP3   OH227698   0.253   2.537   0.216
 9245TIP3    H127699   0.332   2.578   0.252
 9245TIP3    H227700   0.197   2.610   0.191
 9246TIP3   OH227701   5.697   3.821   1.533
 9246TIP3    H127702   5.697   3.740   1.482
 9246TIP3    H227703   5.776   3.867   1.505
 9247TIP3   OH227704   0.160   1.543   4.963
 9247TIP3    H127705   0.070   1.510   4.962
 9247TIP3    H227706   0.210   1.476   4.917
 9248TIP3   OH227707   6.532   3.711   2.172
 9248TIP3    H127708   6.551   3.733   2.263
 9248TIP3    H227709   6.466   3.774   2.145
 9249TIP3   OH227710   1.617   4.338   4.852
 9249TIP3    H127711   1.681   4.280   4.810
 9249TIP3    H227712   1.559   4.364   4.780
 9250TIP3   OH227713   6.382   5.892   3.960
 9250TIP3    H127714   6.326   5.814   3.963
 9250TIP3    H227715   6.400   5.912   4.052
 9251TIP3   OH227716   0.790   6.310   4.194
 9251TIP3    H127717   0.742   6.329   4.274
 9251TIP3    H227718   0.848   6.386   4.183
 9252TIP3   OH227719   2.126   3.965   4.272
 9252TIP3    H127720   2.052   4.018   4.302
 9252TIP3    H227721   2.086   3.895   4.221
 9253TIP3   OH227722   2.626   3.235   4.688
 9253TIP3    H127723   2.598   3.321   4.720
 9253TIP3    H227724   2.545   3.190   4.667
 9254TIP3   OH227725   7.097   3.149   4.221
 9254TIP3    H127726   7.165   3.205   4.258
 9254TIP3    H227727   7.040   3.127   4.295
 9255TIP3   OH227728   0.631   6.661   3.253
 9255TIP3    H127729   0.598   6.638   3.340
 9255TIP3    H227730   0.669   6.748   3.265
 9256TIP3   OH227731   0.678   5.466   4.850
 9256TIP3    H127732   0.687   5.373   4.830
 9256TIP3    H227733   0.766   5.502   4.838
 9257TIP3   OH227734   0.306   2.044   2.515
 9257TIP3    H127735   0.245   2.063   2.587
 9257TIP3    H227736   0.391   2.074   2.547
 9258TIP3   OH227737   6.398   4.435   2.564
 9258TIP3    H127738   6.379   4.493   2.638
 9258TIP3    H227739   6.320   4.379   2.558
 9259TIP3   OH227740   0.991   3.138   0.228
 9259TIP3    H127741   1.037   3.174   0.304
 9259TIP3    H227742   0.912   3.097   0.264
 9260TIP3   OH227743   5.434   3.452   1.583
 9260TIP3    H127744   5.342   3.462   1.608
 9260TIP3    H227745   5.442   3.500   1.500
 9261TIP3   OH227746   4.872   4.146   3.388
 9261TIP3    H127747   4.898   4.142   3.480
 9261TIP3    H227748   4.911   4.227   3.356
 9262TIP3   OH227749   7.051   5.990   0.538
 9262TIP3    H127750   7.122   5.927   0.525
 9262TIP3    H227751   7.023   5.976   0.629
 9263TIP3   OH227752   2.249   3.777   0.009
 9263TIP3    H127753   2.325   3.827  -0.020
 9263TIP3    H227754   2.281   3.687   0.018
 9264TIP3   OH227755   2.232   5.035   5.294
 9264TIP3    H127756   2.320   5.037   5.257
 9264TIP3    H227757   2.200   5.125   5.287
 9265TIP3   OH227758   2.629   5.811   3.910
 9265TIP3    H127759   2.674   5.893   3.893
 9265TIP3    H227760   2.673   5.774   3.986
 9266TIP3   OH227761   0.961   4.853   5.759
 9266TIP3    H127762   1.006   4.937   5.750
 9266TIP3    H227763   0.868   4.876   5.762
 9267TIP3   OH227764   6.959   3.660   1.585
 9267TIP3    H127765   6.866   3.666   1.566
 9267TIP3    H227766   7.002   3.657   1.499
 9268TIP3   OH227767   0.708   5.987   3.582
 9268TIP3    H127768   0.637   5.986   3.518
 9268TIP3    H227769   0.696   5.907   3.633
 9269TIP3   OH227770   6.992   2.097   1.680
 9269TIP3    H127771   6.928   2.153   1.636
 9269TIP3    H227772   7.076   2.122   1.641
 9270TIP3   OH227773   5.202   6.589   0.163
 9270TIP3    H127774   5.222   6.572   0.255
 9270TIP3    H227775   5.178   6.682   0.160
 9271TIP3   OH227776   6.638   3.073   1.668
 9271TIP3    H127777   6.720   3.027   1.651
 9271TIP3    H227778   6.648   3.108   1.757
 9272TIP3   OH227779   7.067   3.153   1.037
 9272TIP3    H127780   6.981   3.173   1.074
 9272TIP3    H227781   7.049   3.123   0.948
 9273TIP3   OH227782   1.612   3.461   5.461
 9273TIP3    H127783   1.593   3.374   5.424
 9273TIP3    H227784   1.570   3.522   5.400
 9274TIP3   OH227785   7.124   3.416   0.866
 9274TIP3    H127786   7.079   3.337   0.897
 9274TIP3    H227787   7.053   3.479   0.849
 9275TIP3   OH227788   5.033   5.716   0.396
 9275TIP3    H127789   5.093   5.736   0.469
 9275TIP3    H227790   4.985   5.798   0.381
 9276TIP3   OH227791   6.039   0.145   2.405
 9276TIP3    H127792   5.991   0.181   2.479
 9276TIP3    H227793   6.118   0.107   2.444
 9277TIP3   OH227794   3.574   6.418   4.569
 9277TIP3    H127795   3.506   6.481   4.594
 9277TIP3    H227796   3.544   6.383   4.485
 9278TIP3   OH227797   6.634   2.909   2.945
 9278TIP3    H127798   6.707   2.860   2.905
 9278TIP3    H227799   6.634   2.880   3.036
 9279TIP3   OH227800   0.582   5.231   3.491
 9279TIP3    H127801   0.491   5.223   3.520
 9279TIP3    H227802   0.602   5.324   3.500
 9280TIP3   OH227803   4.706   0.871   0.060
 9280TIP3    H127804   4.611   0.881   0.051
 9280TIP3    H227805   4.742   0.953   0.027
 9281TIP3   OH227806   2.437   5.502   4.738
 9281TIP3    H127807   2.388   5.421   4.719
 9281TIP3    H227808   2.490   5.480   4.815
 9282TIP3   OH227809   4.008   4.231   3.338
 9282TIP3    H127810   4.095   4.256   3.306
 9282TIP3    H227811   3.997   4.140   3.311
 9283TIP3   OH227812   2.719   6.222   0.998
 9283TIP3    H127813   2.749   6.210   0.908
 9283TIP3    H227814   2.689   6.312   1.002
 9284TIP3   OH227815   0.630   5.323   3.178
 9284TIP3    H127816   0.686   5.394   3.147
 9284TIP3    H227817   0.597   5.355   3.262
 9285TIP3   OH227818   6.648   6.519   3.397
 9285TIP3    H127819   6.633   6.460   3.471
 9285TIP3    H227820   6.721   6.574   3.425
 9286TIP3   OH227821   6.035   0.834   4.719
 9286TIP3    H127822   6.056   0.763   4.780
 9286TIP3    H227823   5.946   0.861   4.742
 9287TIP3   OH227824   5.028   2.104   4.607
 9287TIP3    H127825   4.959   2.070   4.664
 9287TIP3    H227826   5.102   2.120   4.666
 9288TIP3   OH227827   6.899   3.376   1.871
 9288TIP3    H127828   6.853   3.447   1.826
 9288TIP3    H227829   6.862   3.296   1.835
 9289TIP3   OH227830   3.218   3.186   5.201
 9289TIP3    H127831   3.172   3.151   5.125
 9289TIP3    H227832   3.202   3.123   5.271
 9290TIP3   OH227833   3.450   5.674   1.274
 9290TIP3    H127834   3.504   5.633   1.206
 9290TIP3    H227835   3.361   5.672   1.238
 9291TIP3   OH227836   2.580   1.574   4.716
 9291TIP3    H127837   2.622   1.587   4.631
 9291TIP3    H227838   2.488   1.594   4.700
 9292TIP3   OH227839   6.726   4.042   2.011
 9292TIP3    H127840   6.763   3.954   2.011
 9292TIP3    H227841   6.706   4.060   2.102
 9293TIP3   OH227842   5.951   3.782   0.719
 9293TIP3    H127843   6.007   3.837   0.773
 9293TIP3    H227844   6.010   3.713   0.687
 9294TIP3   OH227845   1.463   5.621  -0.002
 9294TIP3    H127846   1.542   5.671  -0.020
 9294TIP3    H227847   1.425   5.661   0.076
 9295TIP3   OH227848   6.977   5.097   5.754
 9295TIP3    H127849   6.911   5.163   5.774
 9295TIP3    H227850   7.040   5.103   5.826
 9296TIP3   OH227851   4.827   4.441   0.259
 9296TIP3    H127852   4.798   4.497   0.188
 9296TIP3    H227853   4.813   4.352   0.227
 9297TIP3   OH227854   1.173   3.649   3.812
 9297TIP3    H127855   1.199   3.733   3.774
 9297TIP3    H227856   1.122   3.672   3.890
 9298TIP3   OH227857   0.046   3.197   5.774
 9298TIP3    H127858   0.073   3.107   5.752
 9298TIP3    H227859   0.025   3.193   5.867
 9299TIP3   OH227860   3.547   6.717   4.382
 9299TIP3    H127861   3.601   6.683   4.453
 9299TIP3    H227862   3.457   6.696   4.407
 9300TIP3   OH227863   2.033   3.261   0.053
 9300TIP3    H127864   2.032   3.356   0.041
 9300TIP3    H227865   1.958   3.230   0.001
 9301TIP3   OH227866  -0.002   0.234   3.912
 9301TIP3    H127867   0.080   0.199   3.876
 9301TIP3    H227868   0.017   0.250   4.004
 9302TIP3   OH227869   0.064   0.793   1.659
 9302TIP3    H127870   0.078   0.880   1.697
 9302TIP3    H227871   0.032   0.740   1.731
 9303TIP3   OH227872   0.466   3.490   4.711
 9303TIP3    H127873   0.443   3.477   4.619
 9303TIP3    H227874   0.439   3.409   4.754
 9304TIP3   OH227875   0.649   3.503   0.632
 9304TIP3    H127876   0.584   3.500   0.562
 9304TIP3    H227877   0.694   3.587   0.620
 9305TIP3   OH227878   1.494   6.652   4.707
 9305TIP3    H127879   1.461   6.659   4.796
 9305TIP3    H227880   1.417   6.635   4.653
 9306TIP3   OH227881   6.715   5.208   5.473
 9306TIP3    H127882   6.809   5.209   5.456
 9306TIP3    H227883   6.698   5.119   5.506
 9307TIP3   OH227884   0.399   1.018   0.203
 9307TIP3    H127885   0.327   0.958   0.221
 9307TIP3    H227886   0.373   1.099   0.247
 9308TIP3   OH227887   3.399   1.818   3.963
 9308TIP3    H127888   3.417   1.769   3.883
 9308TIP3    H227889   3.362   1.752   4.022
 9309TIP3   OH227890   3.706   6.529   2.489
 9309TIP3    H127891   3.755   6.480   2.555
 9309TIP3    H227892   3.737   6.493   2.406
 9310TIP3   OH227893   5.281   1.350   4.872
 9310TIP3    H127894   5.363   1.380   4.833
 9310TIP3    H227895   5.274   1.257   4.846
 9311TIP3   OH227896   1.784   6.260   2.884
 9311TIP3    H127897   1.816   6.313   2.958
 9311TIP3    H227898   1.696   6.292   2.868
 9312TIP3   OH227899   1.459   5.986   2.575
 9312TIP3    H127900   1.388   5.946   2.525
 9312TIP3    H227901   1.513   6.030   2.509
 9313TIP3   OH227902   6.219   0.723   3.154
 9313TIP3    H127903   6.283   0.780   3.197
 9313TIP3    H227904   6.171   0.683   3.226
 9314TIP3   OH227905   1.302   4.924   3.508
 9314TIP3    H127906   1.376   4.975   3.541
 9314TIP3    H227907   1.227   4.957   3.556
 9315TIP3   OH227908   6.582   4.884   5.834
 9315TIP3    H127909   6.527   4.943   5.885
 9315TIP3    H227910   6.657   4.866   5.890
 9316TIP3   OH227911   2.029   4.567   3.253
 9316TIP3    H127912   1.989   4.516   3.324
 9316TIP3    H227913   2.015   4.658   3.278
 9317TIP3   OH227914   1.615   3.388   1.542
 9317TIP3    H127915   1.555   3.356   1.475
 9317TIP3    H227916   1.651   3.468   1.504
 9318TIP3   OH227917   6.040   0.551   1.836
 9318TIP3    H127918   6.047   0.550   1.932
 9318TIP3    H227919   6.125   0.584   1.807
 9319TIP3   OH227920   0.840   3.233   5.503
 9319TIP3    H127921   0.839   3.149   5.550
 9319TIP3    H227922   0.895   3.216   5.426
 9320TIP3   OH227923   0.831   1.383   3.244
 9320TIP3    H127924   0.737   1.369   3.234
 9320TIP3    H227925   0.842   1.408   3.336
 9321TIP3   OH227926   1.074   5.257   1.708
 9321TIP3    H127927   1.019   5.182   1.730
 9321TIP3    H227928   1.053   5.322   1.775
 9322TIP3   OH227929   3.528   5.577   2.303
 9322TIP3    H127930   3.594   5.631   2.346
 9322TIP3    H227931   3.481   5.534   2.375
 9323TIP3   OH227932   3.243   5.732   0.112
 9323TIP3    H127933   3.183   5.794   0.072
 9323TIP3    H227934   3.306   5.786   0.159
 9324TIP3   OH227935   2.887   1.106   0.353
 9324TIP3    H127936   2.870   1.200   0.360
 9324TIP3    H227937   2.804   1.068   0.325
 9325TIP3   OH227938   4.920   0.445   0.573
 9325TIP3    H127939   4.957   0.375   0.627
 9325TIP3    H227940   4.842   0.405   0.534
 9326TIP3   OH227941   1.990   3.680   5.209
 9326TIP3    H127942   2.063   3.638   5.255
 9326TIP3    H227943   1.930   3.706   5.278
 9327TIP3   OH227944   3.806   0.645   4.545
 9327TIP3    H127945   3.839   0.704   4.613
 9327TIP3    H227946   3.728   0.605   4.584
 9328TIP3   OH227947   2.417   5.208   4.681
 9328TIP3    H127948   2.414   5.118   4.649
 9328TIP3    H227949   2.499   5.213   4.731
 9329TIP3   OH227950   1.552   6.010   2.996
 9329TIP3    H127951   1.506   5.979   3.074
 9329TIP3    H227952   1.520   5.954   2.925
 9330TIP3   OH227953   6.014   0.494   2.981
 9330TIP3    H127954   6.029   0.586   3.006
 9330TIP3    H227955   5.920   0.490   2.963
 9331TIP3   OH227956   6.827   0.413   0.237
 9331TIP3    H127957   6.770   0.483   0.205
 9331TIP3    H227958   6.826   0.347   0.167
 9332TIP3   OH227959   0.368   3.864   2.551
 9332TIP3    H127960   0.441   3.825   2.599
 9332TIP3    H227961   0.362   3.813   2.471
 9333TIP3   OH227962   4.341   1.328   5.693
 9333TIP3    H127963   4.331   1.376   5.611
 9333TIP3    H227964   4.315   1.238   5.671
 9334TIP3   OH227965   4.253   0.320   5.380
 9334TIP3    H127966   4.260   0.328   5.284
 9334TIP3    H227967   4.175   0.268   5.394
 9335TIP3   OH227968   1.159   4.395   4.692
 9335TIP3    H127969   1.216   4.323   4.668
 9335TIP3    H227970   1.199   4.432   4.771
 9336TIP3   OH227971   6.827   0.842   5.566
 9336TIP3    H127972   6.767   0.851   5.640
 9336TIP3    H227973   6.845   0.932   5.539
 9337TIP3   OH227974   4.358   6.426   0.530
 9337TIP3    H127975   4.340   6.341   0.569
 9337TIP3    H227976   4.453   6.435   0.535
 9338TIP3   OH227977   1.445   0.290   1.489
 9338TIP3    H127978   1.473   0.227   1.423
 9338TIP3    H227979   1.412   0.236   1.561
 9339TIP3   OH227980   0.603   1.202   1.098
 9339TIP3    H127981   0.586   1.296   1.091
 9339TIP3    H227982   0.688   1.190   1.057
 9340TIP3   OH227983   1.672   4.578   0.449
 9340TIP3    H127984   1.627   4.639   0.507
 9340TIP3    H227985   1.759   4.569   0.487
 9341TIP3   OH227986   3.902   0.766   3.713
 9341TIP3    H127987   3.959   0.700   3.673
 9341TIP3    H227988   3.906   0.746   3.807
 9342TIP3   OH227989   2.356   5.982   3.626
 9342TIP3    H127990   2.263   5.994   3.648
 9342TIP3    H227991   2.368   5.887   3.624
 9343TIP3   OH227992   5.801   1.766   5.480
 9343TIP3    H127993   5.803   1.683   5.433
 9343TIP3    H227994   5.713   1.800   5.465
 9344TIP3   OH227995   7.037   1.157   4.997
 9344TIP3    H127996   7.089   1.237   4.991
 9344TIP3    H227997   6.946   1.187   4.995
 9345TIP3   OH227998   5.700   4.971   3.808
 9345TIP3    H127999   5.684   4.880   3.833
 9345TIP3    H228000   5.762   4.966   3.735
 9346TIP3   OH228001   4.487   2.941   1.427
 9346TIP3    H128002   4.516   2.855   1.457
 9346TIP3    H228003   4.557   3.000   1.454
 9347TIP3   OH228004   3.725   0.486   2.028
 9347TIP3    H128005   3.652   0.522   1.978
 9347TIP3    H228006   3.767   0.425   1.968
 9348TIP3   OH228007   2.253   5.617   5.752
 9348TIP3    H128008   2.264   5.534   5.798
 9348TIP3    H228009   2.335   5.630   5.705
 9349TIP3   OH228010   7.123   3.714   3.553
 9349TIP3    H128011   7.108   3.659   3.476
 9349TIP3    H228012   7.044   3.703   3.606
 9350TIP3   OH228013   5.994   5.860   3.169
 9350TIP3    H128014   5.972   5.905   3.251
 9350TIP3    H228015   5.944   5.779   3.172
 9351TIP3   OH228016   3.661   6.267  -0.034
 9351TIP3    H128017   3.632   6.348   0.008
 9351TIP3    H228018   3.684   6.209   0.039
 9352TIP3   OH228019   1.547   0.054   3.051
 9352TIP3    H128020   1.458   0.018   3.061
 9352TIP3    H228021   1.569   0.036   2.959
 9353TIP3   OH228022   0.925   3.447   0.121
 9353TIP3    H128023   0.896   3.485   0.038
 9353TIP3    H228024   0.947   3.357   0.100
 9354TIP3   OH228025   3.722   2.487   5.349
 9354TIP3    H128026   3.727   2.581   5.330
 9354TIP3    H228027   3.807   2.452   5.325
 9355TIP3   OH228028   1.351   4.527   3.511
 9355TIP3    H128029   1.344   4.545   3.418
 9355TIP3    H228030   1.305   4.444   3.524
 9356TIP3   OH228031   5.575   0.434   4.425
 9356TIP3    H128032   5.582   0.476   4.339
 9356TIP3    H228033   5.627   0.489   4.483
 9357TIP3   OH228034   0.340   5.492   5.825
 9357TIP3    H128035   0.290   5.430   5.878
 9357TIP3    H228036   0.328   5.576   5.869
 9358TIP3   OH228037   1.705   0.566   4.508
 9358TIP3    H128038   1.703   0.584   4.414
 9358TIP3    H228039   1.795   0.540   4.526
 9359TIP3   OH228040   6.551   3.980   3.400
 9359TIP3    H128041   6.471   4.018   3.437
 9359TIP3    H228042   6.593   3.937   3.475
 9360TIP3   OH228043   1.084   0.398   3.700
 9360TIP3    H128044   1.053   0.462   3.764
 9360TIP3    H228045   1.007   0.343   3.683
 9361TIP3   OH228046   3.531   0.450   1.410
 9361TIP3    H128047   3.531   0.545   1.419
 9361TIP3    H228048   3.605   0.432   1.352
 9362TIP3   OH228049   4.173   1.776   5.818
 9362TIP3    H128050   4.113   1.781   5.892
 9362TIP3    H228051   4.235   1.707   5.843
 9363TIP3   OH228052   2.636   4.819   5.357
 9363TIP3    H128053   2.729   4.801   5.343
 9363TIP3    H228054   2.633   4.870   5.438
 9364TIP3   OH228055   4.240   3.648   4.800
 9364TIP3    H128056   4.175   3.712   4.772
 9364TIP3    H228057   4.194   3.592   4.862
 9365TIP3   OH228058   1.008   4.667   4.532
 9365TIP3    H128059   0.956   4.740   4.567
 9365TIP3    H228060   0.969   4.589   4.571
 9366TIP3   OH228061   1.349   4.796   1.351
 9366TIP3    H128062   1.265   4.783   1.395
 9366TIP3    H228063   1.369   4.889   1.365
 9367TIP3   OH228064   5.232   3.420   5.221
 9367TIP3    H128065   5.277   3.386   5.144
 9367TIP3    H228066   5.234   3.515   5.211
 9368TIP3   OH228067  -0.004   6.208   4.735
 9368TIP3    H128068  -0.054   6.155   4.673
 9368TIP3    H228069   0.079   6.225   4.690
 9369TIP3   OH228070   7.091   0.104   2.445
 9369TIP3    H128071   7.128   0.090   2.532
 9369TIP3    H228072   7.160   0.076   2.385
 9370TIP3   OH228073   0.129   6.771   1.651
 9370TIP3    H128074   0.049   6.774   1.703
 9370TIP3    H228075   0.199   6.762   1.716
 9371TIP3   OH228076   1.283   1.523   3.037
 9371TIP3    H128077   1.260   1.531   3.130
 9371TIP3    H228078   1.338   1.599   3.019
 9372TIP3   OH228079   6.872   0.827   0.241
 9372TIP3    H128080   6.953   0.777   0.240
 9372TIP3    H228081   6.861   0.853   0.333
 9373TIP3   OH228082   1.600   4.785   0.606
 9373TIP3    H128083   1.660   4.843   0.654
 9373TIP3    H228084   1.541   4.751   0.674
 9374TIP3   OH228085   5.058   0.252   5.834
 9374TIP3    H128086   5.054   0.237   5.928
 9374TIP3    H228087   5.142   0.215   5.806
 9375TIP3   OH228088   3.995   0.466   0.565
 9375TIP3    H128089   4.048   0.390   0.541
 9375TIP3    H228090   4.021   0.486   0.655
 9376TIP3   OH228091   5.438   0.191   0.315
 9376TIP3    H128092   5.365   0.252   0.310
 9376TIP3    H228093   5.514   0.240   0.285
 9377TIP3   OH228094   0.294   0.639   4.523
 9377TIP3    H128095   0.224   0.642   4.457
 9377TIP3    H228096   0.309   0.546   4.538
 9378TIP3   OH228097   5.072   2.985   4.775
 9378TIP3    H128098   5.131   3.010   4.704
 9378TIP3    H228099   5.011   2.924   4.735
 9379TIP3   OH228100   0.744   5.876   4.466
 9379TIP3    H128101   0.678   5.943   4.446
 9379TIP3    H228102   0.744   5.870   4.561
 9380TIP3   OH228103   2.624   6.525   5.290
 9380TIP3    H128104   2.621   6.447   5.346
 9380TIP3    H228105   2.641   6.490   5.203
 9381TIP3   OH228106   0.963   3.109   5.860
 9381TIP3    H128107   1.039   3.120   5.803
 9381TIP3    H228108   0.999   3.079   5.943
 9382TIP3   OH228109   3.282   2.882   1.807
 9382TIP3    H128110   3.200   2.896   1.759
 9382TIP3    H228111   3.337   2.833   1.745
 9383TIP3   OH228112   5.239   1.259   1.750
 9383TIP3    H128113   5.236   1.354   1.762
 9383TIP3    H228114   5.291   1.227   1.824
 9384TIP3   OH228115   2.224   4.321   4.049
 9384TIP3    H128116   2.199   4.271   3.972
 9384TIP3    H228117   2.143   4.334   4.097
 9385TIP3   OH228118   3.941   4.133   3.999
 9385TIP3    H128119   3.852   4.115   4.030
 9385TIP3    H228120   3.994   4.133   4.079
 9386TIP3   OH228121   2.184   3.083   4.320
 9386TIP3    H128122   2.199   3.037   4.403
 9386TIP3    H228123   2.201   3.016   4.253
 9387TIP3   OH228124   6.430   1.365   0.907
 9387TIP3    H128125   6.448   1.296   0.843
 9387TIP3    H228126   6.507   1.421   0.903
 9388TIP3   OH228127   2.345   0.399   4.814
 9388TIP3    H128128   2.333   0.494   4.805
 9388TIP3    H228129   2.426   0.381   4.767
 9389TIP3   OH228130   1.815   2.110   5.070
 9389TIP3    H128131   1.820   2.116   4.975
 9389TIP3    H228132   1.819   2.016   5.089
 9390TIP3   OH228133   5.971   1.191   2.565
 9390TIP3    H128134   5.927   1.274   2.548
 9390TIP3    H228135   5.913   1.124   2.530
 9391TIP3   OH228136   3.267   1.039   1.680
 9391TIP3    H128137   3.193   0.982   1.663
 9391TIP3    H228138   3.229   1.122   1.709
 9392TIP3   OH228139   4.496   4.018   4.764
 9392TIP3    H128140   4.576   4.034   4.814
 9392TIP3    H228141   4.513   3.936   4.717
 9393TIP3   OH228142   6.615   5.781   1.955
 9393TIP3    H128143   6.580   5.704   1.999
 9393TIP3    H228144   6.668   5.746   1.884
 9394TIP3   OH228145   3.054   0.400   3.036
 9394TIP3    H128146   3.001   0.445   2.970
 9394TIP3    H228147   3.059   0.309   3.005
 9395TIP3   OH228148   4.932   0.109   4.706
 9395TIP3    H128149   4.882   0.027   4.699
 9395TIP3    H228150   4.916   0.139   4.795
 9396TIP3   OH228151   0.196   3.961   3.831
 9396TIP3    H128152   0.269   4.016   3.806
 9396TIP3    H228153   0.212   3.878   3.788
 9397TIP3   OH228154   6.687   0.046   5.574
 9397TIP3    H128155   6.710   0.137   5.553
 9397TIP3    H228156   6.762  -0.005   5.544
 9398TIP3   OH228157   4.554   0.916   5.251
 9398TIP3    H128158   4.608   0.987   5.285
 9398TIP3    H228159   4.592   0.896   5.166
 9399TIP3   OH228160   6.262   5.201   3.953
 9399TIP3    H128161   6.231   5.244   3.874
 9399TIP3    H228162   6.328   5.260   3.989
 9400TIP3   OH228163   4.270   3.786   3.339
 9400TIP3    H128164   4.311   3.765   3.423
 9400TIP3    H228165   4.228   3.704   3.311
 9401TIP3   OH228166   6.118   1.268   1.607
 9401TIP3    H128167   6.174   1.306   1.539
 9401TIP3    H228168   6.172   1.199   1.646
 9402TIP3   OH228169   5.334   4.933   0.154
 9402TIP3    H128170   5.325   5.027   0.140
 9402TIP3    H228171   5.293   4.893   0.077
 9403TIP3   OH228172   5.076   3.007   5.727
 9403TIP3    H128173   4.998   2.961   5.760
 9403TIP3    H228174   5.052   3.100   5.730
 9404TIP3   OH228175   0.129   5.009   5.189
 9404TIP3    H128176   0.143   4.925   5.233
 9404TIP3    H228177   0.214   5.029   5.149
 9405TIP3   OH228178   2.945   2.390   1.846
 9405TIP3    H128179   2.886   2.442   1.791
 9405TIP3    H228180   3.030   2.432   1.836
 9406TIP3   OH228181   2.328   6.735   1.968
 9406TIP3    H128182   2.233   6.720   1.959
 9406TIP3    H228183   2.335   6.825   1.998
 9407TIP3   OH228184   1.936   0.207   4.523
 9407TIP3    H128185   1.956   0.114   4.520
 9407TIP3    H228186   1.842   0.212   4.508
 9408TIP3   OH228187   4.786   5.539   1.061
 9408TIP3    H128188   4.806   5.588   1.141
 9408TIP3    H228189   4.871   5.516   1.025
 9409TIP3   OH228190   1.967   6.675   2.965
 9409TIP3    H128191   1.980   6.688   2.871
 9409TIP3    H228192   1.994   6.757   3.005
 9410TIP3   OH228193   1.301   6.203   3.000
 9410TIP3    H128194   1.316   6.161   2.915
 9410TIP3    H228195   1.370   6.167   3.056
 9411TIP3   OH228196   6.057   1.001   2.048
 9411TIP3    H128197   6.033   0.966   2.134
 9411TIP3    H228198   6.132   0.946   2.021
 9412TIP3   OH228199   1.510   4.534   5.456
 9412TIP3    H128200   1.502   4.520   5.362
 9412TIP3    H228201   1.421   4.521   5.490
 9413TIP3   OH228202   6.958   1.379   4.658
 9413TIP3    H128203   6.907   1.400   4.580
 9413TIP3    H228204   7.045   1.358   4.625
 9414TIP3   OH228205   5.354   4.007   1.790
 9414TIP3    H128206   5.328   4.091   1.828
 9414TIP3    H228207   5.298   3.998   1.713
 9415TIP3   OH228208   4.632   0.481   0.928
 9415TIP3    H128209   4.695   0.409   0.932
 9415TIP3    H228210   4.661   0.533   0.853
 9416TIP3   OH228211   0.553   6.647   1.928
 9416TIP3    H128212   0.530   6.566   1.973
 9416TIP3    H228213   0.604   6.697   1.993
 9417TIP3   OH228214   1.765   0.002   2.756
 9417TIP3    H128215   1.853   0.041   2.749
 9417TIP3    H228216   1.713   0.049   2.690
 9418TIP3   OH228217   0.776   3.912   5.288
 9418TIP3    H128218   0.780   3.891   5.195
 9418TIP3    H228219   0.866   3.909   5.318
 9419TIP3   OH228220   1.849   4.414   3.536
 9419TIP3    H128221   1.790   4.339   3.526
 9419TIP3    H228222   1.806   4.469   3.600
 9420TIP3   OH228223   2.396   0.041   3.637
 9420TIP3    H128224   2.372   0.085   3.556
 9420TIP3    H228225   2.414  -0.049   3.612
 9421TIP3   OH228226   0.271   6.111   3.376
 9421TIP3    H128227   0.206   6.108   3.447
 9421TIP3    H228228   0.224   6.076   3.300
 9422TIP3   OH228229   3.604   1.858   2.253
 9422TIP3    H128230   3.523   1.870   2.204
 9422TIP3    H228231   3.624   1.946   2.287
 9423TIP3   OH228232   3.396   4.807   1.871
 9423TIP3    H128233   3.340   4.779   1.799
 9423TIP3    H228234   3.440   4.727   1.900
 9424TIP3   OH228235   5.258   4.855   1.279
 9424TIP3    H128236   5.239   4.938   1.236
 9424TIP3    H228237   5.173   4.811   1.284
 9425TIP3   OH228238   4.160   6.054   1.248
 9425TIP3    H128239   4.070   6.049   1.280
 9425TIP3    H228240   4.185   6.145   1.260
 9426TIP3   OH228241   3.429   5.907   5.759
 9426TIP3    H128242   3.499   5.844   5.746
 9426TIP3    H228243   3.358   5.856   5.799
 9427TIP3   OH228244   7.136   6.080   2.457
 9427TIP3    H128245   7.096   6.001   2.493
 9427TIP3    H228246   7.205   6.103   2.519
 9428TIP3   OH228247   2.386   1.667   4.184
 9428TIP3    H128248   2.427   1.754   4.188
 9428TIP3    H228249   2.321   1.674   4.115
 9429TIP3   OH228250   4.328   3.372   0.752
 9429TIP3    H128251   4.285   3.453   0.781
 9429TIP3    H228252   4.374   3.397   0.672
 9430TIP3   OH228253   6.007   0.220   2.693
 9430TIP3    H128254   6.050   0.138   2.718
 9430TIP3    H228255   6.067   0.289   2.724
 9431TIP3   OH228256   1.391   0.063   2.122
 9431TIP3    H128257   1.307   0.023   2.098
 9431TIP3    H228258   1.366   0.145   2.165
 9432TIP3   OH228259   5.875   3.273   0.872
 9432TIP3    H128260   5.862   3.337   0.802
 9432TIP3    H228261   5.870   3.188   0.828
 9433TIP3   OH228262   3.507   0.870   5.130
 9433TIP3    H128263   3.527   0.781   5.102
 9433TIP3    H228264   3.590   0.906   5.159
 9434TIP3   OH228265   6.366   3.382   3.596
 9434TIP3    H128266   6.345   3.337   3.515
 9434TIP3    H228267   6.325   3.468   3.587
 9435TIP3   OH228268   5.457   5.976   4.005
 9435TIP3    H128269   5.376   5.998   3.959
 9435TIP3    H228270   5.441   5.890   4.043
 9436TIP3   OH228271   2.684   1.296   5.553
 9436TIP3    H128272   2.655   1.212   5.518
 9436TIP3    H228273   2.750   1.274   5.619
 9437TIP3   OH228274   3.297   3.789   3.532
 9437TIP3    H128275   3.283   3.756   3.621
 9437TIP3    H228276   3.361   3.728   3.494
 9438TIP3   OH228277   4.606   2.942   1.808
 9438TIP3    H128278   4.514   2.920   1.796
 9438TIP3    H228279   4.629   2.903   1.893
 9439TIP3   OH228280   0.381   2.412   1.612
 9439TIP3    H128281   0.344   2.412   1.524
 9439TIP3    H228282   0.473   2.434   1.600
 9440TIP3   OH228283   3.717   1.151   5.418
 9440TIP3    H128284   3.663   1.129   5.494
 9440TIP3    H228285   3.684   1.235   5.388
 9441TIP3   OH228286   0.056   3.853   2.198
 9441TIP3    H128287   0.080   3.855   2.290
 9441TIP3    H228288   0.061   3.944   2.169
 9442TIP3   OH228289   2.784   5.905   4.706
 9442TIP3    H128290   2.739   5.972   4.758
 9442TIP3    H228291   2.714   5.860   4.659
 9443TIP3   OH228292   5.411   4.623   1.251
 9443TIP3    H128293   5.381   4.571   1.176
 9443TIP3    H228294   5.366   4.707   1.241
 9444TIP3   OH228295   4.130   2.550   4.048
 9444TIP3    H128296   4.167   2.468   4.080
 9444TIP3    H228297   4.196   2.616   4.069
 9445TIP3   OH228298   0.123   2.934   5.770
 9445TIP3    H128299   0.215   2.929   5.744
 9445TIP3    H228300   0.123   2.911   5.863
 9446TIP3   OH228301   0.135   1.413   0.320
 9446TIP3    H128302   0.211   1.355   0.325
 9446TIP3    H228303   0.166   1.490   0.273
 9447TIP3   OH228304   4.787   5.739   3.257
 9447TIP3    H128305   4.875   5.729   3.292
 9447TIP3    H228306   4.799   5.754   3.163
 9448TIP3   OH228307   6.729   2.474   2.642
 9448TIP3    H128308   6.811   2.523   2.629
 9448TIP3    H228309   6.747   2.417   2.717
 9449TIP3   OH228310   5.713   1.990   2.733
 9449TIP3    H128311   5.625   2.004   2.770
 9449TIP3    H228312   5.762   2.068   2.758
 9450TIP3   OH228313   5.462   2.250   1.801
 9450TIP3    H128314   5.470   2.285   1.890
 9450TIP3    H228315   5.525   2.178   1.798
 9451TIP3   OH228316   6.548   6.469   2.600
 9451TIP3    H128317   6.539   6.410   2.674
 9451TIP3    H228318   6.470   6.524   2.603
 9452TIP3   OH228319   4.545   3.458   3.404
 9452TIP3    H128320   4.479   3.392   3.382
 9452TIP3    H228321   4.603   3.414   3.465
 9453TIP3   OH228322   6.407   2.561   4.529
 9453TIP3    H128323   6.379   2.539   4.440
 9453TIP3    H228324   6.440   2.650   4.523
 9454TIP3   OH228325   6.356   2.025   4.983
 9454TIP3    H128326   6.270   2.066   4.980
 9454TIP3    H228327   6.414   2.094   5.016
 9455TIP3   OH228328   0.773   4.817   0.468
 9455TIP3    H128329   0.729   4.895   0.435
 9455TIP3    H228330   0.728   4.795   0.549
 9456TIP3   OH228331   6.582   0.427   4.396
 9456TIP3    H128332   6.503   0.481   4.386
 9456TIP3    H228333   6.642   0.482   4.446
 9457TIP3   OH228334   0.407   2.361   2.939
 9457TIP3    H128335   0.363   2.399   3.015
 9457TIP3    H228336   0.348   2.381   2.866
 9458TIP3   OH228337   1.832   5.258   4.731
 9458TIP3    H128338   1.829   5.190   4.664
 9458TIP3    H228339   1.923   5.289   4.729
 9459TIP3   OH228340   5.125   5.510   2.686
 9459TIP3    H128341   5.069   5.570   2.636
 9459TIP3    H228342   5.131   5.432   2.631
 9460TIP3   OH228343   4.214   2.575   2.963
 9460TIP3    H128344   4.118   2.570   2.967
 9460TIP3    H228345   4.243   2.562   3.054
 9461TIP3   OH228346   5.849   0.514   5.871
 9461TIP3    H128347   5.894   0.590   5.909
 9461TIP3    H228348   5.919   0.451   5.853
 9462TIP3   OH228349   2.633   2.510   2.930
 9462TIP3    H128350   2.544   2.499   2.896
 9462TIP3    H228351   2.686   2.528   2.852
 9463TIP3   OH228352   4.866   2.080   4.184
 9463TIP3    H128353   4.792   2.026   4.211
 9463TIP3    H228354   4.890   2.047   4.097
 9464TIP3   OH228355   3.818   0.310   3.136
 9464TIP3    H128356   3.732   0.269   3.134
 9464TIP3    H228357   3.876   0.246   3.093
 9465TIP3   OH228358   6.315   1.625   1.082
 9465TIP3    H128359   6.262   1.630   1.003
 9465TIP3    H228360   6.404   1.610   1.051
 9466TIP3   OH228361   3.159   3.412   3.089
 9466TIP3    H128362   3.232   3.432   3.030
 9466TIP3    H228363   3.119   3.497   3.107
 9467TIP3   OH228364   3.621   3.396   1.888
 9467TIP3    H128365   3.542   3.358   1.926
 9467TIP3    H228366   3.597   3.487   1.869
 9468TIP3   OH228367   2.152   1.998   4.715
 9468TIP3    H128368   2.129   2.030   4.628
 9468TIP3    H228369   2.207   1.922   4.699
 9469TIP3   OH228370   1.487   2.297   3.777
 9469TIP3    H128371   1.503   2.360   3.848
 9469TIP3    H228372   1.395   2.310   3.755
 9470TIP3   OH228373   1.126   5.651   5.158
 9470TIP3    H128374   1.172   5.579   5.115
 9470TIP3    H228375   1.186   5.683   5.225
 9471TIP3   OH228376   5.963   3.873   5.076
 9471TIP3    H128377   6.047   3.888   5.119
 9471TIP3    H228378   5.914   3.955   5.087
 9472TIP3   OH228379   5.762   5.961   1.944
 9472TIP3    H128380   5.722   6.021   2.007
 9472TIP3    H228381   5.832   6.012   1.904
 9473TIP3   OH228382   1.904   3.507   0.177
 9473TIP3    H128383   1.840   3.568   0.214
 9473TIP3    H228384   1.913   3.533   0.086
 9474TIP3   OH228385   1.383   5.714   0.312
 9474TIP3    H128386   1.462   5.663   0.292
 9474TIP3    H228387   1.358   5.685   0.400
 9475TIP3   OH228388   2.043   0.115   2.460
 9475TIP3    H128389   2.137   0.114   2.443
 9475TIP3    H228390   2.018   0.023   2.460
 9476TIP3   OH228391   5.108   6.636   1.960
 9476TIP3    H128392   5.121   6.548   1.925
 9476TIP3    H228393   5.069   6.622   2.046
 9477TIP3   OH228394   3.283   3.802   3.230
 9477TIP3    H128395   3.363   3.750   3.223
 9477TIP3    H228396   3.223   3.747   3.280
 9478TIP3   OH228397   2.680   4.994   4.999
 9478TIP3    H128398   2.632   4.924   4.956
 9478TIP3    H228399   2.753   4.950   5.042
 9479TIP3   OH228400   2.564   6.493   0.904
 9479TIP3    H128401   2.593   6.496   0.995
 9479TIP3    H228402   2.624   6.551   0.858
 9480TIP3   OH228403   1.484   4.689   1.706
 9480TIP3    H128404   1.535   4.726   1.778
 9480TIP3    H228405   1.534   4.712   1.628
 9481TIP3   OH228406   1.459   3.045   0.675
 9481TIP3    H128407   1.531   3.016   0.620
 9481TIP3    H228408   1.473   3.001   0.759
 9482TIP3   OH228409   6.226   1.428   2.561
 9482TIP3    H128410   6.266   1.491   2.501
 9482TIP3    H228411   6.146   1.400   2.517
 9483TIP3   OH228412   1.040   6.452   1.751
 9483TIP3    H128413   1.067   6.544   1.750
 9483TIP3    H228414   0.960   6.452   1.804
 9484TIP3   OH228415   5.098   4.279   0.324
 9484TIP3    H128416   5.018   4.331   0.333
 9484TIP3    H228417   5.164   4.330   0.370
 9485TIP3   OH228418   6.859   6.659   3.045
 9485TIP3    H128419   6.772   6.650   3.085
 9485TIP3    H228420   6.842   6.662   2.951
 9486TIP3   OH228421   5.239   0.375   0.304
 9486TIP3    H128422   5.282   0.417   0.230
 9486TIP3    H228423   5.150   0.410   0.304
 9487TIP3   OH228424   1.970   6.225   3.911
 9487TIP3    H128425   1.917   6.275   3.850
 9487TIP3    H228426   1.917   6.148   3.932
 9488TIP3   OH228427   4.919   1.001   1.290
 9488TIP3    H128428   4.899   1.092   1.269
 9488TIP3    H228429   4.858   0.950   1.237
 9489TIP3   OH228430   0.566   4.952   0.120
 9489TIP3    H128431   0.557   5.019   0.052
 9489TIP3    H228432   0.503   4.884   0.096
 9490TIP3   OH228433   5.490   1.732   2.536
 9490TIP3    H128434   5.579   1.706   2.559
 9490TIP3    H228435   5.444   1.650   2.520
 9491TIP3   OH228436   1.722   2.336   2.593
 9491TIP3    H128437   1.699   2.310   2.682
 9491TIP3    H228438   1.646   2.312   2.540
 9492TIP3   OH228439   5.833   1.432   2.543
 9492TIP3    H128440   5.869   1.470   2.623
 9492TIP3    H228441   5.807   1.508   2.490
 9493TIP3   OH228442   1.032   1.850   0.719
 9493TIP3    H128443   0.958   1.791   0.704
 9493TIP3    H228444   0.999   1.915   0.780
 9494TIP3   OH228445   1.999   1.701   4.182
 9494TIP3    H128446   2.082   1.717   4.138
 9494TIP3    H228447   1.971   1.615   4.149
 9495TIP3   OH228448   5.014   0.461   3.387
 9495TIP3    H128449   4.920   0.443   3.386
 9495TIP3    H228450   5.049   0.413   3.311
 9496TIP3   OH228451   5.863   3.982   0.494
 9496TIP3    H128452   5.944   4.007   0.538
 9496TIP3    H228453   5.810   3.939   0.561
 9497TIP3   OH228454   5.502   6.405   4.937
 9497TIP3    H128455   5.563   6.430   4.868
 9497TIP3    H228456   5.532   6.453   5.014
 9498TIP3   OH228457   1.819   2.719   4.908
 9498TIP3    H128458   1.912   2.728   4.885
 9498TIP3    H228459   1.778   2.799   4.876
 9499TIP3   OH228460   2.263   0.775   2.990
 9499TIP3    H128461   2.193   0.830   2.955
 9499TIP3    H228462   2.311   0.744   2.913
 9500TIP3   OH228463   2.708   2.603   5.773
 9500TIP3    H128464   2.667   2.650   5.700
 9500TIP3    H228465   2.716   2.669   5.842
 9501TIP3   OH228466   5.266   6.623   2.524
 9501TIP3    H128467   5.195   6.663   2.574
 9501TIP3    H228468   5.308   6.562   2.584
 9502TIP3   OH228469   4.880   2.858   1.698
 9502TIP3    H128470   4.788   2.880   1.712
 9502TIP3    H228471   4.908   2.818   1.781
 9503TIP3   OH228472   1.219   0.813   3.727
 9503TIP3    H128473   1.247   0.870   3.799
 9503TIP3    H228474   1.175   0.872   3.666
 9504TIP3   OH228475   6.531   0.548   4.707
 9504TIP3    H128476   6.588   0.485   4.750
 9504TIP3    H228477   6.442   0.515   4.723
 9505TIP3   OH228478   1.969   4.177   2.935
 9505TIP3    H128479   1.978   4.120   2.858
 9505TIP3    H228480   1.944   4.262   2.899
 9506TIP3   OH228481   3.297   6.169   3.838
 9506TIP3    H128482   3.258   6.133   3.917
 9506TIP3    H228483   3.243   6.245   3.816
 9507TIP3   OH228484   4.105   5.989   0.743
 9507TIP3    H128485   4.038   6.043   0.785
 9507TIP3    H228486   4.159   5.957   0.815
 9508TIP3   OH228487   0.080   4.508   2.358
 9508TIP3    H128488   0.032   4.535   2.279
 9508TIP3    H228489   0.121   4.424   2.334
 9509TIP3   OH228490   5.053   3.788   5.403
 9509TIP3    H128491   5.021   3.805   5.314
 9509TIP3    H228492   5.135   3.741   5.389
 9510TIP3   OH228493   6.017   5.409   4.885
 9510TIP3    H128494   5.998   5.372   4.799
 9510TIP3    H228495   6.104   5.448   4.877
 9511TIP3   OH228496   1.388   6.254   3.417
 9511TIP3    H128497   1.482   6.242   3.430
 9511TIP3    H228498   1.378   6.348   3.403
 9512TIP3   OH228499   7.075   2.311   3.443
 9512TIP3    H128500   7.094   2.382   3.504
 9512TIP3    H228501   6.998   2.267   3.480
 9513TIP3   OH228502   2.856   2.413   2.222
 9513TIP3    H128503   2.776   2.362   2.205
 9513TIP3    H228504   2.924   2.367   2.173
 9514TIP3   OH228505   5.504   3.883   4.101
 9514TIP3    H128506   5.422   3.836   4.108
 9514TIP3    H228507   5.564   3.821   4.059
 9515TIP3   OH228508   5.431   5.950   1.473
 9515TIP3    H128509   5.488   5.873   1.475
 9515TIP3    H228510   5.459   6.003   1.548
 9516TIP3   OH228511   3.126   1.911   1.788
 9516TIP3    H128512   3.099   1.996   1.753
 9516TIP3    H228513   3.130   1.854   1.712
 9517TIP3   OH228514   6.101   5.981   0.053
 9517TIP3    H128515   6.025   5.967  -0.003
 9517TIP3    H228516   6.074   5.948   0.139
 9518TIP3   OH228517   5.566   6.439   3.428
 9518TIP3    H128518   5.502   6.401   3.488
 9518TIP3    H228519   5.600   6.364   3.379
 9519TIP3   OH228520   0.095   6.161   2.690
 9519TIP3    H128521   0.090   6.112   2.773
 9519TIP3    H228522   0.067   6.249   2.713
 9520TIP3   OH228523   7.102   0.272   2.947
 9520TIP3    H128524   7.190   0.240   2.927
 9520TIP3    H228525   7.091   0.347   2.889
 9521TIP3   OH228526   6.995   5.149   4.917
 9521TIP3    H128527   7.050   5.102   4.855
 9521TIP3    H228528   6.919   5.092   4.930
 9522TIP3   OH228529   3.195   0.898   3.245
 9522TIP3    H128530   3.108   0.921   3.276
 9522TIP3    H228531   3.197   0.927   3.154
 9523TIP3   OH228532   5.478   6.528   2.167
 9523TIP3    H128533   5.458   6.494   2.255
 9523TIP3    H228534   5.561   6.486   2.144
 9524TIP3   OH228535   3.583   1.740   1.531
 9524TIP3    H128536   3.626   1.751   1.616
 9524TIP3    H228537   3.535   1.822   1.518
 9525TIP3   OH228538   1.219   0.589   2.171
 9525TIP3    H128539   1.151   0.545   2.121
 9525TIP3    H228540   1.288   0.524   2.182
 9526TIP3   OH228541   4.424   3.541   2.872
 9526TIP3    H128542   4.512   3.523   2.839
 9526TIP3    H228543   4.433   3.538   2.967
 9527TIP3   OH228544   4.018   5.380   4.258
 9527TIP3    H128545   4.055   5.467   4.242
 9527TIP3    H228546   4.094   5.321   4.256
 9528TIP3   OH228547   3.645   1.263   3.854
 9528TIP3    H128548   3.661   1.206   3.779
 9528TIP3    H228549   3.644   1.204   3.929
 9529TIP3   OH228550   0.452   1.139   1.307
 9529TIP3    H128551   0.499   1.170   1.384
 9529TIP3    H228552   0.504   1.169   1.233
 9530TIP3   OH228553   3.075   4.481   4.523
 9530TIP3    H128554   3.090   4.514   4.434
 9530TIP3    H228555   3.133   4.406   4.531
 9531TIP3   OH228556   2.655   4.193   4.433
 9531TIP3    H128557   2.579   4.249   4.416
 9531TIP3    H228558   2.622   4.124   4.491
 9532TIP3   OH228559   4.610   4.188   3.293
 9532TIP3    H128560   4.690   4.151   3.330
 9532TIP3    H228561   4.540   4.133   3.328
 9533TIP3   OH228562   1.900   1.313   0.756
 9533TIP3    H128563   1.894   1.220   0.735
 9533TIP3    H228564   1.859   1.321   0.842
 9534TIP3   OH228565   4.786   4.888   1.250
 9534TIP3    H128566   4.789   4.793   1.244
 9534TIP3    H228567   4.863   4.918   1.201
 9535TIP3   OH228568   3.119   5.586   5.307
 9535TIP3    H128569   3.150   5.664   5.354
 9535TIP3    H228570   3.044   5.616   5.257
 9536TIP3   OH228571   2.219   2.665   5.472
 9536TIP3    H128572   2.190   2.700   5.556
 9536TIP3    H228573   2.139   2.656   5.420
 9537TIP3   OH228574   5.901   2.555   2.670
 9537TIP3    H128575   5.891   2.459   2.671
 9537TIP3    H228576   5.860   2.583   2.751
 9538TIP3   OH228577   3.593   6.149   3.312
 9538TIP3    H128578   3.521   6.184   3.261
 9538TIP3    H228579   3.593   6.201   3.392
 9539TIP3   OH228580   6.230   3.055   4.745
 9539TIP3    H128581   6.137   3.034   4.756
 9539TIP3    H228582   6.237   3.147   4.772
 9540TIP3   OH228583   1.612   2.853   3.255
 9540TIP3    H128584   1.629   2.783   3.318
 9540TIP3    H228585   1.589   2.928   3.309
 9541TIP3   OH228586   5.562   4.617   4.136
 9541TIP3    H128587   5.511   4.536   4.143
 9541TIP3    H228588   5.585   4.639   4.226
 9542TIP3   OH228589   3.419   5.598   5.236
 9542TIP3    H128590   3.326   5.603   5.258
 9542TIP3    H228591   3.421   5.584   5.142
 9543TIP3   OH228592   2.251   3.924   4.503
 9543TIP3    H128593   2.232   3.965   4.418
 9543TIP3    H228594   2.209   3.838   4.498
 9544TIP3   OH228595   3.648   3.342   5.308
 9544TIP3    H128596   3.679   3.385   5.388
 9544TIP3    H228597   3.568   3.390   5.284
 9545TIP3   OH228598   2.194   2.768   5.200
 9545TIP3    H128599   2.221   2.717   5.277
 9545TIP3    H228600   2.153   2.846   5.237
 9546TIP3   OH228601   6.575   0.508   1.415
 9546TIP3    H128602   6.617   0.536   1.334
 9546TIP3    H228603   6.485   0.538   1.407
 9547TIP3   OH228604   0.541   3.360   2.215
 9547TIP3    H128605   0.561   3.366   2.308
 9547TIP3    H228606   0.619   3.393   2.170
 9548TIP3   OH228607   5.243   3.540   5.584
 9548TIP3    H128608   5.168   3.496   5.543
 9548TIP3    H228609   5.206   3.620   5.621
 9549TIP3   OH228610   1.182   5.618   2.335
 9549TIP3    H128611   1.106   5.650   2.384
 9549TIP3    H228612   1.179   5.523   2.345
 9550TIP3   OH228613   1.039   4.745   2.926
 9550TIP3    H128614   0.991   4.682   2.980
 9550TIP3    H228615   1.114   4.771   2.980
 9551TIP3   OH228616   7.067   1.082   1.111
 9551TIP3    H128617   7.136   1.104   1.049
 9551TIP3    H228618   7.073   1.150   1.178
 9552TIP3   OH228619   4.011   1.275   5.325
 9552TIP3    H128620   3.982   1.190   5.358
 9552TIP3    H228621   4.031   1.259   5.233
 9553TIP3   OH228622   0.927   1.455   2.992
 9553TIP3    H128623   0.854   1.440   2.932
 9553TIP3    H228624   0.894   1.423   3.076
 9554TIP3   OH228625   0.695   3.241   5.217
 9554TIP3    H128626   0.623   3.303   5.232
 9554TIP3    H228627   0.769   3.279   5.263
 9555TIP3   OH228628   3.036   3.499   5.274
 9555TIP3    H128629   3.052   3.590   5.301
 9555TIP3    H228630   3.119   3.454   5.289
 9556TIP3   OH228631   2.069   0.284   1.804
 9556TIP3    H128632   2.129   0.313   1.736
 9556TIP3    H228633   1.987   0.330   1.786
 9557TIP3   OH228634   0.316   6.323   5.781
 9557TIP3    H128635   0.270   6.269   5.717
 9557TIP3    H228636   0.343   6.263   5.850
 9558TIP3   OH228637   1.569   3.409   2.128
 9558TIP3    H128638   1.641   3.452   2.175
 9558TIP3    H228639   1.495   3.412   2.188
 9559TIP3   OH228640   2.899   6.545   3.447
 9559TIP3    H128641   2.916   6.453   3.468
 9559TIP3    H228642   2.813   6.545   3.406
 9560TIP3   OH228643   3.303   5.859   2.372
 9560TIP3    H128644   3.381   5.809   2.397
 9560TIP3    H228645   3.235   5.792   2.359
 9561TIP3   OH228646   1.243   5.984   1.827
 9561TIP3    H128647   1.162   6.014   1.867
 9561TIP3    H228648   1.289   6.065   1.803
 9562TIP3   OH228649   2.411   2.133   3.041
 9562TIP3    H128650   2.504   2.113   3.045
 9562TIP3    H228651   2.372   2.059   2.993
 9563TIP3   OH228652   1.968   5.659   1.405
 9563TIP3    H128653   2.019   5.715   1.464
 9563TIP3    H228654   1.914   5.606   1.463
 9564TIP3   OH228655   3.201   5.020   5.440
 9564TIP3    H128656   3.266   4.950   5.434
 9564TIP3    H228657   3.182   5.042   5.349
 9565TIP3   OH228658   3.206   1.113   4.863
 9565TIP3    H128659   3.241   1.034   4.905
 9565TIP3    H228660   3.281   1.152   4.819
 9566TIP3   OH228661   1.380   2.560   3.463
 9566TIP3    H128662   1.422   2.476   3.445
 9566TIP3    H228663   1.287   2.545   3.447
 9567TIP3   OH228664   6.066   0.445   4.720
 9567TIP3    H128665   5.984   0.402   4.745
 9567TIP3    H228666   6.066   0.441   4.624
 9568TIP3   OH228667   1.319   2.053   5.449
 9568TIP3    H128668   1.258   2.127   5.439
 9568TIP3    H228669   1.264   1.975   5.440
 9569TIP3   OH228670   4.959   0.163   3.271
 9569TIP3    H128671   4.867   0.190   3.268
 9569TIP3    H228672   4.973   0.136   3.361
 9570TIP3   OH228673   0.995   2.719   2.615
 9570TIP3    H128674   0.943   2.663   2.673
 9570TIP3    H228675   0.941   2.732   2.538
 9571TIP3   OH228676   5.588   5.731   3.072
 9571TIP3    H128677   5.649   5.689   3.012
 9571TIP3    H228678   5.523   5.772   3.015
 9572TIP3   OH228679   1.879   4.512   0.971
 9572TIP3    H128680   1.953   4.535   1.027
 9572TIP3    H228681   1.849   4.595   0.935
 9573TIP3   OH228682   6.589   6.317   1.753
 9573TIP3    H128683   6.586   6.228   1.786
 9573TIP3    H228684   6.633   6.367   1.821
 9574TIP3   OH228685   2.663   1.291   0.061
 9574TIP3    H128686   2.694   1.373   0.023
 9574TIP3    H228687   2.573   1.282   0.029
 9575TIP3   OH228688   6.058   3.491   3.361
 9575TIP3    H128689   5.976   3.536   3.380
 9575TIP3    H228690   6.116   3.515   3.433
 9576TIP3   OH228691   3.528   3.306   0.104
 9576TIP3    H128692   3.528   3.226   0.051
 9576TIP3    H228693   3.460   3.361   0.064
 9577TIP3   OH228694   2.851   5.265   3.084
 9577TIP3    H128695   2.897   5.238   3.005
 9577TIP3    H228696   2.880   5.355   3.098
 9578TIP3   OH228697   5.882   0.013   2.175
 9578TIP3    H128698   5.924  -0.065   2.140
 9578TIP3    H228699   5.949   0.054   2.229
 9579TIP3   OH228700   1.023   4.078   4.707
 9579TIP3    H128701   1.078   4.142   4.664
 9579TIP3    H228702   1.016   4.109   4.797
 9580TIP3   OH228703   2.744   2.214   2.447
 9580TIP3    H128704   2.817   2.170   2.403
 9580TIP3    H228705   2.690   2.248   2.376
 9581TIP3   OH228706   1.318   1.873   4.767
 9581TIP3    H128707   1.289   1.862   4.857
 9581TIP3    H228708   1.252   1.828   4.714
 9582TIP3   OH228709   1.668   6.541   5.013
 9582TIP3    H128710   1.751   6.549   4.966
 9582TIP3    H228711   1.610   6.494   4.953
 9583TIP3   OH228712   4.071   6.310   2.954
 9583TIP3    H128713   4.142   6.295   2.892
 9583TIP3    H228714   4.083   6.400   2.983
 9584TIP3   OH228715   1.950   0.073   5.404
 9584TIP3    H128716   2.024   0.104   5.457
 9584TIP3    H228717   1.984  -0.003   5.357
 9585TIP3   OH228718   1.516   6.349   2.857
 9585TIP3    H128719   1.498   6.433   2.814
 9585TIP3    H228720   1.430   6.310   2.870
 9586TIP3   OH228721   6.035   2.322   5.148
 9586TIP3    H128722   6.097   2.267   5.195
 9586TIP3    H228723   5.961   2.331   5.209
 9587TIP3   OH228724   4.449   2.577   0.471
 9587TIP3    H128725   4.425   2.666   0.445
 9587TIP3    H228726   4.446   2.526   0.391
 9588TIP3   OH228727   6.195   6.155   4.480
 9588TIP3    H128728   6.185   6.218   4.408
 9588TIP3    H228729   6.229   6.076   4.439
 9589TIP3   OH228730   2.163   2.110   3.232
 9589TIP3    H128731   2.135   2.172   3.300
 9589TIP3    H228732   2.205   2.164   3.165
 9590TIP3   OH228733   4.759   5.753   3.871
 9590TIP3    H128734   4.850   5.730   3.889
 9590TIP3    H228735   4.745   5.835   3.919
 9591TIP3   OH228736   0.708   5.335   1.692
 9591TIP3    H128737   0.663   5.275   1.751
 9591TIP3    H228738   0.750   5.398   1.751
 9592TIP3   OH228739   4.170   1.673   2.822
 9592TIP3    H128740   4.246   1.713   2.864
 9592TIP3    H228741   4.183   1.579   2.834
 9593TIP3   OH228742   4.191   0.024   2.015
 9593TIP3    H128743   4.279   0.006   2.048
 9593TIP3    H228744   4.190  -0.015   1.927
 9594TIP3   OH228745   0.704   2.464   5.631
 9594TIP3    H128746   0.768   2.486   5.699
 9594TIP3    H228747   0.755   2.418   5.565
 9595TIP3   OH228748   3.917   3.673   1.976
 9595TIP3    H128749   3.867   3.734   2.029
 9595TIP3    H228750   3.970   3.730   1.918
 9596TIP3   OH228751   6.056   5.270   0.967
 9596TIP3    H128752   6.001   5.216   0.910
 9596TIP3    H228753   6.029   5.360   0.949
 9597TIP3   OH228754   4.711   6.620   4.327
 9597TIP3    H128755   4.703   6.587   4.416
 9597TIP3    H228756   4.674   6.708   4.331
 9598TIP3   OH228757   5.759   0.500   2.947
 9598TIP3    H128758   5.750   0.538   2.860
 9598TIP3    H228759   5.684   0.533   2.996
 9599TIP3   OH228760   6.998   3.167   4.485
 9599TIP3    H128761   7.058   3.164   4.560
 9599TIP3    H228762   6.914   3.195   4.523
 9600TIP3   OH228763   7.129   6.790   1.834
 9600TIP3    H128764   7.097   6.870   1.875
 9600TIP3    H228765   7.069   6.722   1.866
 9601TIP3   OH228766   5.767   4.467   3.155
 9601TIP3    H128767   5.839   4.500   3.209
 9601TIP3    H228768   5.703   4.538   3.154
 9602TIP3   OH228769   5.931   5.092   1.608
 9602TIP3    H128770   5.861   5.096   1.674
 9602TIP3    H228771   6.012   5.090   1.659
 9603TIP3   OH228772   2.235   0.176   4.555
 9603TIP3    H128773   2.242   0.175   4.650
 9603TIP3    H228774   2.144   0.153   4.537
 9604TIP3   OH228775   0.286   1.504   3.534
 9604TIP3    H128776   0.248   1.589   3.556
 9604TIP3    H228777   0.373   1.524   3.499
 9605TIP3   OH228778   1.858   6.224   1.788
 9605TIP3    H128779   1.817   6.311   1.795
 9605TIP3    H228780   1.925   6.224   1.856
 9606TIP3   OH228781   5.816   6.598   3.947
 9606TIP3    H128782   5.761   6.672   3.973
 9606TIP3    H228783   5.765   6.552   3.881
 9607TIP3   OH228784   3.177   6.628   2.350
 9607TIP3    H128785   3.267   6.650   2.373
 9607TIP3    H228786   3.185   6.549   2.296
 9608TIP3   OH228787   1.816   4.662   3.096
 9608TIP3    H128788   1.851   4.594   3.154
 9608TIP3    H228789   1.731   4.684   3.133
 9609TIP3   OH228790   5.523   1.175   0.394
 9609TIP3    H128791   5.515   1.270   0.385
 9609TIP3    H228792   5.437   1.141   0.371
 9610TIP3   OH228793   2.049   5.236   0.414
 9610TIP3    H128794   2.073   5.285   0.335
 9610TIP3    H228795   2.131   5.230   0.464
 9611TIP3   OH228796   6.600   5.594   5.736
 9611TIP3    H128797   6.537   5.648   5.688
 9611TIP3    H228798   6.670   5.577   5.674
 9612TIP3   OH228799   2.836   4.172   5.013
 9612TIP3    H128800   2.916   4.219   5.033
 9612TIP3    H228801   2.766   4.223   5.055
 9613TIP3   OH228802   6.874   0.925   1.701
 9613TIP3    H128803   6.929   0.893   1.629
 9613TIP3    H228804   6.884   1.020   1.698
 9614TIP3   OH228805   5.106   4.245   1.098
 9614TIP3    H128806   5.086   4.205   1.182
 9614TIP3    H228807   5.031   4.223   1.042
 9615TIP3   OH228808   7.080   4.343   2.474
 9615TIP3    H128809   7.162   4.380   2.438
 9615TIP3    H228810   7.070   4.386   2.559
 9616TIP3   OH228811   2.678   2.809   3.008
 9616TIP3    H128812   2.765   2.849   3.010
 9616TIP3    H228813   2.683   2.745   2.937
 9617TIP3   OH228814   7.050   6.412   2.533
 9617TIP3    H128815   7.016   6.414   2.444
 9617TIP3    H228816   7.134   6.458   2.528
 9618TIP3   OH228817   0.328   5.478   4.818
 9618TIP3    H128818   0.384   5.554   4.804
 9618TIP3    H228819   0.288   5.461   4.732
 9619TIP3   OH228820   0.541   4.293   3.952
 9619TIP3    H128821   0.507   4.377   3.983
 9619TIP3    H228822   0.629   4.313   3.921
 9620TIP3   OH228823   0.875   2.474   4.858
 9620TIP3    H128824   0.916   2.390   4.838
 9620TIP3    H228825   0.922   2.538   4.805
 9621TIP3   OH228826   4.845   4.628   4.738
 9621TIP3    H128827   4.903   4.698   4.767
 9621TIP3    H228828   4.863   4.620   4.644
 9622TIP3   OH228829   0.382   1.725   4.245
 9622TIP3    H128830   0.416   1.770   4.168
 9622TIP3    H228831   0.446   1.745   4.314
 9623TIP3   OH228832   5.255   2.856   2.595
 9623TIP3    H128833   5.335   2.893   2.632
 9623TIP3    H228834   5.283   2.778   2.548
 9624TIP3   OH228835   6.291   4.893   1.195
 9624TIP3    H128836   6.372   4.939   1.172
 9624TIP3    H228837   6.221   4.953   1.168
 9625TIP3   OH228838   4.656   4.849   0.674
 9625TIP3    H128839   4.618   4.875   0.758
 9625TIP3    H228840   4.656   4.929   0.622
 9626TIP3   OH228841   6.066   3.869   4.128
 9626TIP3    H128842   6.144   3.826   4.164
 9626TIP3    H228843   6.023   3.801   4.076
 9627TIP3   OH228844   0.254   6.704   3.830
 9627TIP3    H128845   0.218   6.779   3.877
 9627TIP3    H228846   0.191   6.634   3.845
 9628TIP3   OH228847   4.030   0.228   0.861
 9628TIP3    H128848   3.974   0.196   0.790
 9628TIP3    H228849   4.085   0.154   0.883
 9629TIP3   OH228850   0.869   1.740   1.808
 9629TIP3    H128851   0.792   1.771   1.855
 9629TIP3    H228852   0.852   1.762   1.717
 9630TIP3   OH228853   2.661   4.746   2.807
 9630TIP3    H128854   2.583   4.803   2.811
 9630TIP3    H228855   2.690   4.739   2.897
 9631TIP3   OH228856   0.036   3.258   5.501
 9631TIP3    H128857  -0.001   3.177   5.465
 9631TIP3    H228858   0.023   3.249   5.595
 9632TIP3   OH228859   3.632   5.847   0.770
 9632TIP3    H128860   3.694   5.816   0.704
 9632TIP3    H228861   3.687   5.872   0.844
 9633TIP3   OH228862   3.798   2.621   0.225
 9633TIP3    H128863   3.891   2.645   0.233
 9633TIP3    H228864   3.755   2.702   0.199
 9634TIP3   OH228865   4.803   3.763   3.151
 9634TIP3    H128866   4.845   3.847   3.169
 9634TIP3    H228867   4.746   3.749   3.226
 9635TIP3   OH228868   4.958   2.105   3.192
 9635TIP3    H128869   5.037   2.151   3.220
 9635TIP3    H228870   4.990   2.035   3.136
 9636TIP3   OH228871   4.391   4.897   4.312
 9636TIP3    H128872   4.434   4.821   4.353
 9636TIP3    H228873   4.462   4.940   4.264
 9637TIP3   OH228874   3.199   3.069   5.634
 9637TIP3    H128875   3.130   3.098   5.694
 9637TIP3    H228876   3.242   3.150   5.606
 9638TIP3   OH228877   0.358   6.271   1.948
 9638TIP3    H128878   0.388   6.196   1.999
 9638TIP3    H228879   0.262   6.263   1.947
 9639TIP3   OH228880   0.508   4.453   3.245
 9639TIP3    H128881   0.503   4.489   3.334
 9639TIP3    H228882   0.466   4.519   3.190
 9640TIP3   OH228883   2.309   4.323   0.173
 9640TIP3    H128884   2.264   4.326   0.257
 9640TIP3    H228885   2.349   4.236   0.170
 9641TIP3   OH228886   6.591   0.809   2.601
 9641TIP3    H128887   6.549   0.740   2.652
 9641TIP3    H228888   6.561   0.891   2.641
 9642TIP3   OH228889   5.274   5.715   5.803
 9642TIP3    H128890   5.185   5.680   5.802
 9642TIP3    H228891   5.263   5.810   5.805
 9643TIP3   OH228892   0.200   6.136   4.549
 9643TIP3    H128893   0.249   6.055   4.564
 9643TIP3    H228894   0.131   6.111   4.488
 9644TIP3   OH228895   4.133   4.238   5.434
 9644TIP3    H128896   4.146   4.156   5.387
 9644TIP3    H228897   4.118   4.212   5.525
 9645TIP3   OH228898   2.107   3.154   1.212
 9645TIP3    H128899   2.179   3.186   1.158
 9645TIP3    H228900   2.051   3.106   1.151
 9646TIP3   OH228901   3.853   5.180   3.054
 9646TIP3    H128902   3.765   5.152   3.031
 9646TIP3    H228903   3.862   5.158   3.147
 9647TIP3   OH228904   1.688   3.538   4.025
 9647TIP3    H128905   1.648   3.578   3.948
 9647TIP3    H228906   1.671   3.444   4.014
 9648TIP3   OH228907   6.343   3.453   2.647
 9648TIP3    H128908   6.309   3.513   2.581
 9648TIP3    H228909   6.270   3.392   2.663
 9649TIP3   OH228910   5.153   3.238   2.551
 9649TIP3    H128911   5.189   3.305   2.493
 9649TIP3    H228912   5.147   3.160   2.496
 9650TIP3   OH228913   1.411   5.534   1.698
 9650TIP3    H128914   1.484   5.596   1.693
 9650TIP3    H228915   1.367   5.557   1.780
 9651TIP3   OH228916   4.176   6.538   1.470
 9651TIP3    H128917   4.132   6.564   1.551
 9651TIP3    H228918   4.121   6.574   1.400
 9652TIP3   OH228919   3.651   1.082   0.524
 9652TIP3    H128920   3.668   0.994   0.557
 9652TIP3    H228921   3.565   1.105   0.559
 9653TIP3   OH228922   5.802   2.289   5.331
 9653TIP3    H128923   5.731   2.229   5.307
 9653TIP3    H228924   5.855   2.240   5.394
 9654TIP3   OH228925   1.659   0.548   1.933
 9654TIP3    H128926   1.673   0.626   1.987
 9654TIP3    H228927   1.566   0.552   1.909
 9655TIP3   OH228928   3.367   1.154   4.007
 9655TIP3    H128929   3.459   1.173   4.027
 9655TIP3    H228930   3.368   1.062   3.981
 9656TIP3   OH228931   0.780   0.939   2.657
 9656TIP3    H128932   0.858   0.973   2.612
 9656TIP3    H228933   0.728   0.900   2.587
 9657TIP3   OH228934   2.655   4.731   2.457
 9657TIP3    H128935   2.694   4.645   2.443
 9657TIP3    H228936   2.729   4.788   2.479
 9658TIP3   OH228937   1.900   0.250   3.736
 9658TIP3    H128938   1.879   0.340   3.712
 9658TIP3    H228939   1.995   0.243   3.727
 9659TIP3   OH228940   2.108   5.474   3.758
 9659TIP3    H128941   2.199   5.451   3.737
 9659TIP3    H228942   2.094   5.437   3.845
 9660TIP3   OH228943   5.349   2.910   0.865
 9660TIP3    H128944   5.280   2.974   0.883
 9660TIP3    H228945   5.430   2.959   0.876
 9661TIP3   OH228946   6.517   0.957   3.046
 9661TIP3    H128947   6.554   0.873   3.019
 9661TIP3    H228948   6.495   0.945   3.138
 9662TIP3   OH228949   4.355   3.132   5.346
 9662TIP3    H128950   4.274   3.183   5.345
 9662TIP3    H228951   4.425   3.197   5.343
 9663TIP3   OH228952   6.764   6.590   0.051
 9663TIP3    H128953   6.828   6.598   0.123
 9663TIP3    H228954   6.815   6.604  -0.028
 9664TIP3   OH228955   2.953   0.096   5.219
 9664TIP3    H128956   2.941   0.003   5.242
 9664TIP3    H228957   2.873   0.138   5.251
 9665TIP3   OH228958   2.406   3.686   0.848
 9665TIP3    H128959   2.386   3.671   0.941
 9665TIP3    H228960   2.342   3.633   0.801
 9666TIP3   OH228961   5.486   6.172   4.370
 9666TIP3    H128962   5.524   6.224   4.442
 9666TIP3    H228963   5.521   6.212   4.291
 9667TIP3   OH228964   5.249   5.238   3.064
 9667TIP3    H128965   5.203   5.225   2.981
 9667TIP3    H228966   5.341   5.247   3.039
 9668TIP3   OH228967   3.186   0.571   0.756
 9668TIP3    H128968   3.212   0.625   0.831
 9668TIP3    H228969   3.156   0.489   0.795
 9669TIP3   OH228970   1.297   5.495   4.967
 9669TIP3    H128971   1.322   5.434   4.897
 9669TIP3    H228972   1.251   5.441   5.031
 9670TIP3   OH228973   2.074   6.279   4.486
 9670TIP3    H128974   2.041   6.297   4.574
 9670TIP3    H228975   2.049   6.356   4.435
 9671TIP3   OH228976   1.705   0.198   5.118
 9671TIP3    H128977   1.695   0.113   5.161
 9671TIP3    H228978   1.791   0.194   5.077
 9672TIP3   OH228979   0.521   5.811   0.104
 9672TIP3    H128980   0.454   5.847   0.046
 9672TIP3    H228981   0.571   5.888   0.133
 9673TIP3   OH228982   1.330   2.714   0.522
 9673TIP3    H128983   1.335   2.806   0.497
 9673TIP3    H228984   1.266   2.711   0.593
 9674TIP3   OH228985   5.186   4.084   1.557
 9674TIP3    H128986   5.140   4.114   1.478
 9674TIP3    H228987   5.257   4.147   1.568
 9675TIP3   OH228988   3.495   6.271   2.503
 9675TIP3    H128989   3.450   6.344   2.460
 9675TIP3    H228990   3.564   6.246   2.442
 9676TIP3   OH228991   6.080   0.135   5.428
 9676TIP3    H128992   6.025   0.132   5.506
 9676TIP3    H228993   6.125   0.220   5.434
 9677TIP3   OH228994   4.088   5.596   0.538
 9677TIP3    H128995   4.039   5.570   0.460
 9677TIP3    H228996   4.094   5.517   0.590
 9678TIP3   OH228997   5.160   3.497   1.609
 9678TIP3    H128998   5.091   3.440   1.577
 9678TIP3    H228999   5.165   3.480   1.703
 9679TIP3   OH229000   2.445   0.657   1.153
 9679TIP3    H129001   2.485   0.733   1.196
 9679TIP3    H229002   2.470   0.666   1.061
 9680TIP3   OH229003   1.010   3.646   4.606
 9680TIP3    H129004   1.057   3.705   4.665
 9680TIP3    H229005   1.008   3.562   4.653
 9681TIP3   OH229006   1.598   2.407   2.174
 9681TIP3    H129007   1.589   2.451   2.258
 9681TIP3    H229008   1.515   2.360   2.162
 9682TIP3   OH229009   4.726   4.796   5.573
 9682TIP3    H129010   4.776   4.786   5.492
 9682TIP3    H229011   4.701   4.888   5.575
 9683TIP3   OH229012   5.738   2.487   4.670
 9683TIP3    H129013   5.728   2.406   4.619
 9683TIP3    H229014   5.720   2.461   4.760
 9684TIP3   OH229015   0.479   4.076   1.369
 9684TIP3    H129016   0.545   4.011   1.348
 9684TIP3    H229017   0.422   4.077   1.292
 9685TIP3   OH229018   4.519   1.657   5.826
 9685TIP3    H129019   4.508   1.736   5.879
 9685TIP3    H229020   4.457   1.595   5.863
 9686TIP3   OH229021   5.957   5.121   5.033
 9686TIP3    H129022   6.007   5.086   5.108
 9686TIP3    H229023   6.005   5.200   5.007
 9687TIP3   OH229024   1.889   2.738   4.113
 9687TIP3    H129025   1.818   2.802   4.117
 9687TIP3    H229026   1.888   2.708   4.022
 9688TIP3   OH229027   6.171   0.456   2.738
 9688TIP3    H129028   6.266   0.441   2.747
 9688TIP3    H229029   6.138   0.453   2.828
 9689TIP3   OH229030   4.725   5.065   1.994
 9689TIP3    H129031   4.745   4.985   1.946
 9689TIP3    H229032   4.653   5.041   2.051
 9690TIP3   OH229033   6.766   1.177   0.967
 9690TIP3    H129034   6.833   1.150   1.030
 9690TIP3    H229035   6.744   1.267   0.993
 9691TIP3   OH229036   6.173   0.939   5.080
 9691TIP3    H129037   6.084   0.947   5.046
 9691TIP3    H229038   6.229   0.944   5.003
 9692TIP3   OH229039   3.900   0.607   4.290
 9692TIP3    H129040   3.897   0.597   4.385
 9692TIP3    H229041   3.859   0.692   4.274
 9693TIP3   OH229042   5.541   1.238   3.192
 9693TIP3    H129043   5.564   1.233   3.285
 9693TIP3    H229044   5.447   1.221   3.189
 9694TIP3   OH229045   3.158   3.361   3.762
 9694TIP3    H129046   3.158   3.456   3.776
 9694TIP3    H229047   3.184   3.351   3.670
 9695TIP3   OH229048   3.819   1.264   5.777
 9695TIP3    H129049   3.869   1.244   5.856
 9695TIP3    H229050   3.874   1.325   5.729
 9696TIP3   OH229051   4.634   4.783   5.182
 9696TIP3    H129052   4.722   4.754   5.204
 9696TIP3    H229053   4.605   4.833   5.257
 9697TIP3   OH229054   2.357   6.371   1.072
 9697TIP3    H129055   2.321   6.317   1.001
 9697TIP3    H229056   2.443   6.398   1.040
 9698TIP3   OH229057   3.731   0.043   4.911
 9698TIP3    H129058   3.763   0.100   4.981
 9698TIP3    H229059   3.711   0.104   4.840
 9699TIP3   OH229060   2.666   3.017   2.652
 9699TIP3    H129061   2.712   2.988   2.731
 9699TIP3    H229062   2.671   3.112   2.654
 9700TIP3   OH229063   0.940   2.927   4.258
 9700TIP3    H129064   0.960   3.020   4.270
 9700TIP3    H229065   0.965   2.885   4.340
 9701TIP3   OH229066   4.741   6.809   4.763
 9701TIP3    H129067   4.704   6.749   4.828
 9701TIP3    H229068   4.666   6.839   4.713
 9702TIP3   OH229069   4.368   0.477   5.163
 9702TIP3    H129070   4.433   0.503   5.228
 9702TIP3    H229071   4.418   0.428   5.097
 9703TIP3   OH229072   1.534   1.721   5.429
 9703TIP3    H129073   1.471   1.708   5.358
 9703TIP3    H229074   1.602   1.777   5.391
 9704TIP3   OH229075   4.123   4.706   4.699
 9704TIP3    H129076   4.126   4.791   4.653
 9704TIP3    H229077   4.158   4.725   4.786
 9705TIP3   OH229078   1.647   3.115   0.961
 9705TIP3    H129079   1.633   3.165   0.881
 9705TIP3    H229080   1.618   3.026   0.939
 9706TIP3   OH229081   6.554   1.933   5.664
 9706TIP3    H129082   6.557   1.858   5.605
 9706TIP3    H229083   6.477   1.916   5.719
 9707TIP3   OH229084   3.633   1.596   2.899
 9707TIP3    H129085   3.687   1.634   2.968
 9707TIP3    H229086   3.568   1.543   2.945
 9708TIP3   OH229087   4.393   0.266   3.726
 9708TIP3    H129088   4.452   0.286   3.799
 9708TIP3    H229089   4.434   0.192   3.682
 9709TIP3   OH229090   1.446   6.362   4.891
 9709TIP3    H129091   1.384   6.435   4.894
 9709TIP3    H229092   1.410   6.298   4.953
 9710TIP3   OH229093   0.484   5.714   2.459
 9710TIP3    H129094   0.507   5.623   2.476
 9710TIP3    H229095   0.485   5.755   2.545
 9711TIP3   OH229096   0.180   2.763   0.742
 9711TIP3    H129097   0.148   2.752   0.653
 9711TIP3    H229098   0.120   2.711   0.796
 9712TIP3   OH229099   0.559   1.707   5.674
 9712TIP3    H129100   0.580   1.793   5.638
 9712TIP3    H229101   0.480   1.721   5.726
 9713TIP3   OH229102   0.708   0.366   1.712
 9713TIP3    H129103   0.654   0.288   1.727
 9713TIP3    H229104   0.645   0.435   1.690
 9714TIP3   OH229105   6.730   1.108   4.418
 9714TIP3    H129106   6.669   1.075   4.483
 9714TIP3    H229107   6.676   1.160   4.358
 9715TIP3   OH229108   7.180   2.561   1.382
 9715TIP3    H129109   7.235   2.634   1.410
 9715TIP3    H229110   7.126   2.597   1.311
 9716TIP3   OH229111   1.251   3.191   4.683
 9716TIP3    H129112   1.295   3.106   4.686
 9716TIP3    H229113   1.164   3.171   4.648
 9717TIP3   OH229114   5.125   5.594   2.360
 9717TIP3    H129115   5.071   5.607   2.283
 9717TIP3    H229116   5.065   5.606   2.434
 9718TIP3   OH229117   2.423   3.131   3.661
 9718TIP3    H129118   2.448   3.077   3.736
 9718TIP3    H229119   2.445   3.079   3.585
 9719TIP3   OH229120   4.061   4.820   0.087
 9719TIP3    H129121   4.092   4.730   0.099
 9719TIP3    H229122   4.089   4.866   0.167
 9720TIP3   OH229123   5.985   6.504   4.337
 9720TIP3    H129124   5.978   6.431   4.275
 9720TIP3    H229125   5.895   6.518   4.367
 9721TIP3   OH229126   3.540   4.403   1.273
 9721TIP3    H129127   3.529   4.418   1.179
 9721TIP3    H229128   3.576   4.315   1.280
 9722TIP3   OH229129   5.476   4.662   4.904
 9722TIP3    H129130   5.489   4.664   4.998
 9722TIP3    H229131   5.412   4.731   4.886
 9723TIP3   OH229132   1.540   2.694   4.581
 9723TIP3    H129133   1.566   2.651   4.663
 9723TIP3    H229134   1.495   2.773   4.609
 9724TIP3   OH229135   0.217   2.508   3.772
 9724TIP3    H129136   0.217   2.590   3.722
 9724TIP3    H229137   0.288   2.457   3.734
 9725TIP3   OH229138   5.041   6.004   2.105
 9725TIP3    H129139   5.084   5.997   2.191
 9725TIP3    H229140   4.951   5.976   2.121
 9726TIP3   OH229141   5.284   0.844   1.617
 9726TIP3    H129142   5.217   0.846   1.548
 9726TIP3    H229143   5.275   0.757   1.656
 9727TIP3   OH229144   3.066   2.759   2.287
 9727TIP3    H129145   3.144   2.764   2.341
 9727TIP3    H229146   3.096   2.723   2.203
 9728TIP3   OH229147   2.226   0.676   0.742
 9728TIP3    H129148   2.230   0.663   0.837
 9728TIP3    H229149   2.273   0.601   0.706
 9729TIP3   OH229150   4.056   4.135   4.267
 9729TIP3    H129151   4.086   4.046   4.249
 9729TIP3    H229152   4.041   4.138   4.361
 9730TIP3   OH229153   3.853   5.024   2.621
 9730TIP3    H129154   3.913   5.082   2.668
 9730TIP3    H229155   3.850   5.059   2.532
 9731TIP3   OH229156   0.938   0.908   3.536
 9731TIP3    H129157   1.024   0.950   3.541
 9731TIP3    H229158   0.884   0.957   3.597
 9732TIP3   OH229159   4.179   0.280   3.275
 9732TIP3    H129160   4.219   0.363   3.247
 9732TIP3    H229161   4.181   0.226   3.196
 9733TIP3   OH229162   0.100   0.682   2.896
 9733TIP3    H129163   0.139   0.765   2.921
 9733TIP3    H229164   0.051   0.654   2.974
 9734TIP3   OH229165   6.576   2.318   4.250
 9734TIP3    H129166   6.652   2.267   4.277
 9734TIP3    H229167   6.506   2.289   4.308
 9735TIP3   OH229168   7.165   5.506   1.406
 9735TIP3    H129169   7.078   5.520   1.367
 9735TIP3    H229170   7.200   5.430   1.359
 9736TIP3   OH229171   4.926   2.485   4.050
 9736TIP3    H129172   4.909   2.435   4.130
 9736TIP3    H229173   4.876   2.566   4.061
 9737TIP3   OH229174   5.919   2.711   4.803
 9737TIP3    H129175   5.858   2.658   4.752
 9737TIP3    H229176   5.893   2.696   4.894
 9738TIP3   OH229177   2.758   5.173   2.042
 9738TIP3    H129178   2.770   5.190   2.135
 9738TIP3    H229179   2.847   5.173   2.006
 9739TIP3   OH229180   0.140   4.537   0.987
 9739TIP3    H129181   0.234   4.546   0.999
 9739TIP3    H229182   0.129   4.463   0.927
 9740TIP3   OH229183   5.136   5.492   4.711
 9740TIP3    H129184   5.063   5.528   4.761
 9740TIP3    H229185   5.112   5.400   4.696
 9741TIP3   OH229186   5.255   3.097   3.655
 9741TIP3    H129187   5.172   3.144   3.662
 9741TIP3    H229188   5.296   3.131   3.576
 9742TIP3   OH229189   2.513   2.994   2.065
 9742TIP3    H129190   2.514   2.924   1.999
 9742TIP3    H229191   2.595   3.041   2.049
 9743TIP3   OH229192   3.010   2.518   2.418
 9743TIP3    H129193   2.948   2.476   2.358
 9743TIP3    H229194   3.015   2.609   2.388
 9744TIP3   OH229195   5.373   1.244   1.429
 9744TIP3    H129196   5.383   1.243   1.524
 9744TIP3    H229197   5.442   1.186   1.396
 9745TIP3   OH229198   5.309   0.086   5.818
 9745TIP3    H129199   5.387   0.030   5.815
 9745TIP3    H229200   5.288   0.093   5.911
 9746TIP3   OH229201   6.763   4.799   2.079
 9746TIP3    H129202   6.857   4.814   2.075
 9746TIP3    H229203   6.728   4.844   2.002
 9747TIP3   OH229204   6.390   3.065   2.595
 9747TIP3    H129205   6.468   3.116   2.619
 9747TIP3    H229206   6.317   3.122   2.617
 9748TIP3   OH229207   1.174   2.241   0.347
 9748TIP3    H129208   1.166   2.194   0.430
 9748TIP3    H229209   1.171   2.333   0.370
 9749TIP3   OH229210   1.711   6.817   1.042
 9749TIP3    H129211   1.745   6.756   0.977
 9749TIP3    H229212   1.700   6.764   1.121
   7.21300   6.80049   5.88938   0.00000   0.00000  -2.40434   0.00000  -2.40434  -3.40024
