Title t= 307.00000 step= 153500
19942
    1ASP      N    1   1.666   2.680   2.906
    1ASP    HT1    2   1.676   2.770   2.856
    1ASP    HT2    3   1.701   2.605   2.843
    1ASP    HT3    4   1.723   2.684   2.993
    1ASP     CA    5   1.514   2.660   2.932
    1ASP     HA    6   1.490   2.725   3.015
    1ASP     CB    7   1.437   2.707   2.797
    1ASP    HB1    8   1.327   2.696   2.805
    1ASP    HB2    9   1.478   2.643   2.715
    1ASP     CG   10   1.466   2.848   2.748
    1ASP    OD1   11   1.405   2.892   2.652
    1ASP    OD2   12   1.560   2.915   2.805
    1ASP      C   13   1.460   2.517   2.969
    1ASP      O   14   1.515   2.407   2.954
    2ALA      N   15   1.337   2.513   3.031
    2ALA     HN   16   1.285   2.596   3.048
    2ALA     CA   17   1.266   2.395   3.067
    2ALA     HA   18   1.332   2.338   3.130
    2ALA     CB   19   1.137   2.422   3.140
    2ALA    HB1   20   1.160   2.472   3.236
    2ALA    HB2   21   1.083   2.329   3.166
    2ALA    HB3   22   1.077   2.492   3.077
    2ALA      C   23   1.235   2.300   2.946
    2ALA      O   24   1.198   2.345   2.836
    3ASP      N   25   1.242   2.171   2.976
    3ASP     HN   26   1.262   2.141   3.068
    3ASP     CA   27   1.264   2.075   2.870
    3ASP     HA   28   1.350   2.100   2.809
    3ASP     CB   29   1.302   1.940   2.937
    3ASP    HB1   30   1.299   1.864   2.856
    3ASP    HB2   31   1.235   1.919   3.023
    3ASP     CG   32   1.443   1.932   2.982
    3ASP    OD1   33   1.518   2.031   2.968
    3ASP    OD2   34   1.485   1.817   3.005
    3ASP      C   35   1.141   2.058   2.784
    3ASP      O   36   1.033   2.105   2.819
    4GLY      N   37   1.150   1.990   2.669
    4GLY     HN   38   1.234   1.955   2.629
    4GLY     CA   39   1.033   1.944   2.592
    4GLY    HA1   40   1.071   1.895   2.504
    4GLY    HA2   41   0.978   2.034   2.567
    4GLY      C   42   0.940   1.856   2.667
    4GLY      O   43   0.961   1.820   2.781
    5PRO      N   44   0.834   1.808   2.600
    5PRO     CD   45   0.803   1.845   2.461
    5PRO    HD1   46   0.881   1.828   2.384
    5PRO    HD2   47   0.772   1.952   2.463
    5PRO     CA   48   0.737   1.714   2.665
    5PRO     HA   49   0.712   1.739   2.767
    5PRO     CB   50   0.620   1.738   2.566
    5PRO    HB1   51   0.573   1.832   2.603
    5PRO    HB2   52   0.544   1.658   2.550
    5PRO     CG   53   0.672   1.773   2.422
    5PRO    HG1   54   0.685   1.687   2.353
    5PRO    HG2   55   0.609   1.852   2.376
    5PRO      C   56   0.784   1.580   2.659
    5PRO      O   57   0.732   1.501   2.582
    6GLY      N   58   0.882   1.542   2.755
    6GLY     HN   59   0.933   1.617   2.795
    6GLY     CA   60   0.936   1.405   2.783
    6GLY    HA1   61   0.987   1.408   2.879
    6GLY    HA2   62   1.010   1.393   2.705
    6GLY      C   63   0.839   1.292   2.788
    6GLY      O   64   0.727   1.304   2.836
    7ASP      N   65   0.891   1.174   2.744
    7ASP     HN   66   0.983   1.183   2.706
    7ASP     CA   67   0.828   1.039   2.751
    7ASP     HA   68   0.727   1.046   2.788
    7ASP     CB   69   0.801   0.991   2.602
    7ASP    HB1   70   0.900   0.992   2.551
    7ASP    HB2   71   0.730   1.059   2.550
    7ASP     CG   72   0.737   0.850   2.594
    7ASP    OD1   73   0.735   0.787   2.484
    7ASP    OD2   74   0.677   0.808   2.690
    7ASP      C   75   0.920   0.935   2.821
    7ASP      O   76   1.013   0.877   2.758
    8PRO      N   77   0.894   0.900   2.942
    8PRO     CD   78   0.817   0.985   3.032
    8PRO    HD1   79   0.709   0.964   3.016
    8PRO    HD2   80   0.830   1.094   3.013
    8PRO     CA   81   0.985   0.817   3.018
    8PRO     HA   82   1.080   0.869   3.009
    8PRO     CB   83   0.926   0.813   3.158
    8PRO    HB1   84   1.008   0.792   3.229
    8PRO    HB2   85   0.842   0.740   3.159
    8PRO     CG   86   0.851   0.946   3.170
    8PRO    HG1   87   0.763   0.926   3.234
    8PRO    HG2   88   0.920   1.019   3.217
    8PRO      C   89   1.006   0.680   2.961
    8PRO      O   90   1.097   0.610   3.007
    9ASP      N   91   0.908   0.635   2.876
    9ASP     HN   92   0.834   0.699   2.856
    9ASP     CA   93   0.887   0.494   2.845
    9ASP     HA   94   0.944   0.428   2.909
    9ASP     CB   95   0.726   0.472   2.856
    9ASP    HB1   96   0.710   0.363   2.844
    9ASP    HB2   97   0.663   0.530   2.784
    9ASP     CG   98   0.677   0.494   3.001
    9ASP    OD1   99   0.567   0.552   3.011
    9ASP    OD2  100   0.743   0.437   3.097
    9ASP      C  101   0.928   0.463   2.698
    9ASP      O  102   0.917   0.352   2.647
   10ALA      N  103   0.984   0.568   2.628
   10ALA     HN  104   0.947   0.658   2.650
   10ALA     CA  105   1.059   0.559   2.503
   10ALA     HA  106   0.998   0.482   2.456
   10ALA     CB  107   1.068   0.697   2.429
   10ALA    HB1  108   1.113   0.758   2.510
   10ALA    HB2  109   0.962   0.730   2.415
   10ALA    HB3  110   1.129   0.704   2.336
   10ALA      C  111   1.190   0.488   2.509
   10ALA      O  112   1.269   0.484   2.600
   11GLY      N  113   1.225   0.430   2.395
   11GLY     HN  114   1.162   0.427   2.318
   11GLY     CA  115   1.338   0.348   2.383
   11GLY    HA1  116   1.338   0.258   2.442
   11GLY    HA2  117   1.428   0.405   2.401
   11GLY      C  118   1.334   0.313   2.240
   11GLY    OT1  119   1.286   0.205   2.202
   11GLY    OT2  120   1.384   0.399   2.154
   12LIT    LIT  121   4.789   0.126   0.927
   13LIT    LIT  122   1.072   3.451   2.460
   14LIT    LIT  123   4.902   2.608   2.209
   15LIT    LIT  124   6.198   1.988   2.354
   16LIT    LIT  125   5.418   5.563   4.450
   17LIT    LIT  126   3.495   4.478   5.002
   18LIT    LIT  127   4.144   4.026   0.265
   19LIT    LIT  128   5.323   5.314   2.352
   20LIT    LIT  129   4.089   1.529   4.185
   21LIT    LIT  130   0.884   5.649   0.962
   22LIT    LIT  131   5.441   3.369   0.635
   23LIT    LIT  132   3.214   3.559   2.334
   24LIT    LIT  133   4.785   3.416   2.783
   25LIT    LIT  134   2.341   0.219   0.177
   26LIT    LIT  135   2.604   0.517   2.665
   27LIT    LIT  136   1.153   1.231   3.166
   28LIT    LIT  137   1.640   1.701   3.723
   29LIT    LIT  138   2.172   3.466   0.238
   30LIT    LIT  139   2.815   3.893   2.686
   31LIT    LIT  140   3.401   2.516   4.590
   32LIT    LIT  141   1.341   0.018   1.863
   33LIT    LIT  142   6.336   1.691   0.229
   34CLA    CLA  143   3.160   3.436   3.574
   35CLA    CLA  144   1.516   2.068   4.447
   36CLA    CLA  145   4.843   2.142   2.411
   37CLA    CLA  146   5.726   4.608   1.444
   38CLA    CLA  147   5.813   5.030   0.412
   39CLA    CLA  148   5.386   5.055   2.976
   40CLA    CLA  149   6.139   4.334   1.829
   41CLA    CLA  150   6.281   3.761   0.401
   42CLA    CLA  151   5.216   2.706   1.144
   43CLA    CLA  152   5.239   0.098   5.137
   44CLA    CLA  153   0.131   0.742   4.695
   45CLA    CLA  154   0.105   5.656   0.218
   46CLA    CLA  155   4.029   4.031   0.472
   47CLA    CLA  156   2.104   0.474   2.528
   48CLA    CLA  157   2.795   4.780   2.091
   49CLA    CLA  158   2.316   2.359   3.836
   50CLA    CLA  159   2.003   1.946   1.724
   51CLA    CLA  160   1.996   5.208   1.886
   52TIP3   OH2  161   1.935   0.946   4.343
   52TIP3    H1  162   1.851   0.966   4.301
   52TIP3    H2  163   1.956   0.858   4.312
   53TIP3   OH2  164   4.521   1.677   2.269
   53TIP3    H1  165   4.486   1.661   2.357
   53TIP3    H2  166   4.582   1.749   2.280
   54TIP3   OH2  167   2.548   0.422   3.315
   54TIP3    H1  168   2.537   0.378   3.231
   54TIP3    H2  169   2.499   0.368   3.377
   55TIP3   OH2  170   4.726   1.681   2.690
   55TIP3    H1  171   4.813   1.668   2.727
   55TIP3    H2  172   4.729   1.768   2.651
   56TIP3   OH2  173   5.330   5.601   0.923
   56TIP3    H1  174   5.275   5.539   0.970
   56TIP3    H2  175   5.362   5.553   0.846
   57TIP3   OH2  176   2.282   3.397   2.720
   57TIP3    H1  177   2.237   3.365   2.642
   57TIP3    H2  178   2.251   3.487   2.730
   58TIP3   OH2  179   1.246   4.430   1.326
   58TIP3    H1  180   1.335   4.463   1.333
   58TIP3    H2  181   1.240   4.396   1.237
   59TIP3   OH2  182   1.347   0.761   4.853
   59TIP3    H1  183   1.352   0.852   4.882
   59TIP3    H2  184   1.278   0.760   4.788
   60TIP3   OH2  185   2.902   5.181   1.339
   60TIP3    H1  186   2.888   5.087   1.327
   60TIP3    H2  187   2.885   5.197   1.431
   61TIP3   OH2  188   2.622   4.796   0.603
   61TIP3    H1  189   2.627   4.856   0.677
   61TIP3    H2  190   2.632   4.709   0.641
   62TIP3   OH2  191   0.561   3.289   3.645
   62TIP3    H1  192   0.641   3.240   3.627
   62TIP3    H2  193   0.497   3.254   3.583
   63TIP3   OH2  194   1.098   3.530   3.267
   63TIP3    H1  195   1.153   3.581   3.207
   63TIP3    H2  196   1.159   3.485   3.324
   64TIP3   OH2  197   0.437   1.937   0.805
   64TIP3    H1  198   0.502   1.967   0.868
   64TIP3    H2  199   0.487   1.925   0.724
   65TIP3   OH2  200   3.871   1.448   3.000
   65TIP3    H1  201   3.946   1.418   3.052
   65TIP3    H2  202   3.872   1.543   3.008
   66TIP3   OH2  203   5.151   3.115   1.735
   66TIP3    H1  204   5.157   3.184   1.802
   66TIP3    H2  205   5.168   3.160   1.653
   67TIP3   OH2  206   2.449   0.046   1.364
   67TIP3    H1  207   2.481  -0.015   1.297
   67TIP3    H2  208   2.412   0.118   1.314
   68TIP3   OH2  209   0.237   5.348   4.399
   68TIP3    H1  210   0.194   5.263   4.384
   68TIP3    H2  211   0.296   5.358   4.324
   69TIP3   OH2  212   0.391   4.481   3.334
   69TIP3    H1  213   0.432   4.567   3.323
   69TIP3    H2  214   0.350   4.463   3.249
   70TIP3   OH2  215   0.657   1.128   1.584
   70TIP3    H1  216   0.658   1.108   1.490
   70TIP3    H2  217   0.748   1.118   1.611
   71TIP3   OH2  218   2.691   1.436   3.403
   71TIP3    H1  219   2.636   1.472   3.333
   71TIP3    H2  220   2.654   1.349   3.420
   72TIP3   OH2  221   4.283   3.562   1.331
   72TIP3    H1  222   4.319   3.646   1.361
   72TIP3    H2  223   4.359   3.516   1.295
   73TIP3   OH2  224   3.213   4.954   1.086
   73TIP3    H1  225   3.286   4.952   1.149
   73TIP3    H2  226   3.189   5.047   1.081
   74TIP3   OH2  227   1.109   5.871   2.906
   74TIP3    H1  228   1.115   5.858   2.811
   74TIP3    H2  229   1.148   5.792   2.943
   75TIP3   OH2  230   0.528   0.595   2.597
   75TIP3    H1  231   0.594   0.664   2.605
   75TIP3    H2  232   0.551   0.549   2.516
   76TIP3   OH2  233   2.480   0.139   3.692
   76TIP3    H1  234   2.460   0.210   3.630
   76TIP3    H2  235   2.567   0.161   3.726
   77TIP3   OH2  236   1.684   3.574   2.432
   77TIP3    H1  237   1.753   3.616   2.380
   77TIP3    H2  238   1.731   3.520   2.495
   78TIP3   OH2  239   4.665   2.103   5.114
   78TIP3    H1  240   4.672   2.053   5.033
   78TIP3    H2  241   4.580   2.147   5.107
   79TIP3   OH2  242   3.346   4.335   2.026
   79TIP3    H1  243   3.266   4.352   1.975
   79TIP3    H2  244   3.415   4.329   1.961
   80TIP3   OH2  245   1.814   3.201   4.419
   80TIP3    H1  246   1.758   3.157   4.483
   80TIP3    H2  247   1.816   3.141   4.344
   81TIP3   OH2  248   5.208   3.891   4.626
   81TIP3    H1  249   5.147   3.828   4.586
   81TIP3    H2  250   5.245   3.939   4.552
   82TIP3   OH2  251   5.449   0.285   0.354
   82TIP3    H1  252   5.532   0.318   0.320
   82TIP3    H2  253   5.416   0.356   0.409
   83TIP3   OH2  254   6.153   4.139   0.072
   83TIP3    H1  255   6.084   4.096   0.122
   83TIP3    H2  256   6.161   4.088  -0.008
   84TIP3   OH2  257   2.100   1.802   4.446
   84TIP3    H1  258   2.010   1.770   4.454
   84TIP3    H2  259   2.105   1.837   4.357
   85TIP3   OH2  260   4.369   0.419   1.627
   85TIP3    H1  261   4.303   0.448   1.564
   85TIP3    H2  262   4.451   0.419   1.578
   86TIP3   OH2  263   5.431   2.682   1.430
   86TIP3    H1  264   5.384   2.753   1.386
   86TIP3    H2  265   5.420   2.700   1.523
   87TIP3   OH2  266   2.881   4.364   2.569
   87TIP3    H1  267   2.926   4.417   2.503
   87TIP3    H2  268   2.947   4.346   2.635
   88TIP3   OH2  269   4.009   1.158   4.621
   88TIP3    H1  270   3.930   1.166   4.568
   88TIP3    H2  271   4.048   1.074   4.594
   89TIP3   OH2  272   0.069   4.031   0.404
   89TIP3    H1  273   0.023   3.947   0.406
   89TIP3    H2  274   0.048   4.072   0.488
   90TIP3   OH2  275   4.685   3.059   0.146
   90TIP3    H1  276   4.660   2.967   0.154
   90TIP3    H2  277   4.780   3.058   0.141
   91TIP3   OH2  278   5.853   4.149   1.112
   91TIP3    H1  279   5.812   4.148   1.199
   91TIP3    H2  280   5.919   4.218   1.117
   92TIP3   OH2  281   2.883   4.075   1.345
   92TIP3    H1  282   2.881   4.102   1.436
   92TIP3    H2  283   2.843   4.148   1.297
   93TIP3   OH2  284   5.876   2.372   0.192
   93TIP3    H1  285   5.838   2.369   0.104
   93TIP3    H2  286   5.885   2.466   0.210
   94TIP3   OH2  287   4.684   4.419   4.491
   94TIP3    H1  288   4.743   4.372   4.432
   94TIP3    H2  289   4.699   4.380   4.577
   95TIP3   OH2  290   4.654   1.310   2.394
   95TIP3    H1  291   4.660   1.279   2.484
   95TIP3    H2  292   4.630   1.232   2.344
   96TIP3   OH2  293   5.206   5.927   1.366
   96TIP3    H1  294   5.133   5.947   1.308
   96TIP3    H2  295   5.200   5.833   1.381
   97TIP3   OH2  296   2.577   1.065   0.722
   97TIP3    H1  297   2.664   1.025   0.729
   97TIP3    H2  298   2.521   1.010   0.777
   98TIP3   OH2  299   3.903   1.218   0.379
   98TIP3    H1  300   3.954   1.280   0.327
   98TIP3    H2  301   3.857   1.272   0.443
   99TIP3   OH2  302   4.734   3.978   1.693
   99TIP3    H1  303   4.737   4.067   1.728
   99TIP3    H2  304   4.794   3.928   1.748
  100TIP3   OH2  305   3.778   2.890   3.764
  100TIP3    H1  306   3.720   2.920   3.694
  100TIP3    H2  307   3.766   2.795   3.766
  101TIP3   OH2  308   4.022   5.512   1.380
  101TIP3    H1  309   4.112   5.516   1.413
  101TIP3    H2  310   3.976   5.459   1.445
  102TIP3   OH2  311   2.202   0.085   0.120
  102TIP3    H1  312   2.129   0.039   0.162
  102TIP3    H2  313   2.233   0.024   0.052
  103TIP3   OH2  314   4.597   0.171   0.997
  103TIP3    H1  315   4.545   0.251   0.992
  103TIP3    H2  316   4.535   0.103   1.024
  104TIP3   OH2  317   3.825   0.151   2.730
  104TIP3    H1  318   3.825   0.140   2.634
  104TIP3    H2  319   3.889   0.086   2.761
  105TIP3   OH2  320   2.726   0.013   1.835
  105TIP3    H1  321   2.794   0.030   1.901
  105TIP3    H2  322   2.646   0.046   1.875
  106TIP3   OH2  323   0.041   2.965   3.586
  106TIP3    H1  324   0.097   2.898   3.625
  106TIP3    H2  325   0.023   2.933   3.497
  107TIP3   OH2  326   4.038   3.904   4.354
  107TIP3    H1  327   4.063   3.990   4.389
  107TIP3    H2  328   4.080   3.841   4.412
  108TIP3   OH2  329   4.243   4.977   4.415
  108TIP3    H1  330   4.236   4.894   4.462
  108TIP3    H2  331   4.314   5.024   4.459
  109TIP3   OH2  332   2.150   2.573   2.516
  109TIP3    H1  333   2.197   2.581   2.432
  109TIP3    H2  334   2.072   2.628   2.504
  110TIP3   OH2  335   0.729   1.412   3.706
  110TIP3    H1  336   0.659   1.349   3.688
  110TIP3    H2  337   0.683   1.493   3.729
  111TIP3   OH2  338   4.905   5.786   4.155
  111TIP3    H1  339   4.839   5.762   4.220
  111TIP3    H2  340   4.894   5.881   4.144
  112TIP3   OH2  341   5.991   4.995   2.113
  112TIP3    H1  342   5.907   4.956   2.090
  112TIP3    H2  343   6.031   4.933   2.174
  113TIP3   OH2  344   1.774   5.027   2.144
  113TIP3    H1  345   1.821   5.054   2.223
  113TIP3    H2  346   1.832   5.051   2.072
  114TIP3   OH2  347   1.523   1.631   1.480
  114TIP3    H1  348   1.474   1.600   1.556
  114TIP3    H2  349   1.489   1.581   1.407
  115TIP3   OH2  350   4.934   4.123   2.355
  115TIP3    H1  351   4.981   4.206   2.352
  115TIP3    H2  352   4.845   4.144   2.328
  116TIP3   OH2  353   5.722   2.653   3.446
  116TIP3    H1  354   5.762   2.571   3.475
  116TIP3    H2  355   5.660   2.675   3.516
  117TIP3   OH2  356   4.645   2.341   4.295
  117TIP3    H1  357   4.641   2.284   4.219
  117TIP3    H2  358   4.715   2.403   4.275
  118TIP3   OH2  359   0.017   0.639   0.919
  118TIP3    H1  360   0.022   0.665   1.011
  118TIP3    H2  361   0.108   0.624   0.893
  119TIP3   OH2  362   4.396   2.945   0.696
  119TIP3    H1  363   4.372   3.009   0.762
  119TIP3    H2  364   4.451   2.881   0.742
  120TIP3   OH2  365   2.577   2.122   0.216
  120TIP3    H1  366   2.536   2.173   0.146
  120TIP3    H2  367   2.577   2.181   0.292
  121TIP3   OH2  368   0.922   0.222   0.782
  121TIP3    H1  369   0.931   0.277   0.703
  121TIP3    H2  370   0.861   0.270   0.837
  122TIP3   OH2  371   0.080   3.129   1.019
  122TIP3    H1  372   0.089   3.211   1.066
  122TIP3    H2  373   0.100   3.151   0.928
  123TIP3   OH2  374   2.095   5.391   4.126
  123TIP3    H1  375   2.025   5.342   4.083
  123TIP3    H2  376   2.145   5.428   4.053
  124TIP3   OH2  377   3.480   3.604   3.888
  124TIP3    H1  378   3.542   3.545   3.846
  124TIP3    H2  379   3.535   3.664   3.939
  125TIP3   OH2  380   1.924   0.829   2.321
  125TIP3    H1  381   1.936   0.743   2.281
  125TIP3    H2  382   1.958   0.819   2.410
  126TIP3   OH2  383   3.714   3.701   4.721
  126TIP3    H1  384   3.733   3.729   4.632
  126TIP3    H2  385   3.648   3.763   4.752
  127TIP3   OH2  386   1.804   3.752   1.589
  127TIP3    H1  387   1.874   3.687   1.579
  127TIP3    H2  388   1.787   3.783   1.500
  128TIP3   OH2  389   0.995   3.384   1.422
  128TIP3    H1  390   1.029   3.474   1.416
  128TIP3    H2  391   0.918   3.384   1.365
  129TIP3   OH2  392   5.553   5.915   0.231
  129TIP3    H1  393   5.569   5.928   0.324
  129TIP3    H2  394   5.520   6.000   0.200
  130TIP3   OH2  395   3.979   5.730   2.022
  130TIP3    H1  396   3.998   5.692   1.936
  130TIP3    H2  397   4.026   5.814   2.022
  131TIP3   OH2  398   4.508   5.177   4.247
  131TIP3    H1  399   4.457   5.123   4.187
  131TIP3    H2  400   4.590   5.128   4.259
  132TIP3   OH2  401  -0.050   1.698   1.214
  132TIP3    H1  402   0.044   1.687   1.230
  132TIP3    H2  403  -0.091   1.672   1.296
  133TIP3   OH2  404   4.370   1.555   1.841
  133TIP3    H1  405   4.380   1.461   1.856
  133TIP3    H2  406   4.432   1.575   1.771
  134TIP3   OH2  407   0.680   5.581   2.872
  134TIP3    H1  408   0.696   5.624   2.956
  134TIP3    H2  409   0.723   5.495   2.881
  135TIP3   OH2  410   3.123   2.701   4.255
  135TIP3    H1  411   3.156   2.791   4.251
  135TIP3    H2  412   3.075   2.689   4.173
  136TIP3   OH2  413   4.126   1.531   4.385
  136TIP3    H1  414   4.127   1.474   4.461
  136TIP3    H2  415   4.162   1.614   4.416
  137TIP3   OH2  416   3.371   1.170   2.669
  137TIP3    H1  417   3.405   1.257   2.645
  137TIP3    H2  418   3.448   1.119   2.691
  138TIP3   OH2  419   1.315   5.388   2.713
  138TIP3    H1  420   1.396   5.439   2.725
  138TIP3    H2  421   1.247   5.454   2.698
  139TIP3   OH2  422   2.850   2.354   3.049
  139TIP3    H1  423   2.934   2.322   3.014
  139TIP3    H2  424   2.795   2.364   2.971
  140TIP3   OH2  425   6.108   3.767   2.367
  140TIP3    H1  426   6.052   3.842   2.348
  140TIP3    H2  427   6.073   3.731   2.448
  141TIP3   OH2  428   1.405   1.985   5.102
  141TIP3    H1  429   1.364   2.063   5.140
  141TIP3    H2  430   1.414   1.924   5.175
  142TIP3   OH2  431   2.921   2.360   0.144
  142TIP3    H1  432   2.951   2.323   0.226
  142TIP3    H2  433   2.991   2.341   0.081
  143TIP3   OH2  434   5.219   5.364   1.403
  143TIP3    H1  435   5.131   5.335   1.378
  143TIP3    H2  436   5.213   5.381   1.497
  144TIP3   OH2  437   4.811   5.217   2.603
  144TIP3    H1  438   4.892   5.258   2.634
  144TIP3    H2  439   4.775   5.175   2.680
  145TIP3   OH2  440   1.293   1.124   0.178
  145TIP3    H1  441   1.301   1.162   0.265
  145TIP3    H2  442   1.199   1.121   0.161
  146TIP3   OH2  443   3.591   3.691   0.780
  146TIP3    H1  444   3.678   3.652   0.778
  146TIP3    H2  445   3.583   3.734   0.694
  147TIP3   OH2  446   3.967   3.515   2.163
  147TIP3    H1  447   3.994   3.502   2.072
  147TIP3    H2  448   3.891   3.574   2.157
  148TIP3   OH2  449   1.712   0.528   1.901
  148TIP3    H1  450   1.763   0.609   1.907
  148TIP3    H2  451   1.777   0.459   1.895
  149TIP3   OH2  452   6.300   4.386   3.221
  149TIP3    H1  453   6.311   4.480   3.210
  149TIP3    H2  454   6.290   4.373   3.315
  150TIP3   OH2  455   1.603   5.934   5.007
  150TIP3    H1  456   1.698   5.943   5.013
  150TIP3    H2  457   1.589   5.874   4.933
  151TIP3   OH2  458   5.117   4.676   2.610
  151TIP3    H1  459   5.070   4.656   2.691
  151TIP3    H2  460   5.190   4.615   2.609
  152TIP3   OH2  461   3.312   3.338   2.962
  152TIP3    H1  462   3.357   3.411   3.005
  152TIP3    H2  463   3.257   3.379   2.895
  153TIP3   OH2  464   1.995   5.916   3.886
  153TIP3    H1  465   2.020   5.988   3.828
  153TIP3    H2  466   1.900   5.908   3.876
  154TIP3   OH2  467   6.327   4.306   2.323
  154TIP3    H1  468   6.269   4.286   2.397
  154TIP3    H2  469   6.378   4.382   2.353
  155TIP3   OH2  470   2.115   2.507   3.353
  155TIP3    H1  471   2.123   2.579   3.290
  155TIP3    H2  472   2.035   2.461   3.326
  156TIP3   OH2  473   4.467   0.525   2.792
  156TIP3    H1  474   4.388   0.538   2.738
  156TIP3    H2  475   4.440   0.462   2.858
  157TIP3   OH2  476   4.380   5.510   4.412
  157TIP3    H1  477   4.337   5.594   4.425
  157TIP3    H2  478   4.449   5.528   4.348
  158TIP3   OH2  479   3.852   4.315   4.851
  158TIP3    H1  480   3.834   4.357   4.767
  158TIP3    H2  481   3.945   4.295   4.848
  159TIP3   OH2  482   1.523   2.556   0.299
  159TIP3    H1  483   1.573   2.528   0.376
  159TIP3    H2  484   1.450   2.606   0.334
  160TIP3   OH2  485   4.450   1.359   3.376
  160TIP3    H1  486   4.538   1.338   3.344
  160TIP3    H2  487   4.452   1.454   3.389
  161TIP3   OH2  488   3.172   4.014   3.250
  161TIP3    H1  489   3.179   3.923   3.277
  161TIP3    H2  490   3.250   4.056   3.285
  162TIP3   OH2  491   1.259   5.707   2.505
  162TIP3    H1  492   1.168   5.679   2.520
  162TIP3    H2  493   1.295   5.642   2.445
  163TIP3   OH2  494   3.254   4.472   1.688
  163TIP3    H1  495   3.188   4.488   1.756
  163TIP3    H2  496   3.210   4.414   1.625
  164TIP3   OH2  497   2.964   4.932   4.323
  164TIP3    H1  498   3.032   4.872   4.354
  164TIP3    H2  499   2.919   4.884   4.254
  165TIP3   OH2  500   3.060   0.363   4.099
  165TIP3    H1  501   3.112   0.427   4.051
  165TIP3    H2  502   2.973   0.366   4.059
  166TIP3   OH2  503   1.228   5.706   4.688
  166TIP3    H1  504   1.166   5.769   4.651
  166TIP3    H2  505   1.210   5.707   4.782
  167TIP3   OH2  506   5.367   2.512   0.077
  167TIP3    H1  507   5.306   2.556   0.136
  167TIP3    H2  508   5.438   2.481   0.133
  168TIP3   OH2  509   6.073   0.526   1.616
  168TIP3    H1  510   6.070   0.568   1.529
  168TIP3    H2  511   6.115   0.591   1.672
  169TIP3   OH2  512   4.651   5.924   1.668
  169TIP3    H1  513   4.639   5.967   1.753
  169TIP3    H2  514   4.650   5.831   1.688
  170TIP3   OH2  515   4.596   0.305   4.563
  170TIP3    H1  516   4.680   0.273   4.532
  170TIP3    H2  517   4.585   0.391   4.521
  171TIP3   OH2  518   4.930   2.788   3.299
  171TIP3    H1  519   5.001   2.726   3.314
  171TIP3    H2  520   4.940   2.853   3.369
  172TIP3   OH2  521   6.324   5.283   1.088
  172TIP3    H1  522   6.307   5.358   1.032
  172TIP3    H2  523   6.419   5.269   1.081
  173TIP3   OH2  524   2.283   3.118   4.129
  173TIP3    H1  525   2.331   3.117   4.212
  173TIP3    H2  526   2.191   3.118   4.156
  174TIP3   OH2  527   3.871   5.229   3.279
  174TIP3    H1  528   3.777   5.222   3.263
  174TIP3    H2  529   3.894   5.317   3.248
  175TIP3   OH2  530   1.727   4.772   2.717
  175TIP3    H1  531   1.649   4.736   2.674
  175TIP3    H2  532   1.801   4.729   2.675
  176TIP3   OH2  533   0.922   5.857   0.646
  176TIP3    H1  534   0.891   5.855   0.556
  176TIP3    H2  535   0.886   5.938   0.682
  177TIP3   OH2  536   4.594   4.691   2.266
  177TIP3    H1  537   4.628   4.611   2.305
  177TIP3    H2  538   4.499   4.684   2.275
  178TIP3   OH2  539   2.977   5.231   4.268
  178TIP3    H1  540   2.978   5.135   4.272
  178TIP3    H2  541   2.888   5.256   4.293
  179TIP3   OH2  542   2.774   1.876   0.306
  179TIP3    H1  543   2.814   1.885   0.220
  179TIP3    H2  544   2.688   1.918   0.298
  180TIP3   OH2  545   6.378   5.120   3.844
  180TIP3    H1  546   6.397   5.066   3.768
  180TIP3    H2  547   6.297   5.085   3.879
  181TIP3   OH2  548   5.114   4.363   2.898
  181TIP3    H1  549   5.078   4.369   2.810
  181TIP3    H2  550   5.102   4.271   2.923
  182TIP3   OH2  551   1.858   0.266   4.840
  182TIP3    H1  552   1.926   0.204   4.813
  182TIP3    H2  553   1.833   0.238   4.928
  183TIP3   OH2  554   3.655   2.292   3.331
  183TIP3    H1  555   3.670   2.292   3.236
  183TIP3    H2  556   3.738   2.323   3.368
  184TIP3   OH2  557   1.924   4.924   3.330
  184TIP3    H1  558   1.984   4.900   3.400
  184TIP3    H2  559   1.942   4.861   3.260
  185TIP3   OH2  560   2.191   0.688   3.745
  185TIP3    H1  561   2.178   0.658   3.655
  185TIP3    H2  562   2.279   0.659   3.768
  186TIP3   OH2  563   2.211   3.500   0.933
  186TIP3    H1  564   2.251   3.580   0.897
  186TIP3    H2  565   2.249   3.492   1.021
  187TIP3   OH2  566   5.744   1.761   1.391
  187TIP3    H1  567   5.718   1.691   1.452
  187TIP3    H2  568   5.802   1.718   1.328
  188TIP3   OH2  569   3.548   5.022   0.985
  188TIP3    H1  570   3.549   5.095   0.923
  188TIP3    H2  571   3.474   4.968   0.958
  189TIP3   OH2  572   2.247   0.592   0.611
  189TIP3    H1  573   2.239   0.649   0.688
  189TIP3    H2  574   2.338   0.562   0.613
  190TIP3   OH2  575   3.947   2.117   3.083
  190TIP3    H1  576   3.969   2.119   2.989
  190TIP3    H2  577   4.008   2.053   3.120
  191TIP3   OH2  578   0.587   1.520   0.306
  191TIP3    H1  579   0.604   1.586   0.239
  191TIP3    H2  580   0.671   1.507   0.349
  192TIP3   OH2  581   0.961   1.204   1.627
  192TIP3    H1  582   1.008   1.147   1.567
  192TIP3    H2  583   1.028   1.261   1.664
  193TIP3   OH2  584   6.221   4.349   0.922
  193TIP3    H1  585   6.299   4.297   0.941
  193TIP3    H2  586   6.187   4.313   0.840
  194TIP3   OH2  587   2.311   2.336   2.821
  194TIP3    H1  588   2.272   2.296   2.743
  194TIP3    H2  589   2.279   2.426   2.820
  195TIP3   OH2  590   2.569   1.249   2.197
  195TIP3    H1  591   2.554   1.190   2.123
  195TIP3    H2  592   2.497   1.230   2.258
  196TIP3   OH2  593   5.978   3.606   2.568
  196TIP3    H1  594   6.035   3.540   2.607
  196TIP3    H2  595   5.898   3.602   2.620
  197TIP3   OH2  596   0.875   3.479   0.894
  197TIP3    H1  597   0.800   3.425   0.921
  197TIP3    H2  598   0.944   3.416   0.874
  198TIP3   OH2  599   3.953   1.817   3.451
  198TIP3    H1  600   3.886   1.838   3.515
  198TIP3    H2  601   3.906   1.772   3.380
  199TIP3   OH2  602   1.543   1.020   1.401
  199TIP3    H1  603   1.632   0.985   1.408
  199TIP3    H2  604   1.507   1.012   1.489
  200TIP3   OH2  605   0.515   2.278   1.167
  200TIP3    H1  606   0.495   2.350   1.107
  200TIP3    H2  607   0.446   2.282   1.234
  201TIP3   OH2  608   1.720   1.462   0.349
  201TIP3    H1  609   1.757   1.374   0.349
  201TIP3    H2  610   1.637   1.452   0.303
  202TIP3   OH2  611   1.923   4.292   3.153
  202TIP3    H1  612   1.953   4.210   3.193
  202TIP3    H2  613   1.968   4.297   3.069
  203TIP3   OH2  614   6.293   3.922   2.998
  203TIP3    H1  615   6.221   3.903   2.937
  203TIP3    H2  616   6.335   4.000   2.962
  204TIP3   OH2  617   1.726   3.878   0.343
  204TIP3    H1  618   1.654   3.815   0.339
  204TIP3    H2  619   1.804   3.824   0.352
  205TIP3   OH2  620   6.226   4.983   0.622
  205TIP3    H1  621   6.254   4.928   0.549
  205TIP3    H2  622   6.296   4.976   0.686
  206TIP3   OH2  623   6.196   2.534   4.798
  206TIP3    H1  624   6.278   2.544   4.847
  206TIP3    H2  625   6.152   2.618   4.808
  207TIP3   OH2  626   0.388   4.614   4.979
  207TIP3    H1  627   0.389   4.667   5.058
  207TIP3    H2  628   0.473   4.571   4.976
  208TIP3   OH2  629   0.958   5.965   5.176
  208TIP3    H1  630   0.992   6.012   5.100
  208TIP3    H2  631   1.030   5.908   5.203
  209TIP3   OH2  632   2.688   0.672   2.742
  209TIP3    H1  633   2.725   0.744   2.691
  209TIP3    H2  634   2.723   0.686   2.831
  210TIP3   OH2  635   3.625   0.853   4.429
  210TIP3    H1  636   3.624   0.871   4.335
  210TIP3    H2  637   3.590   0.933   4.469
  211TIP3   OH2  638   5.963   5.454   4.275
  211TIP3    H1  639   5.993   5.392   4.342
  211TIP3    H2  640   6.040   5.506   4.254
  212TIP3   OH2  641   6.315   5.725   2.142
  212TIP3    H1  642   6.252   5.655   2.159
  212TIP3    H2  643   6.264   5.795   2.102
  213TIP3   OH2  644   3.879   3.296   4.651
  213TIP3    H1  645   3.806   3.354   4.674
  213TIP3    H2  646   3.863   3.217   4.703
  214TIP3   OH2  647   4.523   0.383   0.258
  214TIP3    H1  648   4.532   0.301   0.210
  214TIP3    H2  649   4.587   0.377   0.329
  215TIP3   OH2  650   1.276   4.610   0.440
  215TIP3    H1  651   1.296   4.584   0.530
  215TIP3    H2  652   1.247   4.701   0.447
  216TIP3   OH2  653   6.371   4.906   2.003
  216TIP3    H1  654   6.292   4.928   2.052
  216TIP3    H2  655   6.393   4.987   1.956
  217TIP3   OH2  656   2.928   3.426   1.224
  217TIP3    H1  657   3.020   3.449   1.215
  217TIP3    H2  658   2.898   3.476   1.299
  218TIP3   OH2  659   5.735   2.441   3.741
  218TIP3    H1  660   5.687   2.454   3.823
  218TIP3    H2  661   5.696   2.363   3.702
  219TIP3   OH2  662   4.747   3.007   4.049
  219TIP3    H1  663   4.660   3.030   4.015
  219TIP3    H2  664   4.744   3.031   4.141
  220TIP3   OH2  665   1.254   2.933   1.487
  220TIP3    H1  666   1.225   2.860   1.542
  220TIP3    H2  667   1.175   2.986   1.476
  221TIP3   OH2  668   1.529   5.756   2.264
  221TIP3    H1  669   1.526   5.799   2.349
  221TIP3    H2  670   1.569   5.671   2.281
  222TIP3   OH2  671   4.124   2.037   5.102
  222TIP3    H1  672   4.033   2.008   5.106
  222TIP3    H2  673   4.146   2.058   5.193
  223TIP3   OH2  674   3.169   1.411   4.121
  223TIP3    H1  675   3.094   1.362   4.155
  223TIP3    H2  676   3.244   1.354   4.136
  224TIP3   OH2  677   4.582   5.593   4.246
  224TIP3    H1  678   4.523   5.556   4.179
  224TIP3    H2  679   4.592   5.685   4.221
  225TIP3   OH2  680   2.752   4.280   4.277
  225TIP3    H1  681   2.668   4.315   4.248
  225TIP3    H2  682   2.732   4.192   4.308
  226TIP3   OH2  683   0.709   2.881   3.305
  226TIP3    H1  684   0.693   2.787   3.298
  226TIP3    H2  685   0.729   2.909   3.216
  227TIP3   OH2  686   0.207   4.185   0.709
  227TIP3    H1  687   0.267   4.151   0.642
  227TIP3    H2  688   0.141   4.117   0.718
  228TIP3   OH2  689   4.910   3.184   3.059
  228TIP3    H1  690   4.975   3.253   3.041
  228TIP3    H2  691   4.935   3.150   3.144
  229TIP3   OH2  692   0.983   2.869   1.155
  229TIP3    H1  693   0.997   2.871   1.060
  229TIP3    H2  694   1.047   2.931   1.189
  230TIP3   OH2  695   1.279   0.840   0.161
  230TIP3    H1  696   1.290   0.935   0.163
  230TIP3    H2  697   1.220   0.824   0.088
  231TIP3   OH2  698   4.258   3.802   1.897
  231TIP3    H1  699   4.296   3.719   1.926
  231TIP3    H2  700   4.169   3.780   1.870
  232TIP3   OH2  701   2.970   3.480   5.125
  232TIP3    H1  702   3.003   3.406   5.075
  232TIP3    H2  703   3.019   3.477   5.208
  233TIP3   OH2  704   3.526   1.544   3.299
  233TIP3    H1  705   3.568   1.489   3.233
  233TIP3    H2  706   3.434   1.515   3.298
  234TIP3   OH2  707   2.118   5.519   3.710
  234TIP3    H1  708   2.030   5.540   3.740
  234TIP3    H2  709   2.124   5.556   3.622
  235TIP3   OH2  710   4.782   0.108   2.926
  235TIP3    H1  711   4.847   0.099   2.995
  235TIP3    H2  712   4.698   0.099   2.971
  236TIP3   OH2  713   1.362   4.230   4.238
  236TIP3    H1  714   1.389   4.295   4.174
  236TIP3    H2  715   1.267   4.236   4.241
  237TIP3   OH2  716   1.192   4.160   4.648
  237TIP3    H1  717   1.161   4.198   4.730
  237TIP3    H2  718   1.286   4.173   4.649
  238TIP3   OH2  719   1.090   0.240   1.047
  238TIP3    H1  720   1.142   0.164   1.021
  238TIP3    H2  721   1.081   0.291   0.967
  239TIP3   OH2  722   6.042   1.072   4.235
  239TIP3    H1  723   5.969   1.063   4.174
  239TIP3    H2  724   6.077   1.160   4.218
  240TIP3   OH2  725   3.130   3.410   2.735
  240TIP3    H1  726   3.113   3.407   2.641
  240TIP3    H2  727   3.079   3.338   2.772
  241TIP3   OH2  728   0.094   0.770   3.639
  241TIP3    H1  729   0.099   0.761   3.734
  241TIP3    H2  730   0.149   0.845   3.619
  242TIP3   OH2  731   4.505   0.656   5.004
  242TIP3    H1  732   4.594   0.624   5.017
  242TIP3    H2  733   4.511   0.751   5.015
  243TIP3   OH2  734   0.346   0.646   3.746
  243TIP3    H1  735   0.280   0.711   3.769
  243TIP3    H2  736   0.423   0.672   3.797
  244TIP3   OH2  737   0.642   5.331   4.304
  244TIP3    H1  738   0.699   5.286   4.366
  244TIP3    H2  739   0.674   5.421   4.302
  245TIP3   OH2  740   3.336   0.632   1.746
  245TIP3    H1  741   3.346   0.666   1.657
  245TIP3    H2  742   3.372   0.701   1.802
  246TIP3   OH2  743   1.230   1.717   3.868
  246TIP3    H1  744   1.260   1.660   3.939
  246TIP3    H2  745   1.147   1.678   3.840
  247TIP3   OH2  746   5.209  -0.041   4.854
  247TIP3    H1  747   5.122  -0.003   4.848
  247TIP3    H2  748   5.242  -0.013   4.939
  248TIP3   OH2  749   5.444   5.604   3.328
  248TIP3    H1  750   5.406   5.635   3.410
  248TIP3    H2  751   5.369   5.581   3.274
  249TIP3   OH2  752   1.350   1.823   3.309
  249TIP3    H1  753   1.289   1.802   3.238
  249TIP3    H2  754   1.434   1.791   3.278
  250TIP3   OH2  755   2.377   4.987   3.704
  250TIP3    H1  756   2.370   4.900   3.743
  250TIP3    H2  757   2.286   5.017   3.695
  251TIP3   OH2  758   3.827   0.739   0.264
  251TIP3    H1  759   3.859   0.715   0.177
  251TIP3    H2  760   3.891   0.803   0.296
  252TIP3   OH2  761   0.620   3.972   1.836
  252TIP3    H1  762   0.624   3.933   1.923
  252TIP3    H2  763   0.710   3.998   1.817
  253TIP3   OH2  764   6.191   0.622   2.821
  253TIP3    H1  765   6.232   0.627   2.907
  253TIP3    H2  766   6.108   0.669   2.831
  254TIP3   OH2  767   0.194   0.151   1.529
  254TIP3    H1  768   0.252   0.078   1.550
  254TIP3    H2  769   0.194   0.154   1.433
  255TIP3   OH2  770   3.906   1.764   1.077
  255TIP3    H1  771   3.983   1.752   1.133
  255TIP3    H2  772   3.941   1.799   0.996
  256TIP3   OH2  773   1.472   3.096   1.534
  256TIP3    H1  774   1.438   3.181   1.562
  256TIP3    H2  775   1.396   3.052   1.496
  257TIP3   OH2  776   4.605   1.465   2.150
  257TIP3    H1  777   4.616   1.404   2.223
  257TIP3    H2  778   4.554   1.537   2.187
  258TIP3   OH2  779   3.616   4.679   4.633
  258TIP3    H1  780   3.689   4.708   4.579
  258TIP3    H2  781   3.557   4.636   4.572
  259TIP3   OH2  782   5.484   3.858   2.010
  259TIP3    H1  783   5.390   3.853   2.026
  259TIP3    H2  784   5.498   3.947   1.978
  260TIP3   OH2  785   6.217   0.434   0.098
  260TIP3    H1  786   6.179   0.518   0.124
  260TIP3    H2  787   6.208   0.379   0.176
  261TIP3   OH2  788   3.051   1.422   3.726
  261TIP3    H1  789   3.006   1.463   3.800
  261TIP3    H2  790   2.980   1.397   3.666
  262TIP3   OH2  791   5.116   1.490   1.186
  262TIP3    H1  792   5.078   1.481   1.273
  262TIP3    H2  793   5.178   1.417   1.179
  263TIP3   OH2  794   0.198   3.945   4.785
  263TIP3    H1  795   0.105   3.953   4.764
  263TIP3    H2  796   0.240   4.011   4.731
  264TIP3   OH2  797   2.674   1.327   0.330
  264TIP3    H1  798   2.675   1.367   0.243
  264TIP3    H2  799   2.736   1.255   0.324
  265TIP3   OH2  800   2.334   2.030   2.119
  265TIP3    H1  801   2.339   1.935   2.110
  265TIP3    H2  802   2.282   2.058   2.044
  266TIP3   OH2  803   5.406   3.864   2.348
  266TIP3    H1  804   5.345   3.922   2.393
  266TIP3    H2  805   5.418   3.790   2.408
  267TIP3   OH2  806   0.140   0.673   2.247
  267TIP3    H1  807   0.103   0.594   2.285
  267TIP3    H2  808   0.118   0.668   2.154
  268TIP3   OH2  809   2.056   4.447   2.256
  268TIP3    H1  810   1.987   4.504   2.220
  268TIP3    H2  811   2.093   4.403   2.179
  269TIP3   OH2  812   3.369   4.232   1.404
  269TIP3    H1  813   3.396   4.188   1.323
  269TIP3    H2  814   3.429   4.306   1.412
  270TIP3   OH2  815   1.647   4.527   0.891
  270TIP3    H1  816   1.608   4.476   0.821
  270TIP3    H2  817   1.741   4.526   0.874
  271TIP3   OH2  818   1.223   5.283   0.334
  271TIP3    H1  819   1.283   5.357   0.343
  271TIP3    H2  820   1.173   5.282   0.416
  272TIP3   OH2  821   0.477   0.742   4.687
  272TIP3    H1  822   0.386   0.767   4.702
  272TIP3    H2  823   0.478   0.647   4.697
  273TIP3   OH2  824   2.254   0.049   5.049
  273TIP3    H1  825   2.173   0.022   5.093
  273TIP3    H2  826   2.308   0.085   5.120
  274TIP3   OH2  827   0.323   4.845   4.195
  274TIP3    H1  828   0.263   4.782   4.234
  274TIP3    H2  829   0.410   4.814   4.219
  275TIP3   OH2  830   3.069   3.494   1.647
  275TIP3    H1  831   3.043   3.412   1.606
  275TIP3    H2  832   3.142   3.526   1.593
  276TIP3   OH2  833   1.849   0.909   3.032
  276TIP3    H1  834   1.913   0.894   2.962
  276TIP3    H2  835   1.782   0.843   3.018
  277TIP3   OH2  836   2.728   0.357   2.741
  277TIP3    H1  837   2.756   0.337   2.830
  277TIP3    H2  838   2.704   0.272   2.704
  278TIP3   OH2  839   3.212   0.589   3.275
  278TIP3    H1  840   3.281   0.642   3.315
  278TIP3    H2  841   3.200   0.627   3.188
  279TIP3   OH2  842   3.229   2.501   4.483
  279TIP3    H1  843   3.162   2.474   4.545
  279TIP3    H2  844   3.181   2.531   4.406
  280TIP3   OH2  845   3.525   5.668   4.434
  280TIP3    H1  846   3.564   5.735   4.377
  280TIP3    H2  847   3.519   5.711   4.519
  281TIP3   OH2  848   4.103   0.415   1.106
  281TIP3    H1  849   4.043   0.381   1.173
  281TIP3    H2  850   4.061   0.496   1.077
  282TIP3   OH2  851   3.311   4.964   4.196
  282TIP3    H1  852   3.257   5.041   4.176
  282TIP3    H2  853   3.345   4.981   4.284
  283TIP3   OH2  854   4.497   4.918   1.427
  283TIP3    H1  855   4.425   4.960   1.380
  283TIP3    H2  856   4.532   4.854   1.364
  284TIP3   OH2  857   5.081   3.004   4.742
  284TIP3    H1  858   5.083   2.930   4.804
  284TIP3    H2  859   5.096   2.964   4.657
  285TIP3   OH2  860   5.877   1.951   2.912
  285TIP3    H1  861   5.866   1.896   2.990
  285TIP3    H2  862   5.852   2.039   2.942
  286TIP3   OH2  863   5.704   1.750   4.454
  286TIP3    H1  864   5.690   1.720   4.544
  286TIP3    H2  865   5.774   1.694   4.421
  287TIP3   OH2  866   4.201   3.810   4.813
  287TIP3    H1  867   4.121   3.765   4.840
  287TIP3    H2  868   4.271   3.755   4.846
  288TIP3   OH2  869   4.309   4.109   1.664
  288TIP3    H1  870   4.332   4.084   1.575
  288TIP3    H2  871   4.260   4.191   1.654
  289TIP3   OH2  872   1.791   1.240   2.843
  289TIP3    H1  873   1.883   1.255   2.868
  289TIP3    H2  874   1.796   1.208   2.753
  290TIP3   OH2  875   0.332   2.349   0.940
  290TIP3    H1  876   0.403   2.406   0.909
  290TIP3    H2  877   0.284   2.324   0.861
  291TIP3   OH2  878   3.300   5.122   0.298
  291TIP3    H1  879   3.345   5.139   0.216
  291TIP3    H2  880   3.211   5.099   0.273
  292TIP3   OH2  881   1.561   0.578   1.347
  292TIP3    H1  882   1.504   0.645   1.311
  292TIP3    H2  883   1.566   0.599   1.440
  293TIP3   OH2  884   2.813   3.064   0.592
  293TIP3    H1  885   2.851   3.085   0.507
  293TIP3    H2  886   2.889   3.049   0.649
  294TIP3   OH2  887   1.904   2.294   2.003
  294TIP3    H1  888   1.819   2.296   2.048
  294TIP3    H2  889   1.947   2.375   2.030
  295TIP3   OH2  890   3.825   2.042   2.067
  295TIP3    H1  891   3.863   2.098   1.999
  295TIP3    H2  892   3.900   2.014   2.119
  296TIP3   OH2  893   1.980   1.826   3.413
  296TIP3    H1  894   1.983   1.767   3.338
  296TIP3    H2  895   2.054   1.886   3.399
  297TIP3   OH2  896   2.007   5.369   2.243
  297TIP3    H1  897   2.103   5.363   2.239
  297TIP3    H2  898   1.990   5.453   2.284
  298TIP3   OH2  899   3.592   3.546   3.379
  298TIP3    H1  900   3.660   3.480   3.395
  298TIP3    H2  901   3.531   3.536   3.452
  299TIP3   OH2  902   6.188   2.544   2.171
  299TIP3    H1  903   6.136   2.494   2.108
  299TIP3    H2  904   6.278   2.515   2.156
  300TIP3   OH2  905   4.098   0.671   2.542
  300TIP3    H1  906   4.088   0.750   2.488
  300TIP3    H2  907   4.117   0.704   2.629
  301TIP3   OH2  908   5.458   3.893   0.779
  301TIP3    H1  909   5.396   3.856   0.716
  301TIP3    H2  910   5.403   3.938   0.843
  302TIP3   OH2  911   1.741   0.154   0.793
  302TIP3    H1  912   1.812   0.189   0.848
  302TIP3    H2  913   1.722   0.069   0.830
  303TIP3   OH2  914   2.327   1.986   4.319
  303TIP3    H1  915   2.295   1.919   4.380
  303TIP3    H2  916   2.257   2.051   4.316
  304TIP3   OH2  917   5.532   3.487   2.859
  304TIP3    H1  918   5.574   3.422   2.915
  304TIP3    H2  919   5.539   3.451   2.771
  305TIP3   OH2  920   5.978   4.391   4.782
  305TIP3    H1  921   6.072   4.409   4.794
  305TIP3    H2  922   5.941   4.405   4.869
  306TIP3   OH2  923   5.902   2.808   5.068
  306TIP3    H1  924   5.836   2.758   5.115
  306TIP3    H2  925   5.976   2.813   5.129
  307TIP3   OH2  926   3.988   2.994   2.178
  307TIP3    H1  927   4.060   2.988   2.241
  307TIP3    H2  928   3.949   3.080   2.195
  308TIP3   OH2  929   4.839   4.911   4.982
  308TIP3    H1  930   4.784   4.908   5.060
  308TIP3    H2  931   4.923   4.945   5.013
  309TIP3   OH2  932   1.968   4.154   0.075
  309TIP3    H1  933   1.878   4.152   0.042
  309TIP3    H2  934   1.959   4.172   0.169
  310TIP3   OH2  935   0.943   3.491   3.614
  310TIP3    H1  936   0.948   3.437   3.693
  310TIP3    H2  937   0.954   3.429   3.542
  311TIP3   OH2  938   1.691   2.594   3.410
  311TIP3    H1  939   1.621   2.532   3.431
  311TIP3    H2  940   1.741   2.601   3.492
  312TIP3   OH2  941   4.981   1.995   0.750
  312TIP3    H1  942   5.020   2.039   0.674
  312TIP3    H2  943   4.912   2.055   0.779
  313TIP3   OH2  944   6.220   1.298   0.093
  313TIP3    H1  945   6.303   1.320   0.136
  313TIP3    H2  946   6.211   1.203   0.107
  314TIP3   OH2  947   4.095   4.310   4.270
  314TIP3    H1  948   4.016   4.357   4.245
  314TIP3    H2  949   4.136   4.285   4.187
  315TIP3   OH2  950   4.834   4.761   3.966
  315TIP3    H1  951   4.741   4.784   3.972
  315TIP3    H2  952   4.877   4.820   4.029
  316TIP3   OH2  953   4.117   0.747   3.433
  316TIP3    H1  954   4.206   0.713   3.440
  316TIP3    H2  955   4.062   0.669   3.432
  317TIP3   OH2  956   4.820   1.447   4.531
  317TIP3    H1  957   4.724   1.443   4.530
  317TIP3    H2  958   4.841   1.532   4.569
  318TIP3   OH2  959   4.862   2.728   0.094
  318TIP3    H1  960   4.770   2.737   0.071
  318TIP3    H2  961   4.898   2.673   0.024
  319TIP3   OH2  962   2.755   5.696   3.137
  319TIP3    H1  963   2.836   5.649   3.157
  319TIP3    H2  964   2.760   5.775   3.191
  320TIP3   OH2  965   1.019   3.156   3.337
  320TIP3    H1  966   1.103   3.137   3.297
  320TIP3    H2  967   1.040   3.178   3.428
  321TIP3   OH2  968   4.431   1.450   1.010
  321TIP3    H1  969   4.470   1.472   1.094
  321TIP3    H2  970   4.368   1.380   1.030
  322TIP3   OH2  971   6.240   1.673   0.944
  322TIP3    H1  972   6.172   1.740   0.948
  322TIP3    H2  973   6.268   1.661   1.035
  323TIP3   OH2  974   2.264   2.086   1.865
  323TIP3    H1  975   2.180   2.060   1.828
  323TIP3    H2  976   2.326   2.075   1.793
  324TIP3   OH2  977   4.868   2.020   3.977
  324TIP3    H1  978   4.820   1.940   3.960
  324TIP3    H2  979   4.932   1.996   4.044
  325TIP3   OH2  980   4.290   4.833   1.207
  325TIP3    H1  981   4.379   4.860   1.182
  325TIP3    H2  982   4.289   4.738   1.192
  326TIP3   OH2  983   0.512   2.621   1.796
  326TIP3    H1  984   0.425   2.585   1.779
  326TIP3    H2  985   0.572   2.550   1.776
  327TIP3   OH2  986   2.930   0.346   1.885
  327TIP3    H1  987   2.988   0.420   1.903
  327TIP3    H2  988   2.916   0.305   1.971
  328TIP3   OH2  989   4.445   5.756   0.104
  328TIP3    H1  990   4.506   5.826   0.125
  328TIP3    H2  991   4.411   5.726   0.188
  329TIP3   OH2  992   5.061   5.789   3.515
  329TIP3    H1  993   5.049   5.811   3.423
  329TIP3    H2  994   5.018   5.704   3.525
  330TIP3   OH2  995   5.076   0.008   4.536
  330TIP3    H1  996   5.143   0.076   4.546
  330TIP3    H2  997   5.120  -0.073   4.561
  331TIP3   OH2  998   5.483   2.897   2.593
  331TIP3    H1  999   5.454   2.812   2.558
  331TIP3    H2 1000   5.506   2.879   2.684
  332TIP3   OH2 1001   0.129   2.899   2.967
  332TIP3    H1 1002   0.092   2.891   2.879
  332TIP3    H2 1003   0.068   2.851   3.023
  333TIP3   OH2 1004   3.994   4.441   1.562
  333TIP3    H1 1005   4.057   4.394   1.617
  333TIP3    H2 1006   3.924   4.466   1.622
  334TIP3   OH2 1007   0.692   3.097   4.747
  334TIP3    H1 1008   0.761   3.161   4.764
  334TIP3    H2 1009   0.615   3.150   4.727
  335TIP3   OH2 1010   2.884   4.606   0.925
  335TIP3    H1 1011   2.945   4.680   0.917
  335TIP3    H2 1012   2.912   4.545   0.857
  336TIP3   OH2 1013   2.541   5.798   2.194
  336TIP3    H1 1014   2.485   5.857   2.144
  336TIP3    H2 1015   2.579   5.853   2.262
  337TIP3   OH2 1016   1.467   1.093   3.173
  337TIP3    H1 1017   1.518   1.097   3.093
  337TIP3    H2 1018   1.482   1.178   3.216
  338TIP3   OH2 1019   3.099   1.425   0.307
  338TIP3    H1 1020   3.020   1.432   0.254
  338TIP3    H2 1021   3.074   1.460   0.393
  339TIP3   OH2 1022   1.536   5.209   3.429
  339TIP3    H1 1023   1.506   5.280   3.372
  339TIP3    H2 1024   1.564   5.141   3.369
  340TIP3   OH2 1025   6.033   5.634   0.121
  340TIP3    H1 1026   5.984   5.715   0.137
  340TIP3    H2 1027   5.986   5.591   0.049
  341TIP3   OH2 1028   3.242   1.812   0.617
  341TIP3    H1 1029   3.284   1.766   0.690
  341TIP3    H2 1030   3.157   1.769   0.608
  342TIP3   OH2 1031   5.936   5.330   1.031
  342TIP3    H1 1032   5.971   5.275   0.961
  342TIP3    H2 1033   5.939   5.419   0.995
  343TIP3   OH2 1034   3.815   4.782   4.811
  343TIP3    H1 1035   3.806   4.850   4.878
  343TIP3    H2 1036   3.733   4.732   4.815
  344TIP3   OH2 1037   0.588   5.143   2.974
  344TIP3    H1 1038   0.627   5.055   2.974
  344TIP3    H2 1039   0.607   5.177   2.887
  345TIP3   OH2 1040   5.782   0.835   0.789
  345TIP3    H1 1041   5.714   0.769   0.808
  345TIP3    H2 1042   5.807   0.868   0.876
  346TIP3   OH2 1043   3.449   3.974   2.842
  346TIP3    H1 1044   3.514   3.998   2.776
  346TIP3    H2 1045   3.379   3.931   2.792
  347TIP3   OH2 1046   0.065   3.507   4.532
  347TIP3    H1 1047   0.116   3.565   4.588
  347TIP3    H2 1048   0.004   3.463   4.592
  348TIP3   OH2 1049   6.086   5.025   2.875
  348TIP3    H1 1050   6.034   5.055   2.800
  348TIP3    H2 1051   6.124   5.104   2.912
  349TIP3   OH2 1052   6.150   4.734   0.182
  349TIP3    H1 1053   6.116   4.647   0.159
  349TIP3    H2 1054   6.232   4.741   0.134
  350TIP3   OH2 1055   4.657   0.329   0.667
  350TIP3    H1 1056   4.593   0.275   0.713
  350TIP3    H2 1057   4.610   0.410   0.646
  351TIP3   OH2 1058   3.456   1.383   1.353
  351TIP3    H1 1059   3.392   1.375   1.423
  351TIP3    H2 1060   3.464   1.294   1.318
  352TIP3   OH2 1061   2.776   2.458   1.023
  352TIP3    H1 1062   2.740   2.389   0.967
  352TIP3    H2 1063   2.754   2.540   0.979
  353TIP3   OH2 1064   3.945   5.845   4.711
  353TIP3    H1 1065   4.028   5.888   4.691
  353TIP3    H2 1066   3.966   5.751   4.709
  354TIP3   OH2 1067   3.144   3.983   1.849
  354TIP3    H1 1068   3.118   4.067   1.887
  354TIP3    H2 1069   3.067   3.928   1.858
  355TIP3   OH2 1070   5.578   2.704   3.668
  355TIP3    H1 1071   5.542   2.756   3.740
  355TIP3    H2 1072   5.670   2.689   3.693
  356TIP3   OH2 1073   2.584   0.235   4.720
  356TIP3    H1 1074   2.498   0.272   4.699
  356TIP3    H2 1075   2.571   0.141   4.713
  357TIP3   OH2 1076   4.665   4.506   4.106
  357TIP3    H1 1077   4.654   4.590   4.060
  357TIP3    H2 1078   4.583   4.494   4.153
  358TIP3   OH2 1079   5.027   2.469   0.828
  358TIP3    H1 1080   5.070   2.504   0.749
  358TIP3    H2 1081   5.002   2.547   0.878
  359TIP3   OH2 1082   5.858   5.822   0.236
  359TIP3    H1 1083   5.895   5.873   0.164
  359TIP3    H2 1084   5.767   5.852   0.242
  360TIP3   OH2 1085   5.623   2.964   3.787
  360TIP3    H1 1086   5.685   3.004   3.848
  360TIP3    H2 1087   5.666   2.969   3.702
  361TIP3   OH2 1088   5.692   5.416   3.148
  361TIP3    H1 1089   5.739   5.338   3.176
  361TIP3    H2 1090   5.755   5.463   3.093
  362TIP3   OH2 1091   1.974   3.572   3.968
  362TIP3    H1 1092   1.880   3.564   3.948
  362TIP3    H2 1093   2.003   3.482   3.984
  363TIP3   OH2 1094   4.339   5.981   2.512
  363TIP3    H1 1095   4.413   5.962   2.455
  363TIP3    H2 1096   4.317   5.898   2.553
  364TIP3   OH2 1097   3.977   1.539   0.856
  364TIP3    H1 1098   3.926   1.619   0.870
  364TIP3    H2 1099   4.014   1.549   0.768
  365TIP3   OH2 1100   3.060   2.970   1.464
  365TIP3    H1 1101   2.991   2.945   1.403
  365TIP3    H2 1102   3.140   2.935   1.426
  366TIP3   OH2 1103   3.855   2.917   0.565
  366TIP3    H1 1104   3.885   2.987   0.507
  366TIP3    H2 1105   3.935   2.877   0.598
  367TIP3   OH2 1106   2.867   5.471   2.364
  367TIP3    H1 1107   2.870   5.561   2.397
  367TIP3    H2 1108   2.867   5.479   2.269
  368TIP3   OH2 1109   3.176   0.156   2.944
  368TIP3    H1 1110   3.083   0.148   2.922
  368TIP3    H2 1111   3.211   0.067   2.938
  369TIP3   OH2 1112   1.891   1.336   2.374
  369TIP3    H1 1113   1.876   1.284   2.296
  369TIP3    H2 1114   1.950   1.406   2.346
  370TIP3   OH2 1115   4.455   0.074   3.286
  370TIP3    H1 1116   4.408   0.003   3.244
  370TIP3    H2 1117   4.387   0.133   3.318
  371TIP3   OH2 1118   1.337   3.340   1.537
  371TIP3    H1 1119   1.252   3.318   1.576
  371TIP3    H2 1120   1.383   3.389   1.606
  372TIP3   OH2 1121   4.044   2.743   1.340
  372TIP3    H1 1122   4.001   2.694   1.270
  372TIP3    H2 1123   3.996   2.717   1.419
  373TIP3   OH2 1124   0.546   5.339   1.493
  373TIP3    H1 1125   0.614   5.315   1.555
  373TIP3    H2 1126   0.488   5.263   1.488
  374TIP3   OH2 1127   6.283   3.018   1.868
  374TIP3    H1 1128   6.266   2.999   1.960
  374TIP3    H2 1129   6.376   3.036   1.864
  375TIP3   OH2 1130   3.386   0.360   2.133
  375TIP3    H1 1131   3.449   0.406   2.078
  375TIP3    H2 1132   3.354   0.288   2.078
  376TIP3   OH2 1133   5.447   1.136   1.044
  376TIP3    H1 1134   5.494   1.121   1.125
  376TIP3    H2 1135   5.377   1.071   1.044
  377TIP3   OH2 1136   5.023   1.744   0.173
  377TIP3    H1 1137   5.100   1.703   0.213
  377TIP3    H2 1138   5.021   1.832   0.209
  378TIP3   OH2 1139   0.804   2.927   3.052
  378TIP3    H1 1140   0.746   2.934   2.977
  378TIP3    H2 1141   0.829   3.017   3.071
  379TIP3   OH2 1142   2.369   0.836   4.061
  379TIP3    H1 1143   2.383   0.897   4.133
  379TIP3    H2 1144   2.279   0.854   4.032
  380TIP3   OH2 1145   1.221   3.732   1.888
  380TIP3    H1 1146   1.133   3.758   1.862
  380TIP3    H2 1147   1.238   3.782   1.969
  381TIP3   OH2 1148   3.228   0.094   4.069
  381TIP3    H1 1149   3.189   0.168   4.022
  381TIP3    H2 1150   3.241   0.127   4.158
  382TIP3   OH2 1151   3.952   2.886   3.476
  382TIP3    H1 1152   4.021   2.869   3.541
  382TIP3    H2 1153   3.890   2.814   3.488
  383TIP3   OH2 1154   5.228   2.742   1.613
  383TIP3    H1 1155   5.164   2.714   1.678
  383TIP3    H2 1156   5.221   2.676   1.544
  384TIP3   OH2 1157   4.054   1.952   3.700
  384TIP3    H1 1158   4.039   2.046   3.706
  384TIP3    H2 1159   4.031   1.929   3.610
  385TIP3   OH2 1160   4.241   2.829   2.895
  385TIP3    H1 1161   4.165   2.848   2.840
  385TIP3    H2 1162   4.296   2.907   2.887
  386TIP3   OH2 1163   5.439   5.182   4.635
  386TIP3    H1 1164   5.520   5.185   4.584
  386TIP3    H2 1165   5.403   5.095   4.617
  387TIP3   OH2 1166   4.497   2.374   4.788
  387TIP3    H1 1167   4.528   2.321   4.862
  387TIP3    H2 1168   4.418   2.329   4.759
  388TIP3   OH2 1169   1.793   2.306   3.819
  388TIP3    H1 1170   1.824   2.261   3.898
  388TIP3    H2 1171   1.754   2.387   3.852
  389TIP3   OH2 1172   0.801   2.522   3.699
  389TIP3    H1 1173   0.866   2.491   3.761
  389TIP3    H2 1174   0.734   2.564   3.754
  390TIP3   OH2 1175   3.125   3.492   2.180
  390TIP3    H1 1176   3.120   3.517   2.088
  390TIP3    H2 1177   3.110   3.398   2.181
  391TIP3   OH2 1178   2.900   5.123   3.309
  391TIP3    H1 1179   2.967   5.141   3.375
  391TIP3    H2 1180   2.923   5.036   3.275
  392TIP3   OH2 1181   3.464   5.793   3.667
  392TIP3    H1 1182   3.436   5.767   3.754
  392TIP3    H2 1183   3.557   5.812   3.676
  393TIP3   OH2 1184   6.299   4.935   4.647
  393TIP3    H1 1185   6.258   4.863   4.695
  393TIP3    H2 1186   6.267   4.925   4.558
  394TIP3   OH2 1187   1.938   3.143   3.499
  394TIP3    H1 1188   1.941   3.061   3.549
  394TIP3    H2 1189   1.996   3.202   3.546
  395TIP3   OH2 1190   1.370   2.032   0.726
  395TIP3    H1 1191   1.306   2.035   0.797
  395TIP3    H2 1192   1.447   1.990   0.765
  396TIP3   OH2 1193   1.215   3.128   1.729
  396TIP3    H1 1194   1.133   3.158   1.690
  396TIP3    H2 1195   1.216   3.034   1.710
  397TIP3   OH2 1196   1.949   4.549   3.261
  397TIP3    H1 1197   1.936   4.456   3.240
  397TIP3    H2 1198   1.880   4.568   3.325
  398TIP3   OH2 1199   6.233   0.942   2.165
  398TIP3    H1 1200   6.278   0.903   2.089
  398TIP3    H2 1201   6.171   0.874   2.193
  399TIP3   OH2 1202   1.850   2.045   4.364
  399TIP3    H1 1203   1.759   2.027   4.390
  399TIP3    H2 1204   1.878   1.965   4.320
  400TIP3   OH2 1205   4.188   3.582   0.253
  400TIP3    H1 1206   4.273   3.542   0.239
  400TIP3    H2 1207   4.206   3.658   0.308
  401TIP3   OH2 1208   3.505   4.601   4.187
  401TIP3    H1 1209   3.550   4.684   4.170
  401TIP3    H2 1210   3.571   4.534   4.171
  402TIP3   OH2 1211   1.286   3.788   4.933
  402TIP3    H1 1212   1.337   3.747   4.863
  402TIP3    H2 1213   1.350   3.840   4.982
  403TIP3   OH2 1214   3.000   1.172   3.896
  403TIP3    H1 1215   2.965   1.259   3.915
  403TIP3    H2 1216   3.094   1.186   3.886
  404TIP3   OH2 1217   2.385   1.525   2.570
  404TIP3    H1 1218   2.367   1.569   2.487
  404TIP3    H2 1219   2.457   1.574   2.608
  405TIP3   OH2 1220   2.144   4.716   0.473
  405TIP3    H1 1221   2.226   4.678   0.441
  405TIP3    H2 1222   2.168   4.805   0.500
  406TIP3   OH2 1223   2.610   2.308   2.888
  406TIP3    H1 1224   2.607   2.237   2.952
  406TIP3    H2 1225   2.520   2.338   2.880
  407TIP3   OH2 1226   3.652   0.879   5.068
  407TIP3    H1 1227   3.571   0.858   5.113
  407TIP3    H2 1228   3.700   0.934   5.130
  408TIP3   OH2 1229   1.547   4.380   4.475
  408TIP3    H1 1230   1.523   4.462   4.433
  408TIP3    H2 1231   1.612   4.341   4.416
  409TIP3   OH2 1232   5.243   0.556   3.261
  409TIP3    H1 1233   5.301   0.593   3.327
  409TIP3    H2 1234   5.160   0.541   3.308
  410TIP3   OH2 1235   5.413   0.610   1.162
  410TIP3    H1 1236   5.455   0.691   1.132
  410TIP3    H2 1237   5.321   0.620   1.134
  411TIP3   OH2 1238   4.745   2.085   2.950
  411TIP3    H1 1239   4.826   2.128   2.978
  411TIP3    H2 1240   4.714   2.038   3.028
  412TIP3   OH2 1241   1.574   1.270   3.994
  412TIP3    H1 1242   1.487   1.301   3.969
  412TIP3    H2 1243   1.605   1.335   4.057
  413TIP3   OH2 1244   3.880   4.769   1.640
  413TIP3    H1 1245   3.949   4.836   1.646
  413TIP3    H2 1246   3.927   4.687   1.629
  414TIP3   OH2 1247   6.116   5.888   0.637
  414TIP3    H1 1248   6.200   5.863   0.598
  414TIP3    H2 1249   6.139   5.943   0.711
  415TIP3   OH2 1250   2.157   2.469   4.613
  415TIP3    H1 1251   2.208   2.427   4.544
  415TIP3    H2 1252   2.067   2.442   4.596
  416TIP3   OH2 1253   0.576   2.661   0.111
  416TIP3    H1 1254   0.628   2.736   0.138
  416TIP3    H2 1255   0.501   2.699   0.064
  417TIP3   OH2 1256   5.555   3.770   4.503
  417TIP3    H1 1257   5.465   3.790   4.474
  417TIP3    H2 1258   5.610   3.822   4.444
  418TIP3   OH2 1259   1.976   0.754   0.915
  418TIP3    H1 1260   2.011   0.843   0.923
  418TIP3    H2 1261   1.881   0.766   0.915
  419TIP3   OH2 1262   0.705   4.129   2.843
  419TIP3    H1 1263   0.630   4.123   2.784
  419TIP3    H2 1264   0.778   4.155   2.787
  420TIP3   OH2 1265   3.824   3.949   4.186
  420TIP3    H1 1266   3.904   3.901   4.207
  420TIP3    H2 1267   3.827   3.962   4.091
  421TIP3   OH2 1268   5.877   3.235   2.580
  421TIP3    H1 1269   5.924   3.192   2.508
  421TIP3    H2 1270   5.942   3.296   2.617
  422TIP3   OH2 1271   5.185   0.414   0.875
  422TIP3    H1 1272   5.257   0.377   0.824
  422TIP3    H2 1273   5.158   0.491   0.826
  423TIP3   OH2 1274   0.381   1.555   4.406
  423TIP3    H1 1275   0.390   1.650   4.420
  423TIP3    H2 1276   0.455   1.533   4.350
  424TIP3   OH2 1277   4.704   1.820   4.918
  424TIP3    H1 1278   4.747   1.776   4.992
  424TIP3    H2 1279   4.751   1.788   4.841
  425TIP3   OH2 1280   2.262   3.013   5.041
  425TIP3    H1 1281   2.194   3.011   4.973
  425TIP3    H2 1282   2.289   2.921   5.051
  426TIP3   OH2 1283   1.929   5.630   3.892
  426TIP3    H1 1284   1.984   5.708   3.884
  426TIP3    H2 1285   1.842   5.664   3.914
  427TIP3   OH2 1286   4.733   5.164   2.322
  427TIP3    H1 1287   4.768   5.103   2.387
  427TIP3    H2 1288   4.759   5.250   2.353
  428TIP3   OH2 1289   0.687   5.901   2.698
  428TIP3    H1 1290   0.692   5.881   2.605
  428TIP3    H2 1291   0.639   5.828   2.736
  429TIP3   OH2 1292   0.126   5.969   1.871
  429TIP3    H1 1293   0.177   6.018   1.806
  429TIP3    H2 1294   0.170   5.884   1.877
  430TIP3   OH2 1295   5.480   3.457   0.162
  430TIP3    H1 1296   5.403   3.510   0.139
  430TIP3    H2 1297   5.464   3.373   0.118
  431TIP3   OH2 1298   0.356   3.192   4.327
  431TIP3    H1 1299   0.286   3.234   4.277
  431TIP3    H2 1300   0.432   3.250   4.316
  432TIP3   OH2 1301   1.435   4.551   2.804
  432TIP3    H1 1302   1.470   4.588   2.723
  432TIP3    H2 1303   1.491   4.586   2.873
  433TIP3   OH2 1304   2.679   3.884   1.328
  433TIP3    H1 1305   2.690   3.838   1.245
  433TIP3    H2 1306   2.750   3.949   1.328
  434TIP3   OH2 1307   1.846   1.188   3.165
  434TIP3    H1 1308   1.787   1.146   3.228
  434TIP3    H2 1309   1.870   1.118   3.104
  435TIP3   OH2 1310   4.220   0.987   3.647
  435TIP3    H1 1311   4.256   0.900   3.664
  435TIP3    H2 1312   4.294   1.039   3.617
  436TIP3   OH2 1313   2.170   5.704   2.770
  436TIP3    H1 1314   2.205   5.615   2.771
  436TIP3    H2 1315   2.236   5.755   2.723
  437TIP3   OH2 1316   4.336   0.400   1.886
  437TIP3    H1 1317   4.246   0.418   1.912
  437TIP3    H2 1318   4.334   0.403   1.790
  438TIP3   OH2 1319   4.100   2.891   3.240
  438TIP3    H1 1320   4.186   2.849   3.245
  438TIP3    H2 1321   4.054   2.862   3.318
  439TIP3   OH2 1322   1.359   1.436   3.985
  439TIP3    H1 1323   1.269   1.406   3.980
  439TIP3    H2 1324   1.371   1.463   4.076
  440TIP3   OH2 1325   1.626   0.650   2.677
  440TIP3    H1 1326   1.720   0.671   2.675
  440TIP3    H2 1327   1.597   0.659   2.586
  441TIP3   OH2 1328   2.818   1.381   5.139
  441TIP3    H1 1329   2.901   1.390   5.186
  441TIP3    H2 1330   2.813   1.288   5.116
  442TIP3   OH2 1331   1.343   3.470   2.864
  442TIP3    H1 1332   1.306   3.382   2.862
  442TIP3    H2 1333   1.435   3.457   2.884
  443TIP3   OH2 1334   3.747   2.248   1.401
  443TIP3    H1 1335   3.716   2.328   1.359
  443TIP3    H2 1336   3.773   2.191   1.328
  444TIP3   OH2 1337   4.021   3.617   1.121
  444TIP3    H1 1338   4.016   3.654   1.032
  444TIP3    H2 1339   4.058   3.687   1.174
  445TIP3   OH2 1340   3.972   5.630   4.500
  445TIP3    H1 1341   4.022   5.566   4.550
  445TIP3    H2 1342   3.884   5.593   4.495
  446TIP3   OH2 1343   1.998   1.076   4.021
  446TIP3    H1 1344   2.009   1.005   3.958
  446TIP3    H2 1345   1.918   1.055   4.068
  447TIP3   OH2 1346   5.404   3.601   2.586
  447TIP3    H1 1347   5.313   3.576   2.606
  447TIP3    H2 1348   5.443   3.618   2.671
  448TIP3   OH2 1349   0.135   4.490   2.453
  448TIP3    H1 1350   0.146   4.580   2.483
  448TIP3    H2 1351   0.217   4.469   2.408
  449TIP3   OH2 1352   1.855   0.236   1.048
  449TIP3    H1 1353   1.850   0.143   1.070
  449TIP3    H2 1354   1.801   0.279   1.114
  450TIP3   OH2 1355   2.948   1.996   4.999
  450TIP3    H1 1356   2.997   2.046   5.064
  450TIP3    H2 1357   2.997   2.008   4.918
  451TIP3   OH2 1358   5.037   5.371   2.699
  451TIP3    H1 1359   5.125   5.366   2.661
  451TIP3    H2 1360   5.039   5.309   2.772
  452TIP3   OH2 1361   1.074   3.381   1.923
  452TIP3    H1 1362   1.038   3.378   1.835
  452TIP3    H2 1363   1.169   3.377   1.911
  453TIP3   OH2 1364   4.106   1.904   1.984
  453TIP3    H1 1365   4.053   1.903   2.063
  453TIP3    H2 1366   4.179   1.844   2.002
  454TIP3   OH2 1367   5.087   2.767   0.850
  454TIP3    H1 1368   5.135   2.741   0.928
  454TIP3    H2 1369   5.028   2.836   0.879
  455TIP3   OH2 1370   5.338   3.781   4.333
  455TIP3    H1 1371   5.414   3.773   4.276
  455TIP3    H2 1372   5.266   3.745   4.282
  456TIP3   OH2 1373   5.093   4.043   3.767
  456TIP3    H1 1374   5.134   4.006   3.689
  456TIP3    H2 1375   5.091   3.971   3.830
  457TIP3   OH2 1376   4.366   1.121   0.871
  457TIP3    H1 1377   4.306   1.069   0.818
  457TIP3    H2 1378   4.318   1.202   0.889
  458TIP3   OH2 1379   1.550   2.639   1.755
  458TIP3    H1 1380   1.574   2.703   1.689
  458TIP3    H2 1381   1.526   2.692   1.832
  459TIP3   OH2 1382   4.987   4.045   3.372
  459TIP3    H1 1383   4.973   3.967   3.319
  459TIP3    H2 1384   5.081   4.043   3.393
  460TIP3   OH2 1385   0.048   4.632   0.629
  460TIP3    H1 1386   0.035   4.625   0.724
  460TIP3    H2 1387   0.036   4.543   0.596
  461TIP3   OH2 1388   1.878   2.403   3.300
  461TIP3    H1 1389   1.848   2.320   3.261
  461TIP3    H2 1390   1.798   2.453   3.314
  462TIP3   OH2 1391   1.009   5.596   3.542
  462TIP3    H1 1392   1.017   5.580   3.448
  462TIP3    H2 1393   0.926   5.642   3.552
  463TIP3   OH2 1394   2.263   3.617   0.311
  463TIP3    H1 1395   2.231   3.679   0.376
  463TIP3    H2 1396   2.354   3.642   0.296
  464TIP3   OH2 1397   0.972   0.868   3.788
  464TIP3    H1 1398   0.931   0.954   3.787
  464TIP3    H2 1399   0.914   0.814   3.734
  465TIP3   OH2 1400   5.299   3.388   0.789
  465TIP3    H1 1401   5.240   3.314   0.776
  465TIP3    H2 1402   5.248   3.451   0.839
  466TIP3   OH2 1403   2.074   5.739   1.002
  466TIP3    H1 1404   2.168   5.720   0.994
  466TIP3    H2 1405   2.062   5.820   0.953
  467TIP3   OH2 1406   2.332   4.642   3.568
  467TIP3    H1 1407   2.393   4.691   3.624
  467TIP3    H2 1408   2.378   4.561   3.548
  468TIP3   OH2 1409   5.652   3.731   0.864
  468TIP3    H1 1410   5.726   3.769   0.818
  468TIP3    H2 1411   5.577   3.782   0.836
  469TIP3   OH2 1412   3.558   5.772   3.394
  469TIP3    H1 1413   3.613   5.696   3.376
  469TIP3    H2 1414   3.532   5.762   3.486
  470TIP3   OH2 1415   2.244   1.697   5.194
  470TIP3    H1 1416   2.179   1.656   5.136
  470TIP3    H2 1417   2.297   1.751   5.136
  471TIP3   OH2 1418   3.768   2.546   4.614
  471TIP3    H1 1419   3.814   2.576   4.693
  471TIP3    H2 1420   3.718   2.622   4.585
  472TIP3   OH2 1421   5.465   0.195   4.966
  472TIP3    H1 1422   5.392   0.167   5.021
  472TIP3    H2 1423   5.536   0.135   4.988
  473TIP3   OH2 1424   1.267   4.548   3.806
  473TIP3    H1 1425   1.321   4.574   3.881
  473TIP3    H2 1426   1.183   4.525   3.845
  474TIP3   OH2 1427   1.239   3.376   3.446
  474TIP3    H1 1428   1.276   3.315   3.383
  474TIP3    H2 1429   1.288   3.361   3.527
  475TIP3   OH2 1430   0.304   1.794   1.926
  475TIP3    H1 1431   0.399   1.796   1.934
  475TIP3    H2 1432   0.284   1.708   1.890
  476TIP3   OH2 1433   3.764   4.892   1.371
  476TIP3    H1 1434   3.754   4.836   1.294
  476TIP3    H2 1435   3.772   4.830   1.444
  477TIP3   OH2 1436   5.209   5.071   0.875
  477TIP3    H1 1437   5.169   5.096   0.792
  477TIP3    H2 1438   5.302   5.061   0.855
  478TIP3   OH2 1439   3.475   2.937   1.558
  478TIP3    H1 1440   3.453   2.876   1.628
  478TIP3    H2 1441   3.532   2.887   1.499
  479TIP3   OH2 1442   4.188   1.578   3.624
  479TIP3    H1 1443   4.109   1.547   3.579
  479TIP3    H2 1444   4.175   1.553   3.715
  480TIP3   OH2 1445   3.086   4.409   1.154
  480TIP3    H1 1446   3.172   4.394   1.115
  480TIP3    H2 1447   3.066   4.501   1.134
  481TIP3   OH2 1448   1.202   5.121   1.956
  481TIP3    H1 1449   1.160   5.081   1.880
  481TIP3    H2 1450   1.166   5.210   1.960
  482TIP3   OH2 1451   3.132   1.316   4.517
  482TIP3    H1 1452   3.156   1.408   4.506
  482TIP3    H2 1453   3.062   1.317   4.582
  483TIP3   OH2 1454   4.160   5.137   1.080
  483TIP3    H1 1455   4.132   5.058   1.125
  483TIP3    H2 1456   4.247   5.157   1.116
  484TIP3   OH2 1457   2.664   5.751   4.893
  484TIP3    H1 1458   2.674   5.739   4.798
  484TIP3    H2 1459   2.707   5.835   4.911
  485TIP3   OH2 1460   2.917   3.451   0.753
  485TIP3    H1 1461   2.895   3.431   0.844
  485TIP3    H2 1462   2.945   3.367   0.716
  486TIP3   OH2 1463   0.677   3.884   0.542
  486TIP3    H1 1464   0.707   3.816   0.603
  486TIP3    H2 1465   0.615   3.838   0.485
  487TIP3   OH2 1466   3.188   0.108   0.991
  487TIP3    H1 1467   3.184   0.077   1.082
  487TIP3    H2 1468   3.278   0.139   0.981
  488TIP3   OH2 1469   0.965   1.775   5.091
  488TIP3    H1 1470   0.981   1.869   5.097
  488TIP3    H2 1471   0.910   1.755   5.167
  489TIP3   OH2 1472   5.686   1.225   0.152
  489TIP3    H1 1473   5.669   1.273   0.233
  489TIP3    H2 1474   5.670   1.288   0.082
  490TIP3   OH2 1475   0.482   3.407   3.959
  490TIP3    H1 1476   0.540   3.402   3.883
  490TIP3    H2 1477   0.425   3.481   3.940
  491TIP3   OH2 1478   2.269   2.578   1.807
  491TIP3    H1 1479   2.308   2.504   1.854
  491TIP3    H2 1480   2.205   2.539   1.748
  492TIP3   OH2 1481   0.852   5.181   3.104
  492TIP3    H1 1482   0.765   5.182   3.064
  492TIP3    H2 1483   0.911   5.155   3.033
  493TIP3   OH2 1484   6.138   2.355   5.041
  493TIP3    H1 1485   6.217   2.409   5.033
  493TIP3    H2 1486   6.076   2.411   5.088
  494TIP3   OH2 1487   2.861   5.973   2.235
  494TIP3    H1 1488   2.938   5.962   2.178
  494TIP3    H2 1489   2.808   6.038   2.189
  495TIP3   OH2 1490   2.090   2.144   3.375
  495TIP3    H1 1491   2.146   2.141   3.297
  495TIP3    H2 1492   2.133   2.208   3.433
  496TIP3   OH2 1493   1.209   0.970   4.590
  496TIP3    H1 1494   1.157   1.043   4.624
  496TIP3    H2 1495   1.143   0.905   4.564
  497TIP3   OH2 1496   1.929   0.685   2.663
  497TIP3    H1 1497   1.921   0.658   2.755
  497TIP3    H2 1498   1.998   0.629   2.628
  498TIP3   OH2 1499   1.344   5.168   3.613
  498TIP3    H1 1500   1.262   5.159   3.564
  498TIP3    H2 1501   1.413   5.159   3.547
  499TIP3   OH2 1502   4.543   0.612   0.107
  499TIP3    H1 1503   4.605   0.606   0.035
  499TIP3    H2 1504   4.557   0.532   0.158
  500TIP3   OH2 1505   0.606   2.046   1.014
  500TIP3    H1 1506   0.623   1.978   1.079
  500TIP3    H2 1507   0.576   2.122   1.064
  501TIP3   OH2 1508   0.559   2.754   0.624
  501TIP3    H1 1509   0.557   2.659   0.638
  501TIP3    H2 1510   0.471   2.775   0.591
  502TIP3   OH2 1511   4.000   1.160   2.564
  502TIP3    H1 1512   4.010   1.220   2.638
  502TIP3    H2 1513   3.905   1.151   2.553
  503TIP3   OH2 1514   4.078   2.411   1.374
  503TIP3    H1 1515   4.142   2.340   1.375
  503TIP3    H2 1516   4.052   2.418   1.282
  504TIP3   OH2 1517   1.213   1.148   0.897
  504TIP3    H1 1518   1.190   1.177   0.985
  504TIP3    H2 1519   1.141   1.091   0.871
  505TIP3   OH2 1520   5.403   5.945   1.942
  505TIP3    H1 1521   5.358   5.899   2.013
  505TIP3    H2 1522   5.335   5.959   1.876
  506TIP3   OH2 1523   2.932   5.765   1.504
  506TIP3    H1 1524   3.027   5.763   1.490
  506TIP3    H2 1525   2.905   5.674   1.494
  507TIP3   OH2 1526   4.563   4.943   3.440
  507TIP3    H1 1527   4.575   4.881   3.511
  507TIP3    H2 1528   4.593   5.027   3.476
  508TIP3   OH2 1529   6.046   1.033   1.958
  508TIP3    H1 1530   6.020   0.941   1.957
  508TIP3    H2 1531   6.117   1.038   2.022
  509TIP3   OH2 1532   2.176   0.290   1.819
  509TIP3    H1 1533   2.224   0.249   1.892
  509TIP3    H2 1534   2.088   0.302   1.853
  510TIP3   OH2 1535   1.401   4.226   4.921
  510TIP3    H1 1536   1.473   4.201   4.863
  510TIP3    H2 1537   1.389   4.151   4.979
  511TIP3   OH2 1538   2.129   3.033   4.789
  511TIP3    H1 1539   2.140   3.079   4.706
  511TIP3    H2 1540   2.150   2.942   4.769
  512TIP3   OH2 1541   4.101   4.900   0.338
  512TIP3    H1 1542   4.025   4.949   0.370
  512TIP3    H2 1543   4.086   4.892   0.243
  513TIP3   OH2 1544   2.180   1.120   2.379
  513TIP3    H1 1545   2.139   1.099   2.463
  513TIP3    H2 1546   2.250   1.181   2.401
  514TIP3   OH2 1547   1.667   3.154   3.431
  514TIP3    H1 1548   1.634   3.064   3.430
  514TIP3    H2 1549   1.762   3.145   3.436
  515TIP3   OH2 1550   3.918   3.157   2.520
  515TIP3    H1 1551   3.947   3.215   2.591
  515TIP3    H2 1552   3.865   3.213   2.464
  516TIP3   OH2 1553   4.194   1.602   2.705
  516TIP3    H1 1554   4.255   1.532   2.680
  516TIP3    H2 1555   4.249   1.678   2.721
  517TIP3   OH2 1556   1.025   5.749   1.048
  517TIP3    H1 1557   1.120   5.756   1.047
  517TIP3    H2 1558   0.998   5.794   1.128
  518TIP3   OH2 1559   5.198   5.464   4.072
  518TIP3    H1 1560   5.105   5.456   4.095
  518TIP3    H2 1561   5.235   5.378   4.093
  519TIP3   OH2 1562   6.261   4.351   4.775
  519TIP3    H1 1563   6.276   4.278   4.835
  519TIP3    H2 1564   6.302   4.426   4.817
  520TIP3   OH2 1565   1.136   4.392   0.689
  520TIP3    H1 1566   1.188   4.452   0.637
  520TIP3    H2 1567   1.197   4.324   0.716
  521TIP3   OH2 1568   1.020   3.085   1.458
  521TIP3    H1 1569   1.059   3.172   1.459
  521TIP3    H2 1570   0.949   3.090   1.394
  522TIP3   OH2 1571   4.178   5.257   4.956
  522TIP3    H1 1572   4.156   5.273   5.048
  522TIP3    H2 1573   4.172   5.162   4.946
  523TIP3   OH2 1574   1.752   1.715   3.560
  523TIP3    H1 1575   1.788   1.632   3.531
  523TIP3    H2 1576   1.809   1.781   3.522
  524TIP3   OH2 1577   5.346   2.942   1.310
  524TIP3    H1 1578   5.399   2.984   1.242
  524TIP3    H2 1579   5.282   2.890   1.262
  525TIP3   OH2 1580   0.995   4.058   4.230
  525TIP3    H1 1581   0.972   4.056   4.136
  525TIP3    H2 1582   1.072   4.003   4.237
  526TIP3   OH2 1583   4.075   3.143   4.246
  526TIP3    H1 1584   4.007   3.204   4.274
  526TIP3    H2 1585   4.041   3.057   4.269
  527TIP3   OH2 1586   4.999   2.492   2.790
  527TIP3    H1 1587   5.087   2.499   2.754
  527TIP3    H2 1588   4.966   2.408   2.757
  528TIP3   OH2 1589   1.311   0.109   1.692
  528TIP3    H1 1590   1.262   0.087   1.613
  528TIP3    H2 1591   1.309   0.204   1.696
  529TIP3   OH2 1592   5.211   2.177   1.379
  529TIP3    H1 1593   5.259   2.112   1.430
  529TIP3    H2 1594   5.278   2.223   1.329
  530TIP3   OH2 1595   0.966   3.522   4.351
  530TIP3    H1 1596   0.947   3.589   4.418
  530TIP3    H2 1597   1.061   3.514   4.353
  531TIP3   OH2 1598   5.540   3.512   4.116
  531TIP3    H1 1599   5.482   3.470   4.179
  531TIP3    H2 1600   5.482   3.561   4.058
  532TIP3   OH2 1601   0.313   0.284   1.888
  532TIP3    H1 1602   0.287   0.371   1.858
  532TIP3    H2 1603   0.389   0.301   1.944
  533TIP3   OH2 1604   3.242   2.612   1.116
  533TIP3    H1 1605   3.191   2.580   1.190
  533TIP3    H2 1606   3.179   2.617   1.044
  534TIP3   OH2 1607   2.895   1.228   3.561
  534TIP3    H1 1608   2.835   1.215   3.635
  534TIP3    H2 1609   2.844   1.206   3.484
  535TIP3   OH2 1610   2.766   4.090   5.047
  535TIP3    H1 1611   2.732   4.002   5.033
  535TIP3    H2 1612   2.850   4.077   5.091
  536TIP3   OH2 1613   1.062   2.155   4.884
  536TIP3    H1 1614   1.088   2.244   4.905
  536TIP3    H2 1615   1.003   2.164   4.810
  537TIP3   OH2 1616   5.504   5.196   1.940
  537TIP3    H1 1617   5.463   5.261   1.996
  537TIP3    H2 1618   5.572   5.157   1.994
  538TIP3   OH2 1619   5.370   5.057   1.735
  538TIP3    H1 1620   5.432   5.051   1.662
  538TIP3    H2 1621   5.417   5.108   1.801
  539TIP3   OH2 1622   5.819   3.573   4.884
  539TIP3    H1 1623   5.797   3.501   4.943
  539TIP3    H2 1624   5.915   3.571   4.880
  540TIP3   OH2 1625   5.447   5.894   2.461
  540TIP3    H1 1626   5.541   5.912   2.464
  540TIP3    H2 1627   5.411   5.940   2.537
  541TIP3   OH2 1628   3.466   5.272   2.740
  541TIP3    H1 1629   3.417   5.207   2.789
  541TIP3    H2 1630   3.516   5.320   2.806
  542TIP3   OH2 1631   2.339   2.359   1.161
  542TIP3    H1 1632   2.370   2.353   1.251
  542TIP3    H2 1633   2.347   2.452   1.139
  543TIP3   OH2 1634   3.557   1.297   3.839
  543TIP3    H1 1635   3.642   1.285   3.797
  543TIP3    H2 1636   3.513   1.362   3.785
  544TIP3   OH2 1637   2.608   4.338   5.019
  544TIP3    H1 1638   2.663   4.262   5.034
  544TIP3    H2 1639   2.523   4.315   5.057
  545TIP3   OH2 1640   6.250   5.158   0.177
  545TIP3    H1 1641   6.200   5.238   0.159
  545TIP3    H2 1642   6.229   5.136   0.267
  546TIP3   OH2 1643   5.900   3.929   2.378
  546TIP3    H1 1644   5.840   3.922   2.453
  546TIP3    H2 1645   5.842   3.926   2.301
  547TIP3   OH2 1646   3.869   1.108   1.712
  547TIP3    H1 1647   3.825   1.181   1.755
  547TIP3    H2 1648   3.850   1.033   1.769
  548TIP3   OH2 1649   5.055   1.895   0.489
  548TIP3    H1 1650   4.970   1.936   0.475
  548TIP3    H2 1651   5.109   1.926   0.416
  549TIP3   OH2 1652   5.948   2.996   0.397
  549TIP3    H1 1653   5.962   3.076   0.346
  549TIP3    H2 1654   6.036   2.966   0.419
  550TIP3   OH2 1655   0.980   2.228   2.339
  550TIP3    H1 1656   1.004   2.222   2.246
  550TIP3    H2 1657   1.042   2.291   2.376
  551TIP3   OH2 1658   1.587   1.044   0.457
  551TIP3    H1 1659   1.658   1.104   0.435
  551TIP3    H2 1660   1.593   0.974   0.392
  552TIP3   OH2 1661   1.785   5.376   4.585
  552TIP3    H1 1662   1.702   5.381   4.632
  552TIP3    H2 1663   1.777   5.298   4.531
  553TIP3   OH2 1664   2.362   5.682   4.576
  553TIP3    H1 1665   2.323   5.696   4.662
  553TIP3    H2 1666   2.456   5.680   4.592
  554TIP3   OH2 1667   1.053   1.257   2.432
  554TIP3    H1 1668   1.081   1.179   2.384
  554TIP3    H2 1669   1.091   1.330   2.383
  555TIP3   OH2 1670   2.527   4.937   1.957
  555TIP3    H1 1671   2.622   4.922   1.962
  555TIP3    H2 1672   2.489   4.849   1.966
  556TIP3   OH2 1673   6.124   4.535   4.423
  556TIP3    H1 1674   6.081   4.595   4.484
  556TIP3    H2 1675   6.152   4.462   4.478
  557TIP3   OH2 1676   5.789   0.530   0.487
  557TIP3    H1 1677   5.851   0.595   0.521
  557TIP3    H2 1678   5.737   0.579   0.423
  558TIP3   OH2 1679   3.422   2.931   3.233
  558TIP3    H1 1680   3.369   2.877   3.173
  558TIP3    H2 1681   3.423   2.881   3.315
  559TIP3   OH2 1682   5.213   4.437   3.830
  559TIP3    H1 1683   5.184   4.388   3.907
  559TIP3    H2 1684   5.138   4.491   3.806
  560TIP3   OH2 1685   2.510   0.665   3.590
  560TIP3    H1 1686   2.470   0.585   3.625
  560TIP3    H2 1687   2.596   0.637   3.559
  561TIP3   OH2 1688   5.895   1.949   2.618
  561TIP3    H1 1689   5.880   1.948   2.713
  561TIP3    H2 1690   5.829   2.010   2.584
  562TIP3   OH2 1691   1.193   1.476   1.451
  562TIP3    H1 1692   1.215   1.532   1.526
  562TIP3    H2 1693   1.265   1.488   1.390
  563TIP3   OH2 1694   0.109   1.997   1.542
  563TIP3    H1 1695   0.128   1.928   1.605
  563TIP3    H2 1696   0.186   1.999   1.485
  564TIP3   OH2 1697   1.489   1.025   2.141
  564TIP3    H1 1698   1.550   0.956   2.116
  564TIP3    H2 1699   1.438   0.987   2.213
  565TIP3   OH2 1700   1.015   1.093   0.527
  565TIP3    H1 1701   1.002   1.052   0.441
  565TIP3    H2 1702   1.110   1.091   0.539
  566TIP3   OH2 1703   3.368   2.272   0.550
  566TIP3    H1 1704   3.377   2.346   0.489
  566TIP3    H2 1705   3.333   2.201   0.496
  567TIP3   OH2 1706   1.644   0.727   3.000
  567TIP3    H1 1707   1.632   0.678   2.919
  567TIP3    H2 1708   1.565   0.710   3.050
  568TIP3   OH2 1709   1.495   3.642   2.678
  568TIP3    H1 1710   1.414   3.625   2.727
  568TIP3    H2 1711   1.544   3.560   2.684
  569TIP3   OH2 1712   5.019   0.233   0.580
  569TIP3    H1 1713   5.090   0.188   0.535
  569TIP3    H2 1714   4.992   0.303   0.520
  570TIP3   OH2 1715   0.300   5.919   4.879
  570TIP3    H1 1716   0.228   5.948   4.936
  570TIP3    H2 1717   0.379   5.942   4.928
  571TIP3   OH2 1718   5.041   1.471   4.747
  571TIP3    H1 1719   5.130   1.489   4.718
  571TIP3    H2 1720   4.985   1.498   4.674
  572TIP3   OH2 1721   5.028   4.589   1.381
  572TIP3    H1 1722   4.986   4.651   1.322
  572TIP3    H2 1723   5.119   4.620   1.387
  573TIP3   OH2 1724   0.553   4.370   0.603
  573TIP3    H1 1725   0.505   4.316   0.540
  573TIP3    H2 1726   0.526   4.460   0.582
  574TIP3   OH2 1727   0.061   0.779   3.906
  574TIP3    H1 1728   0.042   0.867   3.937
  574TIP3    H2 1729  -0.008   0.724   3.945
  575TIP3   OH2 1730   4.721   2.870   2.033
  575TIP3    H1 1731   4.644   2.813   2.044
  575TIP3    H2 1732   4.688   2.958   2.047
  576TIP3   OH2 1733   0.528   3.406   2.114
  576TIP3    H1 1734   0.566   3.483   2.072
  576TIP3    H2 1735   0.511   3.345   2.042
  577TIP3   OH2 1736   4.458   4.723   4.929
  577TIP3    H1 1737   4.406   4.655   4.885
  577TIP3    H2 1738   4.547   4.709   4.897
  578TIP3   OH2 1739   4.575   3.816   0.198
  578TIP3    H1 1740   4.529   3.764   0.133
  578TIP3    H2 1741   4.506   3.861   0.246
  579TIP3   OH2 1742   0.424   1.623   0.821
  579TIP3    H1 1743   0.456   1.709   0.794
  579TIP3    H2 1744   0.339   1.640   0.861
  580TIP3   OH2 1745   0.936   4.413   4.154
  580TIP3    H1 1746   0.952   4.320   4.168
  580TIP3    H2 1747   0.961   4.428   4.062
  581TIP3   OH2 1748   1.826   1.801   0.267
  581TIP3    H1 1749   1.897   1.739   0.247
  581TIP3    H2 1750   1.861   1.855   0.338
  582TIP3   OH2 1751   4.317   2.332   3.440
  582TIP3    H1 1752   4.315   2.288   3.355
  582TIP3    H2 1753   4.335   2.262   3.503
  583TIP3   OH2 1754   6.187   1.227   0.426
  583TIP3    H1 1755   6.238   1.150   0.453
  583TIP3    H2 1756   6.251   1.282   0.380
  584TIP3   OH2 1757   1.477   0.241   0.070
  584TIP3    H1 1758   1.488   0.264  -0.022
  584TIP3    H2 1759   1.535   0.302   0.117
  585TIP3   OH2 1760   4.831   4.388   0.226
  585TIP3    H1 1761   4.864   4.473   0.255
  585TIP3    H2 1762   4.864   4.378   0.137
  586TIP3   OH2 1763   3.195   0.359   1.740
  586TIP3    H1 1764   3.234   0.446   1.742
  586TIP3    H2 1765   3.109   0.372   1.700
  587TIP3   OH2 1766   3.266   3.509   0.859
  587TIP3    H1 1767   3.360   3.494   0.856
  587TIP3    H2 1768   3.227   3.422   0.870
  588TIP3   OH2 1769   4.421   3.135   1.171
  588TIP3    H1 1770   4.390   3.080   1.100
  588TIP3    H2 1771   4.343   3.179   1.204
  589TIP3   OH2 1772   6.020   5.777   3.354
  589TIP3    H1 1773   5.970   5.758   3.433
  589TIP3    H2 1774   5.957   5.821   3.297
  590TIP3   OH2 1775   4.846   0.192   4.546
  590TIP3    H1 1776   4.918   0.250   4.522
  590TIP3    H2 1777   4.887   0.108   4.565
  591TIP3   OH2 1778   2.500   3.711   1.948
  591TIP3    H1 1779   2.451   3.629   1.942
  591TIP3    H2 1780   2.586   3.691   1.913
  592TIP3   OH2 1781   4.369   1.952   1.422
  592TIP3    H1 1782   4.390   1.959   1.515
  592TIP3    H2 1783   4.395   1.864   1.397
  593TIP3   OH2 1784   0.848   0.350   5.110
  593TIP3    H1 1785   0.880   0.286   5.046
  593TIP3    H2 1786   0.892   0.432   5.086
  594TIP3   OH2 1787   2.350   1.745   4.936
  594TIP3    H1 1788   2.428   1.734   4.882
  594TIP3    H2 1789   2.314   1.829   4.907
  595TIP3   OH2 1790   0.856   2.893   2.097
  595TIP3    H1 1791   0.936   2.922   2.053
  595TIP3    H2 1792   0.817   2.973   2.131
  596TIP3   OH2 1793   2.367   5.005   1.308
  596TIP3    H1 1794   2.343   5.046   1.391
  596TIP3    H2 1795   2.428   4.936   1.332
  597TIP3   OH2 1796   5.389   2.828   0.119
  597TIP3    H1 1797   5.467   2.823   0.173
  597TIP3    H2 1798   5.320   2.790   0.172
  598TIP3   OH2 1799   2.066   4.132   0.943
  598TIP3    H1 1800   2.076   4.172   1.029
  598TIP3    H2 1801   2.064   4.038   0.960
  599TIP3   OH2 1802   3.450   1.544   4.574
  599TIP3    H1 1803   3.385   1.529   4.506
  599TIP3    H2 1804   3.499   1.620   4.544
  600TIP3   OH2 1805   2.639   3.230   2.959
  600TIP3    H1 1806   2.718   3.232   3.013
  600TIP3    H2 1807   2.574   3.275   3.012
  601TIP3   OH2 1808   5.414   4.051   3.781
  601TIP3    H1 1809   5.366   4.121   3.738
  601TIP3    H2 1810   5.505   4.080   3.780
  602TIP3   OH2 1811   3.657   1.352   3.155
  602TIP3    H1 1812   3.688   1.264   3.176
  602TIP3    H2 1813   3.729   1.391   3.104
  603TIP3   OH2 1814   0.779   0.271   4.289
  603TIP3    H1 1815   0.864   0.302   4.318
  603TIP3    H2 1816   0.786   0.270   4.193
  604TIP3   OH2 1817   0.391   0.398   0.836
  604TIP3    H1 1818   0.335   0.473   0.853
  604TIP3    H2 1819   0.341   0.345   0.774
  605TIP3   OH2 1820   3.264   1.424   1.537
  605TIP3    H1 1821   3.250   1.518   1.545
  605TIP3    H2 1822   3.184   1.384   1.571
  606TIP3   OH2 1823   6.193   2.164   4.596
  606TIP3    H1 1824   6.231   2.192   4.680
  606TIP3    H2 1825   6.263   2.179   4.532
  607TIP3   OH2 1826   1.756   5.560   4.828
  607TIP3    H1 1827   1.676   5.590   4.786
  607TIP3    H2 1828   1.743   5.581   4.921
  608TIP3   OH2 1829   3.174   3.190   2.531
  608TIP3    H1 1830   3.082   3.170   2.513
  608TIP3    H2 1831   3.207   3.112   2.575
  609TIP3   OH2 1832   0.106   1.961   3.988
  609TIP3    H1 1833   0.133   1.947   4.079
  609TIP3    H2 1834   0.186   1.950   3.937
  610TIP3   OH2 1835   0.155   4.521   3.712
  610TIP3    H1 1836   0.231   4.486   3.665
  610TIP3    H2 1837   0.080   4.473   3.676
  611TIP3   OH2 1838   3.285   0.599   0.427
  611TIP3    H1 1839   3.320   0.672   0.478
  611TIP3    H2 1840   3.331   0.604   0.343
  612TIP3   OH2 1841   0.275   1.971   2.945
  612TIP3    H1 1842   0.242   1.912   3.013
  612TIP3    H2 1843   0.361   1.936   2.922
  613TIP3   OH2 1844   3.778   3.424   0.454
  613TIP3    H1 1845   3.780   3.407   0.549
  613TIP3    H2 1846   3.860   3.388   0.422
  614TIP3   OH2 1847   1.234   4.520   4.312
  614TIP3    H1 1848   1.208   4.434   4.346
  614TIP3    H2 1849   1.313   4.503   4.261
  615TIP3   OH2 1850   1.183   2.064   0.931
  615TIP3    H1 1851   1.118   2.077   0.862
  615TIP3    H2 1852   1.172   2.139   0.989
  616TIP3   OH2 1853   5.763   0.721   2.353
  616TIP3    H1 1854   5.768   0.626   2.339
  616TIP3    H2 1855   5.751   0.730   2.448
  617TIP3   OH2 1856   1.256   3.269   4.837
  617TIP3    H1 1857   1.346   3.295   4.854
  617TIP3    H2 1858   1.257   3.174   4.845
  618TIP3   OH2 1859   2.158   1.477   2.139
  618TIP3    H1 1860   2.215   1.425   2.082
  618TIP3    H2 1861   2.071   1.467   2.101
  619TIP3   OH2 1862   2.725   4.745   3.451
  619TIP3    H1 1863   2.717   4.801   3.527
  619TIP3    H2 1864   2.819   4.725   3.446
  620TIP3   OH2 1865   1.337   5.474   2.401
  620TIP3    H1 1866   1.430   5.492   2.415
  620TIP3    H2 1867   1.327   5.382   2.426
  621TIP3   OH2 1868   2.664   3.368   4.758
  621TIP3    H1 1869   2.594   3.368   4.824
  621TIP3    H2 1870   2.621   3.401   4.679
  622TIP3   OH2 1871   4.484   4.385   1.371
  622TIP3    H1 1872   4.494   4.359   1.462
  622TIP3    H2 1873   4.471   4.480   1.374
  623TIP3   OH2 1874   2.486   2.337   1.405
  623TIP3    H1 1875   2.522   2.349   1.493
  623TIP3    H2 1876   2.486   2.242   1.392
  624TIP3   OH2 1877   5.648   1.631   4.709
  624TIP3    H1 1878   5.701   1.594   4.780
  624TIP3    H2 1879   5.565   1.583   4.713
  625TIP3   OH2 1880   5.841   2.376   2.185
  625TIP3    H1 1881   5.884   2.337   2.261
  625TIP3    H2 1882   5.827   2.467   2.210
  626TIP3   OH2 1883   1.236   4.764   4.034
  626TIP3    H1 1884   1.201   4.774   3.945
  626TIP3    H2 1885   1.169   4.715   4.081
  627TIP3   OH2 1886   3.743   5.065   2.056
  627TIP3    H1 1887   3.746   5.112   2.139
  627TIP3    H2 1888   3.737   4.973   2.081
  628TIP3   OH2 1889   3.293   1.233   3.898
  628TIP3    H1 1890   3.384   1.227   3.868
  628TIP3    H2 1891   3.283   1.324   3.925
  629TIP3   OH2 1892   6.228   0.338   0.344
  629TIP3    H1 1893   6.322   0.355   0.340
  629TIP3    H2 1894   6.213   0.307   0.434
  630TIP3   OH2 1895   3.086   2.928   1.741
  630TIP3    H1 1896   3.026   2.853   1.735
  630TIP3    H2 1897   3.101   2.953   1.650
  631TIP3   OH2 1898   2.591   4.431   1.904
  631TIP3    H1 1899   2.574   4.387   1.987
  631TIP3    H2 1900   2.508   4.472   1.880
  632TIP3   OH2 1901   6.071   1.909   1.529
  632TIP3    H1 1902   5.980   1.940   1.529
  632TIP3    H2 1903   6.103   1.928   1.441
  633TIP3   OH2 1904   1.400   4.027   0.165
  633TIP3    H1 1905   1.453   3.959   0.206
  633TIP3    H2 1906   1.417   4.105   0.217
  634TIP3   OH2 1907   4.509   2.755   1.749
  634TIP3    H1 1908   4.444   2.736   1.681
  634TIP3    H2 1909   4.540   2.844   1.729
  635TIP3   OH2 1910   0.638   2.900   2.833
  635TIP3    H1 1911   0.633   2.815   2.877
  635TIP3    H2 1912   0.557   2.905   2.782
  636TIP3   OH2 1913   2.358   0.908   0.592
  636TIP3    H1 1914   2.446   0.923   0.559
  636TIP3    H2 1915   2.315   0.854   0.525
  637TIP3   OH2 1916   0.023   1.378   3.999
  637TIP3    H1 1917   0.095   1.327   3.963
  637TIP3    H2 1918   0.038   1.467   3.965
  638TIP3   OH2 1919   5.474   4.751   1.418
  638TIP3    H1 1920   5.567   4.728   1.430
  638TIP3    H2 1921   5.455   4.724   1.328
  639TIP3   OH2 1922   3.490   0.481   0.987
  639TIP3    H1 1923   3.471   0.396   1.026
  639TIP3    H2 1924   3.581   0.499   1.012
  640TIP3   OH2 1925   4.872   0.215   2.183
  640TIP3    H1 1926   4.809   0.262   2.128
  640TIP3    H2 1927   4.847   0.239   2.273
  641TIP3   OH2 1928   1.043   2.745   0.805
  641TIP3    H1 1929   1.084   2.695   0.875
  641TIP3    H2 1930   0.953   2.713   0.802
  642TIP3   OH2 1931   4.924   0.041   4.927
  642TIP3    H1 1932   4.994   0.105   4.925
  642TIP3    H2 1933   4.880   0.056   5.011
  643TIP3   OH2 1934   2.065   1.891   0.520
  643TIP3    H1 1935   2.099   1.852   0.439
  643TIP3    H2 1936   2.085   1.826   0.588
  644TIP3   OH2 1937   0.434   2.549   4.093
  644TIP3    H1 1938   0.347   2.565   4.056
  644TIP3    H2 1939   0.440   2.608   4.168
  645TIP3   OH2 1940   3.656   1.192   3.532
  645TIP3    H1 1941   3.736   1.148   3.504
  645TIP3    H2 1942   3.687   1.260   3.593
  646TIP3   OH2 1943   3.366   3.231   4.248
  646TIP3    H1 1944   3.343   3.305   4.304
  646TIP3    H2 1945   3.452   3.254   4.213
  647TIP3   OH2 1946   5.614   0.862   5.044
  647TIP3    H1 1947   5.527   0.844   5.009
  647TIP3    H2 1948   5.664   0.895   4.969
  648TIP3   OH2 1949   0.359   1.343   4.154
  648TIP3    H1 1950   0.382   1.391   4.075
  648TIP3    H2 1951   0.438   1.293   4.177
  649TIP3   OH2 1952   3.255   1.824   4.110
  649TIP3    H1 1953   3.223   1.914   4.116
  649TIP3    H2 1954   3.348   1.832   4.090
  650TIP3   OH2 1955   2.090   0.973   2.825
  650TIP3    H1 1956   2.076   1.061   2.860
  650TIP3    H2 1957   2.176   0.947   2.858
  651TIP3   OH2 1958   4.397   5.460   4.096
  651TIP3    H1 1959   4.305   5.438   4.106
  651TIP3    H2 1960   4.441   5.409   4.164
  652TIP3   OH2 1961   1.733   2.066   5.129
  652TIP3    H1 1962   1.699   2.005   5.194
  652TIP3    H2 1963   1.700   2.151   5.157
  653TIP3   OH2 1964   3.012   4.340   3.836
  653TIP3    H1 1965   3.073   4.285   3.787
  653TIP3    H2 1966   3.025   4.315   3.928
  654TIP3   OH2 1967   2.332   0.490   1.000
  654TIP3    H1 1968   2.363   0.559   0.941
  654TIP3    H2 1969   2.238   0.506   1.008
  655TIP3   OH2 1970   0.972   2.591   1.890
  655TIP3    H1 1971   0.885   2.621   1.916
  655TIP3    H2 1972   0.988   2.514   1.945
  656TIP3   OH2 1973   3.239   1.366   0.824
  656TIP3    H1 1974   3.304   1.369   0.894
  656TIP3    H2 1975   3.154   1.366   0.869
  657TIP3   OH2 1976   0.604   1.107   0.517
  657TIP3    H1 1977   0.535   1.124   0.452
  657TIP3    H2 1978   0.614   1.012   0.517
  658TIP3   OH2 1979   4.066   5.469   5.161
  658TIP3    H1 1980   3.995   5.494   5.102
  658TIP3    H2 1981   4.072   5.542   5.223
  659TIP3   OH2 1982   0.900   3.476   2.550
  659TIP3    H1 1983   0.884   3.479   2.644
  659TIP3    H2 1984   0.813   3.480   2.510
  660TIP3   OH2 1985   1.855   5.499   2.945
  660TIP3    H1 1986   1.888   5.436   3.010
  660TIP3    H2 1987   1.776   5.459   2.911
  661TIP3   OH2 1988   3.891   3.947   4.741
  661TIP3    H1 1989   3.856   3.876   4.687
  661TIP3    H2 1990   3.942   4.000   4.680
  662TIP3   OH2 1991   0.425   4.271   0.406
  662TIP3    H1 1992   0.486   4.289   0.335
  662TIP3    H2 1993   0.343   4.311   0.378
  663TIP3   OH2 1994   5.599   1.391   2.324
  663TIP3    H1 1995   5.675   1.336   2.305
  663TIP3    H2 1996   5.545   1.386   2.245
  664TIP3   OH2 1997   1.279   5.930   3.887
  664TIP3    H1 1998   1.214   5.903   3.823
  664TIP3    H2 1999   1.230   5.980   3.952
  665TIP3   OH2 2000   5.612   4.998   2.109
  665TIP3    H1 2001   5.676   4.937   2.072
  665TIP3    H2 2002   5.528   4.951   2.102
  666TIP3   OH2 2003   6.140   3.921   4.428
  666TIP3    H1 2004   6.152   4.009   4.393
  666TIP3    H2 2005   6.090   3.875   4.361
  667TIP3   OH2 2006   1.945   2.042   1.221
  667TIP3    H1 2007   2.008   2.080   1.159
  667TIP3    H2 2008   1.926   1.955   1.185
  668TIP3   OH2 2009   5.616   0.124   4.658
  668TIP3    H1 2010   5.556   0.191   4.688
  668TIP3    H2 2011   5.703   0.160   4.674
  669TIP3   OH2 2012   1.040   2.790   0.343
  669TIP3    H1 2013   1.004   2.727   0.406
  669TIP3    H2 2014   1.132   2.765   0.335
  670TIP3   OH2 2015   5.356   2.313   4.563
  670TIP3    H1 2016   5.269   2.342   4.589
  670TIP3    H2 2017   5.415   2.362   4.621
  671TIP3   OH2 2018   2.640   1.622   2.681
  671TIP3    H1 2019   2.697   1.545   2.687
  671TIP3    H2 2020   2.648   1.664   2.767
  672TIP3   OH2 2021   2.025   3.471   0.516
  672TIP3    H1 2022   2.067   3.386   0.529
  672TIP3    H2 2023   1.931   3.453   0.522
  673TIP3   OH2 2024   0.027   2.660   1.894
  673TIP3    H1 2025  -0.043   2.595   1.882
  673TIP3    H2 2026   0.088   2.643   1.822
  674TIP3   OH2 2027   0.549   1.753   0.133
  674TIP3    H1 2028   0.603   1.819   0.089
  674TIP3    H2 2029   0.471   1.800   0.160
  675TIP3   OH2 2030   5.484   0.744   4.159
  675TIP3    H1 2031   5.479   0.769   4.066
  675TIP3    H2 2032   5.394   0.754   4.191
  676TIP3   OH2 2033   5.137   5.736   5.104
  676TIP3    H1 2034   5.056   5.704   5.065
  676TIP3    H2 2035   5.192   5.658   5.112
  677TIP3   OH2 2036   2.154   3.027   3.102
  677TIP3    H1 2037   2.232   3.010   3.154
  677TIP3    H2 2038   2.185   3.079   3.028
  678TIP3   OH2 2039   4.793   1.692   1.320
  678TIP3    H1 2040   4.803   1.676   1.227
  678TIP3    H2 2041   4.830   1.779   1.334
  679TIP3   OH2 2042   0.772   4.220   4.550
  679TIP3    H1 2043   0.695   4.243   4.497
  679TIP3    H2 2044   0.829   4.298   4.544
  680TIP3   OH2 2045   4.129   0.936   2.934
  680TIP3    H1 2046   4.176   0.909   3.013
  680TIP3    H2 2047   4.058   0.991   2.966
  681TIP3   OH2 2048   1.226   1.577   2.793
  681TIP3    H1 2049   1.299   1.515   2.793
  681TIP3    H2 2050   1.219   1.607   2.702
  682TIP3   OH2 2051   2.365   0.604   1.837
  682TIP3    H1 2052   2.406   0.680   1.794
  682TIP3    H2 2053   2.336   0.548   1.765
  683TIP3   OH2 2054   6.309   3.925   5.184
  683TIP3    H1 2055   6.332   3.983   5.257
  683TIP3    H2 2056   6.389   3.918   5.132
  684TIP3   OH2 2057   5.932   1.362   2.491
  684TIP3    H1 2058   5.933   1.446   2.537
  684TIP3    H2 2059   5.994   1.307   2.539
  685TIP3   OH2 2060   2.112   0.891   1.857
  685TIP3    H1 2061   2.195   0.898   1.906
  685TIP3    H2 2062   2.091   0.982   1.835
  686TIP3   OH2 2063   1.627   4.837   4.779
  686TIP3    H1 2064   1.668   4.751   4.783
  686TIP3    H2 2065   1.696   4.895   4.745
  687TIP3   OH2 2066   1.071   0.086   3.919
  687TIP3    H1 2067   1.054   0.179   3.935
  687TIP3    H2 2068   1.024   0.068   3.837
  688TIP3   OH2 2069   5.083   4.336   0.628
  688TIP3    H1 2070   5.076   4.384   0.545
  688TIP3    H2 2071   5.160   4.374   0.671
  689TIP3   OH2 2072   1.410   1.207   2.396
  689TIP3    H1 2073   1.395   1.274   2.329
  689TIP3    H2 2074   1.369   1.128   2.361
  690TIP3   OH2 2075   4.061   3.401   1.300
  690TIP3    H1 2076   4.030   3.451   1.224
  690TIP3    H2 2077   4.133   3.453   1.335
  691TIP3   OH2 2078   4.795   0.656   2.383
  691TIP3    H1 2079   4.773   0.652   2.290
  691TIP3    H2 2080   4.719   0.697   2.425
  692TIP3   OH2 2081   0.250   4.101   4.108
  692TIP3    H1 2082   0.189   4.027   4.117
  692TIP3    H2 2083   0.311   4.073   4.040
  693TIP3   OH2 2084   1.759   1.564   0.997
  693TIP3    H1 2085   1.806   1.577   0.914
  693TIP3    H2 2086   1.810   1.613   1.061
  694TIP3   OH2 2087   4.965   5.615   4.940
  694TIP3    H1 2088   4.891   5.660   4.981
  694TIP3    H2 2089   4.925   5.540   4.894
  695TIP3   OH2 2090   1.172   0.021   4.408
  695TIP3    H1 2091   1.133   0.093   4.459
  695TIP3    H2 2092   1.171   0.052   4.318
  696TIP3   OH2 2093   2.934   5.438   0.453
  696TIP3    H1 2094   3.016   5.391   0.442
  696TIP3    H2 2095   2.871   5.371   0.480
  697TIP3   OH2 2096   1.334   3.864   0.737
  697TIP3    H1 2097   1.294   3.819   0.662
  697TIP3    H2 2098   1.261   3.909   0.779
  698TIP3   OH2 2099   4.070   5.207   2.497
  698TIP3    H1 2100   3.987   5.159   2.495
  698TIP3    H2 2101   4.044   5.299   2.502
  699TIP3   OH2 2102   4.795   1.459   4.870
  699TIP3    H1 2103   4.806   1.422   4.958
  699TIP3    H2 2104   4.884   1.485   4.845
  700TIP3   OH2 2105   2.658   5.755   0.640
  700TIP3    H1 2106   2.714   5.829   0.620
  700TIP3    H2 2107   2.662   5.700   0.561
  701TIP3   OH2 2108   0.378   1.792   4.072
  701TIP3    H1 2109   0.311   1.761   4.012
  701TIP3    H2 2110   0.330   1.817   4.151
  702TIP3   OH2 2111   1.367   0.281   4.682
  702TIP3    H1 2112   1.378   0.201   4.732
  702TIP3    H2 2113   1.415   0.265   4.601
  703TIP3   OH2 2114   5.341   4.276   3.652
  703TIP3    H1 2115   5.377   4.345   3.597
  703TIP3    H2 2116   5.284   4.322   3.714
  704TIP3   OH2 2117   3.672   0.546   3.778
  704TIP3    H1 2118   3.689   0.595   3.697
  704TIP3    H2 2119   3.612   0.601   3.828
  705TIP3   OH2 2120   4.361   5.206   1.747
  705TIP3    H1 2121   4.375   5.217   1.653
  705TIP3    H2 2122   4.383   5.114   1.763
  706TIP3   OH2 2123   1.479   5.641   3.072
  706TIP3    H1 2124   1.512   5.661   3.160
  706TIP3    H2 2125   1.499   5.720   3.022
  707TIP3   OH2 2126   5.564   3.534   0.648
  707TIP3    H1 2127   5.549   3.607   0.588
  707TIP3    H2 2128   5.652   3.549   0.683
  708TIP3   OH2 2129   5.433   1.376   1.772
  708TIP3    H1 2130   5.507   1.320   1.793
  708TIP3    H2 2131   5.447   1.455   1.824
  709TIP3   OH2 2132   4.635   5.229   0.736
  709TIP3    H1 2133   4.714   5.177   0.718
  709TIP3    H2 2134   4.603   5.253   0.650
  710TIP3   OH2 2135   5.505   3.878   4.112
  710TIP3    H1 2136   5.578   3.894   4.171
  710TIP3    H2 2137   5.459   3.962   4.108
  711TIP3   OH2 2138   3.177   5.067   1.819
  711TIP3    H1 2139   3.217   5.146   1.855
  711TIP3    H2 2140   3.090   5.096   1.791
  712TIP3   OH2 2141   1.618   0.283   3.813
  712TIP3    H1 2142   1.539   0.240   3.845
  712TIP3    H2 2143   1.606   0.375   3.836
  713TIP3   OH2 2144   2.848   1.269   2.139
  713TIP3    H1 2145   2.767   1.248   2.185
  713TIP3    H2 2146   2.818   1.313   2.058
  714TIP3   OH2 2147   1.787   1.841   0.954
  714TIP3    H1 2148   1.800   1.799   0.869
  714TIP3    H2 2149   1.830   1.783   1.017
  715TIP3   OH2 2150   1.854   1.958   4.745
  715TIP3    H1 2151   1.765   1.941   4.716
  715TIP3    H2 2152   1.850   1.956   4.840
  716TIP3   OH2 2153   2.367   1.226   4.445
  716TIP3    H1 2154   2.272   1.224   4.436
  716TIP3    H2 2155   2.391   1.317   4.426
  717TIP3   OH2 2156   1.650   1.934   2.187
  717TIP3    H1 2157   1.693   1.935   2.273
  717TIP3    H2 2158   1.703   1.993   2.134
  718TIP3   OH2 2159   1.339   1.658   1.971
  718TIP3    H1 2160   1.253   1.660   2.014
  718TIP3    H2 2161   1.368   1.749   1.972
  719TIP3   OH2 2162   5.287   1.019   0.194
  719TIP3    H1 2163   5.323   1.018   0.106
  719TIP3    H2 2164   5.193   1.032   0.182
  720TIP3   OH2 2165   3.568   4.547   1.980
  720TIP3    H1 2166   3.514   4.530   1.903
  720TIP3    H2 2167   3.582   4.642   1.980
  721TIP3   OH2 2168   2.336   3.774   2.184
  721TIP3    H1 2169   2.322   3.720   2.262
  721TIP3    H2 2170   2.382   3.717   2.123
  722TIP3   OH2 2171   0.271   3.458   0.587
  722TIP3    H1 2172   0.244   3.547   0.565
  722TIP3    H2 2173   0.193   3.404   0.574
  723TIP3   OH2 2174   4.136   3.029   2.412
  723TIP3    H1 2175   4.203   3.038   2.479
  723TIP3    H2 2176   4.055   3.059   2.455
  724TIP3   OH2 2177   1.681   4.152   1.819
  724TIP3    H1 2178   1.614   4.142   1.887
  724TIP3    H2 2179   1.687   4.246   1.805
  725TIP3   OH2 2180   4.900   2.130   0.208
  725TIP3    H1 2181   4.883   2.110   0.116
  725TIP3    H2 2182   4.950   2.211   0.207
  726TIP3   OH2 2183   4.605   5.937   2.372
  726TIP3    H1 2184   4.648   5.924   2.457
  726TIP3    H2 2185   4.659   5.887   2.310
  727TIP3   OH2 2186   3.772   2.489   5.144
  727TIP3    H1 2187   3.718   2.457   5.072
  727TIP3    H2 2188   3.710   2.504   5.216
  728TIP3   OH2 2189   0.257   1.510   3.124
  728TIP3    H1 2190   0.244   1.567   3.048
  728TIP3    H2 2191   0.194   1.439   3.112
  729TIP3   OH2 2192   2.101   5.484   0.919
  729TIP3    H1 2193   2.037   5.541   0.962
  729TIP3    H2 2194   2.127   5.532   0.840
  730TIP3   OH2 2195   2.507   0.089   4.365
  730TIP3    H1 2196   2.505   0.050   4.452
  730TIP3    H2 2197   2.442   0.159   4.368
  731TIP3   OH2 2198   2.585   2.944   0.850
  731TIP3    H1 2199   2.621   2.998   0.921
  731TIP3    H2 2200   2.629   2.976   0.771
  732TIP3   OH2 2201   0.081   0.197   4.619
  732TIP3    H1 2202   0.047   0.284   4.639
  732TIP3    H2 2203   0.121   0.206   4.532
  733TIP3   OH2 2204   3.785   5.083   4.178
  733TIP3    H1 2205   3.840   5.157   4.201
  733TIP3    H2 2206   3.784   5.082   4.082
  734TIP3   OH2 2207   1.294   2.544   5.075
  734TIP3    H1 2208   1.199   2.543   5.063
  734TIP3    H2 2209   1.327   2.485   5.006
  735TIP3   OH2 2210   0.125   3.706   2.379
  735TIP3    H1 2211   0.194   3.645   2.404
  735TIP3    H2 2212   0.044   3.660   2.400
  736TIP3   OH2 2213   0.592   3.842   2.085
  736TIP3    H1 2214   0.662   3.795   2.131
  736TIP3    H2 2215   0.521   3.778   2.079
  737TIP3   OH2 2216   5.884   2.189   0.424
  737TIP3    H1 2217   5.883   2.237   0.341
  737TIP3    H2 2218   5.873   2.257   0.491
  738TIP3   OH2 2219   1.022   3.547   4.923
  738TIP3    H1 2220   0.964   3.490   4.974
  738TIP3    H2 2221   1.015   3.632   4.966
  739TIP3   OH2 2222   3.517   3.207   1.626
  739TIP3    H1 2223   3.509   3.116   1.594
  739TIP3    H2 2224   3.446   3.216   1.690
  740TIP3   OH2 2225   5.508   5.903   2.889
  740TIP3    H1 2226   5.456   5.851   2.827
  740TIP3    H2 2227   5.447   5.968   2.923
  741TIP3   OH2 2228   3.970   0.323   2.321
  741TIP3    H1 2229   4.053   0.317   2.369
  741TIP3    H2 2230   3.982   0.266   2.245
  742TIP3   OH2 2231   0.739   5.615   4.680
  742TIP3    H1 2232   0.794   5.592   4.755
  742TIP3    H2 2233   0.779   5.694   4.644
  743TIP3   OH2 2234   1.701   5.603   5.083
  743TIP3    H1 2235   1.692   5.687   5.129
  743TIP3    H2 2236   1.616   5.560   5.097
  744TIP3   OH2 2237   4.442   3.992   2.197
  744TIP3    H1 2238   4.496   3.916   2.171
  744TIP3    H2 2239   4.427   3.980   2.290
  745TIP3   OH2 2240   1.939   4.852   2.419
  745TIP3    H1 2241   2.032   4.868   2.404
  745TIP3    H2 2242   1.899   4.938   2.412
  746TIP3   OH2 2243   5.245   1.567   0.217
  746TIP3    H1 2244   5.297   1.647   0.209
  746TIP3    H2 2245   5.306   1.503   0.254
  747TIP3   OH2 2246   5.068   1.439   1.469
  747TIP3    H1 2247   5.073   1.362   1.526
  747TIP3    H2 2248   5.068   1.513   1.530
  748TIP3   OH2 2249   0.012   5.573   0.674
  748TIP3    H1 2250  -0.047   5.554   0.601
  748TIP3    H2 2251  -0.045   5.576   0.751
  749TIP3   OH2 2252   3.524   4.717   3.599
  749TIP3    H1 2253   3.562   4.802   3.573
  749TIP3    H2 2254   3.450   4.705   3.540
  750TIP3   OH2 2255   3.483   5.961   0.840
  750TIP3    H1 2256   3.388   5.960   0.840
  750TIP3    H2 2257   3.506   5.978   0.932
  751TIP3   OH2 2258   5.944   5.088   2.411
  751TIP3    H1 2259   5.965   4.998   2.388
  751TIP3    H2 2260   5.994   5.142   2.350
  752TIP3   OH2 2261   3.124   4.256   1.545
  752TIP3    H1 2262   3.189   4.268   1.476
  752TIP3    H2 2263   3.042   4.287   1.506
  753TIP3   OH2 2264   3.183   1.513   0.604
  753TIP3    H1 2265   3.223   1.484   0.686
  753TIP3    H2 2266   3.090   1.495   0.615
  754TIP3   OH2 2267   4.950   5.649   4.578
  754TIP3    H1 2268   4.857   5.660   4.598
  754TIP3    H2 2269   4.996   5.688   4.652
  755TIP3   OH2 2270   5.405   2.574   3.436
  755TIP3    H1 2271   5.486   2.624   3.424
  755TIP3    H2 2272   5.428   2.486   3.407
  756TIP3   OH2 2273   3.800   2.713   2.145
  756TIP3    H1 2274   3.870   2.775   2.165
  756TIP3    H2 2275   3.838   2.627   2.162
  757TIP3   OH2 2276   1.895   1.708   1.165
  757TIP3    H1 2277   1.988   1.730   1.176
  757TIP3    H2 2278   1.873   1.658   1.243
  758TIP3   OH2 2279   5.154   4.886   3.513
  758TIP3    H1 2280   5.172   4.965   3.564
  758TIP3    H2 2281   5.158   4.915   3.421
  759TIP3   OH2 2282   0.816   5.027   3.653
  759TIP3    H1 2283   0.725   5.051   3.668
  759TIP3    H2 2284   0.866   5.083   3.712
  760TIP3   OH2 2285   2.535   2.575   3.863
  760TIP3    H1 2286   2.476   2.501   3.851
  760TIP3    H2 2287   2.618   2.546   3.825
  761TIP3   OH2 2288   0.196   1.663   0.988
  761TIP3    H1 2289   0.181   1.570   1.002
  761TIP3    H2 2290   0.124   1.691   0.931
  762TIP3   OH2 2291   2.653   1.241   3.145
  762TIP3    H1 2292   2.566   1.264   3.177
  762TIP3    H2 2293   2.637   1.168   3.085
  763TIP3   OH2 2294   1.475   4.065   3.103
  763TIP3    H1 2295   1.534   4.042   3.031
  763TIP3    H2 2296   1.495   4.157   3.121
  764TIP3   OH2 2297   0.793   2.761   4.435
  764TIP3    H1 2298   0.829   2.717   4.512
  764TIP3    H2 2299   0.720   2.813   4.469
  765TIP3   OH2 2300   5.925   4.374   1.510
  765TIP3    H1 2301   5.877   4.455   1.491
  765TIP3    H2 2302   6.009   4.404   1.543
  766TIP3   OH2 2303   0.331   3.518   2.533
  766TIP3    H1 2304   0.322   3.507   2.628
  766TIP3    H2 2305   0.366   3.606   2.522
  767TIP3   OH2 2306   6.266   1.692   1.945
  767TIP3    H1 2307   6.192   1.710   1.887
  767TIP3    H2 2308   6.230   1.632   2.011
  768TIP3   OH2 2309   0.829   2.261   2.751
  768TIP3    H1 2310   0.891   2.197   2.784
  768TIP3    H2 2311   0.749   2.245   2.801
  769TIP3   OH2 2312   1.485   1.360   0.205
  769TIP3    H1 2313   1.449   1.292   0.262
  769TIP3    H2 2314   1.408   1.410   0.176
  770TIP3   OH2 2315   6.264   3.784   3.363
  770TIP3    H1 2316   6.275   3.879   3.354
  770TIP3    H2 2317   6.306   3.763   3.446
  771TIP3   OH2 2318   6.004   0.504   0.335
  771TIP3    H1 2319   6.065   0.436   0.363
  771TIP3    H2 2320   5.924   0.488   0.386
  772TIP3   OH2 2321   5.967   4.105   3.977
  772TIP3    H1 2322   6.055   4.073   3.961
  772TIP3    H2 2323   5.910   4.033   3.949
  773TIP3   OH2 2324   5.629   3.406   3.817
  773TIP3    H1 2325   5.626   3.405   3.912
  773TIP3    H2 2326   5.722   3.408   3.796
  774TIP3   OH2 2327   0.450   3.626   3.470
  774TIP3    H1 2328   0.469   3.691   3.402
  774TIP3    H2 2329   0.518   3.559   3.458
  775TIP3   OH2 2330   0.909   5.883   3.938
  775TIP3    H1 2331   0.908   5.965   3.889
  775TIP3    H2 2332   0.853   5.900   4.013
  776TIP3   OH2 2333   3.311   3.287   4.633
  776TIP3    H1 2334   3.383   3.248   4.583
  776TIP3    H2 2335   3.324   3.381   4.624
  777TIP3   OH2 2336   1.304   4.911   3.354
  777TIP3    H1 2337   1.315   4.829   3.401
  777TIP3    H2 2338   1.392   4.935   3.325
  778TIP3   OH2 2339   1.038   0.991   0.770
  778TIP3    H1 2340   1.006   1.036   0.693
  778TIP3    H2 2341   0.985   0.911   0.775
  779TIP3   OH2 2342   2.608   5.389   0.005
  779TIP3    H1 2343   2.629   5.301  -0.026
  779TIP3    H2 2344   2.678   5.411   0.066
  780TIP3   OH2 2345   1.771   0.958   3.287
  780TIP3    H1 2346   1.676   0.947   3.287
  780TIP3    H2 2347   1.799   0.938   3.198
  781TIP3   OH2 2348   2.129   5.918   5.072
  781TIP3    H1 2349   2.216   5.929   5.033
  781TIP3    H2 2350   2.147   5.900   5.165
  782TIP3   OH2 2351   5.886   5.103   2.695
  782TIP3    H1 2352   5.791   5.106   2.708
  782TIP3    H2 2353   5.896   5.066   2.607
  783TIP3   OH2 2354   4.995   0.506   3.370
  783TIP3    H1 2355   4.924   0.500   3.434
  783TIP3    H2 2356   4.954   0.545   3.293
  784TIP3   OH2 2357   6.430   3.647   0.669
  784TIP3    H1 2358   6.383   3.684   0.594
  784TIP3    H2 2359   6.367   3.587   0.709
  785TIP3   OH2 2360   5.618   2.968   0.801
  785TIP3    H1 2361   5.549   2.941   0.862
  785TIP3    H2 2362   5.634   2.890   0.747
  786TIP3   OH2 2363   1.771   4.856  -0.015
  786TIP3    H1 2364   1.850   4.895   0.023
  786TIP3    H2 2365   1.803   4.788  -0.074
  787TIP3   OH2 2366   0.025   4.231   4.996
  787TIP3    H1 2367   0.064   4.186   5.071
  787TIP3    H2 2368   0.095   4.289   4.965
  788TIP3   OH2 2369   0.600   2.189   3.731
  788TIP3    H1 2370   0.604   2.113   3.788
  788TIP3    H2 2371   0.568   2.260   3.787
  789TIP3   OH2 2372   1.965   3.764   0.468
  789TIP3    H1 2373   2.035   3.790   0.527
  789TIP3    H2 2374   1.977   3.670   0.456
  790TIP3   OH2 2375   4.055   5.016   3.848
  790TIP3    H1 2376   4.040   5.110   3.858
  790TIP3    H2 2377   4.150   5.006   3.853
  791TIP3   OH2 2378   0.521   0.804   2.910
  791TIP3    H1 2379   0.532   0.713   2.935
  791TIP3    H2 2380   0.576   0.815   2.833
  792TIP3   OH2 2381   4.966   4.688   2.376
  792TIP3    H1 2382   5.039   4.679   2.438
  792TIP3    H2 2383   4.910   4.755   2.414
  793TIP3   OH2 2384   5.684   0.582   4.242
  793TIP3    H1 2385   5.650   0.500   4.204
  793TIP3    H2 2386   5.624   0.649   4.211
  794TIP3   OH2 2387   4.721   4.817   1.803
  794TIP3    H1 2388   4.774   4.752   1.755
  794TIP3    H2 2389   4.772   4.834   1.882
  795TIP3   OH2 2390   2.697   1.723   1.417
  795TIP3    H1 2391   2.715   1.753   1.506
  795TIP3    H2 2392   2.771   1.755   1.366
  796TIP3   OH2 2393   5.525   3.890   3.042
  796TIP3    H1 2394   5.469   3.901   3.120
  796TIP3    H2 2395   5.614   3.899   3.076
  797TIP3   OH2 2396   1.823   4.194   4.286
  797TIP3    H1 2397   1.896   4.173   4.345
  797TIP3    H2 2398   1.807   4.113   4.237
  798TIP3   OH2 2399   2.413   3.290   0.117
  798TIP3    H1 2400   2.476   3.292   0.045
  798TIP3    H2 2401   2.466   3.302   0.195
  799TIP3   OH2 2402   5.590   2.383   4.001
  799TIP3    H1 2403   5.549   2.383   4.087
  799TIP3    H2 2404   5.521   2.411   3.941
  800TIP3   OH2 2405   5.338   3.377   0.478
  800TIP3    H1 2406   5.339   3.324   0.399
  800TIP3    H2 2407   5.273   3.446   0.460
  801TIP3   OH2 2408   1.909   4.329   2.522
  801TIP3    H1 2409   1.895   4.321   2.428
  801TIP3    H2 2410   1.821   4.337   2.559
  802TIP3   OH2 2411   1.947   2.474   2.239
  802TIP3    H1 2412   2.038   2.504   2.247
  802TIP3    H2 2413   1.936   2.411   2.311
  803TIP3   OH2 2414   5.940   0.482   2.740
  803TIP3    H1 2415   6.034   0.493   2.753
  803TIP3    H2 2416   5.933   0.424   2.664
  804TIP3   OH2 2417   2.685   3.489   0.614
  804TIP3    H1 2418   2.635   3.407   0.614
  804TIP3    H2 2419   2.763   3.470   0.665
  805TIP3   OH2 2420   5.494   5.228   0.617
  805TIP3    H1 2421   5.479   5.194   0.529
  805TIP3    H2 2422   5.558   5.168   0.656
  806TIP3   OH2 2423   3.384   1.574   0.410
  806TIP3    H1 2424   3.318   1.558   0.477
  806TIP3    H2 2425   3.413   1.487   0.383
  807TIP3   OH2 2426   4.157   1.429   3.110
  807TIP3    H1 2427   4.180   1.372   3.184
  807TIP3    H2 2428   4.209   1.508   3.124
  808TIP3   OH2 2429   0.615   2.263   0.342
  808TIP3    H1 2430   0.621   2.225   0.254
  808TIP3    H2 2431   0.531   2.232   0.375
  809TIP3   OH2 2432   1.429   5.421   3.272
  809TIP3    H1 2433   1.426   5.505   3.318
  809TIP3    H2 2434   1.446   5.444   3.180
  810TIP3   OH2 2435   2.376   4.571   0.422
  810TIP3    H1 2436   2.393   4.513   0.496
  810TIP3    H2 2437   2.448   4.555   0.361
  811TIP3   OH2 2438   5.281   5.456   1.955
  811TIP3    H1 2439   5.274   5.420   1.866
  811TIP3    H2 2440   5.203   5.510   1.965
  812TIP3   OH2 2441   6.169   1.931   4.151
  812TIP3    H1 2442   6.163   1.997   4.219
  812TIP3    H2 2443   6.081   1.926   4.114
  813TIP3   OH2 2444   4.271   3.266   4.378
  813TIP3    H1 2445   4.274   3.221   4.462
  813TIP3    H2 2446   4.215   3.211   4.323
  814TIP3   OH2 2447   0.797   2.849   2.617
  814TIP3    H1 2448   0.724   2.860   2.678
  814TIP3    H2 2449   0.866   2.808   2.670
  815TIP3   OH2 2450   3.778   5.486   3.609
  815TIP3    H1 2451   3.834   5.554   3.646
  815TIP3    H2 2452   3.742   5.525   3.530
  816TIP3   OH2 2453   0.543   5.492   4.536
  816TIP3    H1 2454   0.618   5.521   4.588
  816TIP3    H2 2455   0.555   5.397   4.527
  817TIP3   OH2 2456   0.707   3.574   4.605
  817TIP3    H1 2457   0.694   3.636   4.677
  817TIP3    H2 2458   0.634   3.591   4.546
  818TIP3   OH2 2459   6.066   5.301   2.696
  818TIP3    H1 2460   6.100   5.292   2.785
  818TIP3    H2 2461   5.984   5.251   2.697
  819TIP3   OH2 2462   3.288   4.569   0.100
  819TIP3    H1 2463   3.344   4.518   0.158
  819TIP3    H2 2464   3.213   4.593   0.154
  820TIP3   OH2 2465   0.398   1.539   3.957
  820TIP3    H1 2466   0.400   1.593   3.878
  820TIP3    H2 2467   0.304   1.526   3.975
  821TIP3   OH2 2468   1.155   2.834   1.728
  821TIP3    H1 2469   1.089   2.807   1.791
  821TIP3    H2 2470   1.216   2.761   1.722
  822TIP3   OH2 2471   2.674   0.491   1.443
  822TIP3    H1 2472   2.650   0.553   1.375
  822TIP3    H2 2473   2.668   0.541   1.525
  823TIP3   OH2 2474   2.684   1.861   2.528
  823TIP3    H1 2475   2.622   1.933   2.544
  823TIP3    H2 2476   2.651   1.789   2.581
  824TIP3   OH2 2477   6.295   0.383   0.889
  824TIP3    H1 2478   6.216   0.369   0.940
  824TIP3    H2 2479   6.307   0.478   0.888
  825TIP3   OH2 2480   3.835   5.522   3.956
  825TIP3    H1 2481   3.867   5.594   4.010
  825TIP3    H2 2482   3.741   5.536   3.950
  826TIP3   OH2 2483   6.307   4.001   4.668
  826TIP3    H1 2484   6.363   4.050   4.608
  826TIP3    H2 2485   6.240   3.963   4.611
  827TIP3   OH2 2486   2.876   3.721   1.139
  827TIP3    H1 2487   2.910   3.700   1.226
  827TIP3    H2 2488   2.941   3.780   1.101
  828TIP3   OH2 2489   3.127   3.429   3.233
  828TIP3    H1 2490   3.222   3.433   3.217
  828TIP3    H2 2491   3.119   3.430   3.328
  829TIP3   OH2 2492   4.376   1.564   3.864
  829TIP3    H1 2493   4.367   1.617   3.943
  829TIP3    H2 2494   4.467   1.574   3.838
  830TIP3   OH2 2495   3.169   3.722   3.335
  830TIP3    H1 2496   3.147   3.657   3.268
  830TIP3    H2 2497   3.204   3.670   3.408
  831TIP3   OH2 2498   4.913   0.374   0.109
  831TIP3    H1 2499   4.904   0.326   0.027
  831TIP3    H2 2500   4.853   0.330   0.170
  832TIP3   OH2 2501   3.924   0.357   2.957
  832TIP3    H1 2502   3.935   0.278   3.010
  832TIP3    H2 2503   3.890   0.324   2.873
  833TIP3   OH2 2504   1.592   1.044   2.918
  833TIP3    H1 2505   1.654   1.089   2.861
  833TIP3    H2 2506   1.628   0.955   2.927
  834TIP3   OH2 2507   5.768   3.778   0.556
  834TIP3    H1 2508   5.730   3.745   0.474
  834TIP3    H2 2509   5.857   3.802   0.533
  835TIP3   OH2 2510   6.289   3.501   3.257
  835TIP3    H1 2511   6.247   3.586   3.249
  835TIP3    H2 2512   6.373   3.511   3.211
  836TIP3   OH2 2513   3.608   0.292   3.091
  836TIP3    H1 2514   3.536   0.297   3.154
  836TIP3    H2 2515   3.686   0.279   3.145
  837TIP3   OH2 2516   4.169   1.499   5.132
  837TIP3    H1 2517   4.218   1.577   5.156
  837TIP3    H2 2518   4.131   1.468   5.215
  838TIP3   OH2 2519   1.153   1.183   2.960
  838TIP3    H1 2520   1.167   1.220   2.872
  838TIP3    H2 2521   1.182   1.092   2.952
  839TIP3   OH2 2522   6.047   3.132   2.381
  839TIP3    H1 2523   6.115   3.178   2.332
  839TIP3    H2 2524   6.018   3.063   2.321
  840TIP3   OH2 2525   5.991   5.291   5.182
  840TIP3    H1 2526   5.934   5.239   5.126
  840TIP3    H2 2527   5.957   5.380   5.176
  841TIP3   OH2 2528   2.546   3.288   1.238
  841TIP3    H1 2529   2.615   3.259   1.297
  841TIP3    H2 2530   2.564   3.242   1.156
  842TIP3   OH2 2531   2.689   3.037   1.736
  842TIP3    H1 2532   2.600   3.071   1.741
  842TIP3    H2 2533   2.696   2.977   1.810
  843TIP3   OH2 2534   5.520   0.615   2.161
  843TIP3    H1 2535   5.465   0.566   2.222
  843TIP3    H2 2536   5.556   0.687   2.213
  844TIP3   OH2 2537   5.999   4.679   1.272
  844TIP3    H1 2538   5.917   4.666   1.320
  844TIP3    H2 2539   5.980   4.752   1.213
  845TIP3   OH2 2540   3.439   4.709   0.831
  845TIP3    H1 2541   3.454   4.647   0.759
  845TIP3    H2 2542   3.430   4.794   0.789
  846TIP3   OH2 2543   5.482   3.343   1.160
  846TIP3    H1 2544   5.439   3.405   1.218
  846TIP3    H2 2545   5.487   3.387   1.075
  847TIP3   OH2 2546   5.203   0.191   2.370
  847TIP3    H1 2547   5.155   0.148   2.299
  847TIP3    H2 2548   5.135   0.225   2.427
  848TIP3   OH2 2549   0.852   5.197   4.443
  848TIP3    H1 2550   0.851   5.102   4.430
  848TIP3    H2 2551   0.934   5.213   4.490
  849TIP3   OH2 2552   5.020   5.986   3.266
  849TIP3    H1 2553   5.035   6.050   3.196
  849TIP3    H2 2554   4.933   5.950   3.248
  850TIP3   OH2 2555   1.913   2.978   2.368
  850TIP3    H1 2556   1.902   3.063   2.410
  850TIP3    H2 2557   1.834   2.967   2.314
  851TIP3   OH2 2558   3.093   5.879   2.501
  851TIP3    H1 2559   3.112   5.873   2.594
  851TIP3    H2 2560   3.091   5.972   2.482
  852TIP3   OH2 2561   6.219   0.842   0.531
  852TIP3    H1 2562   6.262   0.928   0.536
  852TIP3    H2 2563   6.220   0.810   0.621
  853TIP3   OH2 2564   0.222   2.454   1.167
  853TIP3    H1 2565   0.132   2.486   1.174
  853TIP3    H2 2566   0.228   2.418   1.079
  854TIP3   OH2 2567   1.992   3.546   1.580
  854TIP3    H1 2568   2.056   3.581   1.518
  854TIP3    H2 2569   2.021   3.579   1.666
  855TIP3   OH2 2570   3.166   5.366   0.350
  855TIP3    H1 2571   3.170   5.416   0.269
  855TIP3    H2 2572   3.224   5.292   0.335
  856TIP3   OH2 2573   4.444   0.485   2.263
  856TIP3    H1 2574   4.485   0.399   2.268
  856TIP3    H2 2575   4.390   0.491   2.342
  857TIP3   OH2 2576   5.945   3.610   3.889
  857TIP3    H1 2577   5.913   3.665   3.961
  857TIP3    H2 2578   6.009   3.664   3.843
  858TIP3   OH2 2579   6.156   5.307   2.958
  858TIP3    H1 2580   6.110   5.386   2.987
  858TIP3    H2 2581   6.247   5.320   2.986
  859TIP3   OH2 2582   2.557   5.202   1.262
  859TIP3    H1 2583   2.606   5.120   1.268
  859TIP3    H2 2584   2.467   5.175   1.245
  860TIP3   OH2 2585   1.485   4.235   3.479
  860TIP3    H1 2586   1.505   4.288   3.402
  860TIP3    H2 2587   1.497   4.145   3.451
  861TIP3   OH2 2588   4.607   5.315   1.221
  861TIP3    H1 2589   4.581   5.407   1.230
  861TIP3    H2 2590   4.687   5.318   1.168
  862TIP3   OH2 2591   0.167   4.463   4.898
  862TIP3    H1 2592   0.256   4.499   4.906
  862TIP3    H2 2593   0.120   4.497   4.974
  863TIP3   OH2 2594   4.881   0.541   1.399
  863TIP3    H1 2595   4.935   0.464   1.415
  863TIP3    H2 2596   4.944   0.614   1.399
  864TIP3   OH2 2597   5.465   2.147   3.752
  864TIP3    H1 2598   5.450   2.233   3.791
  864TIP3    H2 2599   5.377   2.109   3.744
  865TIP3   OH2 2600   3.219   5.196   4.068
  865TIP3    H1 2601   3.169   5.265   4.111
  865TIP3    H2 2602   3.272   5.241   4.003
  866TIP3   OH2 2603   4.433   4.326   1.091
  866TIP3    H1 2604   4.435   4.342   1.186
  866TIP3    H2 2605   4.340   4.329   1.068
  867TIP3   OH2 2606   3.066   5.753   3.039
  867TIP3    H1 2607   3.056   5.691   3.111
  867TIP3    H2 2608   3.135   5.813   3.069
  868TIP3   OH2 2609   1.220   1.602   4.753
  868TIP3    H1 2610   1.203   1.591   4.847
  868TIP3    H2 2611   1.200   1.517   4.715
  869TIP3   OH2 2612   0.818   1.219   2.296
  869TIP3    H1 2613   0.837   1.134   2.254
  869TIP3    H2 2614   0.893   1.235   2.352
  870TIP3   OH2 2615   1.972   1.844   4.180
  870TIP3    H1 2616   1.926   1.772   4.137
  870TIP3    H2 2617   1.979   1.912   4.113
  871TIP3   OH2 2618   3.797   4.940   4.582
  871TIP3    H1 2619   3.823   4.889   4.505
  871TIP3    H2 2620   3.813   4.882   4.656
  872TIP3   OH2 2621   1.982   0.158   2.522
  872TIP3    H1 2622   2.023   0.243   2.507
  872TIP3    H2 2623   2.039   0.096   2.477
  873TIP3   OH2 2624   5.792   2.667   3.098
  873TIP3    H1 2625   5.850   2.671   3.174
  873TIP3    H2 2626   5.730   2.738   3.111
  874TIP3   OH2 2627   4.379   3.594   3.569
  874TIP3    H1 2628   4.466   3.615   3.602
  874TIP3    H2 2629   4.320   3.639   3.630
  875TIP3   OH2 2630   2.681   2.269   4.189
  875TIP3    H1 2631   2.711   2.180   4.174
  875TIP3    H2 2632   2.617   2.262   4.260
  876TIP3   OH2 2633   1.650   3.381   0.152
  876TIP3    H1 2634   1.574   3.325   0.139
  876TIP3    H2 2635   1.613   3.466   0.177
  877TIP3   OH2 2636   5.026   1.087   0.180
  877TIP3    H1 2637   4.932   1.086   0.200
  877TIP3    H2 2638   5.049   1.179   0.177
  878TIP3   OH2 2639   2.390   0.323   0.024
  878TIP3    H1 2640   2.314   0.349  -0.029
  878TIP3    H2 2641   2.463   0.373  -0.014
  879TIP3   OH2 2642   5.002   3.098   5.148
  879TIP3    H1 2643   4.975   3.118   5.059
  879TIP3    H2 2644   4.945   3.025   5.174
  880TIP3   OH2 2645   1.816   5.876   0.149
  880TIP3    H1 2646   1.802   5.969   0.169
  880TIP3    H2 2647   1.732   5.835   0.169
  881TIP3   OH2 2648   4.260   2.016   3.357
  881TIP3    H1 2649   4.241   1.923   3.343
  881TIP3    H2 2650   4.175   2.055   3.380
  882TIP3   OH2 2651   4.969   1.926   3.493
  882TIP3    H1 2652   4.875   1.944   3.485
  882TIP3    H2 2653   5.006   2.008   3.524
  883TIP3   OH2 2654   0.414   1.983   2.217
  883TIP3    H1 2655   0.454   1.923   2.155
  883TIP3    H2 2656   0.487   2.037   2.249
  884TIP3   OH2 2657   4.841   3.824   0.153
  884TIP3    H1 2658   4.863   3.779   0.071
  884TIP3    H2 2659   4.746   3.816   0.160
  885TIP3   OH2 2660   4.455   2.491   1.592
  885TIP3    H1 2661   4.461   2.406   1.636
  885TIP3    H2 2662   4.464   2.470   1.499
  886TIP3   OH2 2663   0.431   4.035   0.613
  886TIP3    H1 2664   0.506   3.976   0.604
  886TIP3    H2 2665   0.465   4.120   0.588
  887TIP3   OH2 2666   2.619   2.559   0.616
  887TIP3    H1 2667   2.544   2.555   0.675
  887TIP3    H2 2668   2.641   2.653   0.611
  888TIP3   OH2 2669   5.500   0.422   4.818
  888TIP3    H1 2670   5.476   0.336   4.852
  888TIP3    H2 2671   5.594   0.417   4.802
  889TIP3   OH2 2672   5.908   5.221   1.641
  889TIP3    H1 2673   5.914   5.218   1.736
  889TIP3    H2 2674   5.827   5.270   1.624
  890TIP3   OH2 2675   3.543   1.762   0.519
  890TIP3    H1 2676   3.549   1.829   0.451
  890TIP3    H2 2677   3.508   1.685   0.474
  891TIP3   OH2 2678   0.164   0.029   0.387
  891TIP3    H1 2679   0.231  -0.039   0.392
  891TIP3    H2 2680   0.081  -0.019   0.381
  892TIP3   OH2 2681   0.463   1.329   2.763
  892TIP3    H1 2682   0.459   1.244   2.806
  892TIP3    H2 2683   0.556   1.343   2.745
  893TIP3   OH2 2684   5.210   1.400   0.525
  893TIP3    H1 2685   5.283   1.427   0.469
  893TIP3    H2 2686   5.157   1.479   0.535
  894TIP3   OH2 2687   6.030   4.001   5.154
  894TIP3    H1 2688   5.974   3.929   5.126
  894TIP3    H2 2689   6.114   3.959   5.175
  895TIP3   OH2 2690   1.801   5.257   0.991
  895TIP3    H1 2691   1.825   5.166   0.970
  895TIP3    H2 2692   1.742   5.283   0.921
  896TIP3   OH2 2693   4.198   0.670   4.689
  896TIP3    H1 2694   4.280   0.622   4.683
  896TIP3    H2 2695   4.145   0.619   4.751
  897TIP3   OH2 2696   0.292   5.083   2.333
  897TIP3    H1 2697   0.266   4.995   2.307
  897TIP3    H2 2698   0.236   5.141   2.282
  898TIP3   OH2 2699   4.280   2.228   4.135
  898TIP3    H1 2700   4.345   2.162   4.158
  898TIP3    H2 2701   4.220   2.230   4.209
  899TIP3   OH2 2702   2.618   5.572   0.419
  899TIP3    H1 2703   2.531   5.531   0.413
  899TIP3    H2 2704   2.669   5.510   0.471
  900TIP3   OH2 2705   3.788   4.730   0.122
  900TIP3    H1 2706   3.823   4.818   0.138
  900TIP3    H2 2707   3.865   4.677   0.102
  901TIP3   OH2 2708   4.580   4.073   0.467
  901TIP3    H1 2709   4.666   4.098   0.433
  901TIP3    H2 2710   4.576   4.114   0.553
  902TIP3   OH2 2711   2.312   0.874   2.932
  902TIP3    H1 2712   2.363   0.844   2.856
  902TIP3    H2 2713   2.342   0.819   3.004
  903TIP3   OH2 2714   0.769   3.905   4.076
  903TIP3    H1 2715   0.848   3.855   4.097
  903TIP3    H2 2716   0.780   3.930   3.984
  904TIP3   OH2 2717   5.675   2.333   5.008
  904TIP3    H1 2718   5.677   2.429   5.010
  904TIP3    H2 2719   5.682   2.307   5.100
  905TIP3   OH2 2720   2.441   0.750   1.410
  905TIP3    H1 2721   2.533   0.728   1.398
  905TIP3    H2 2722   2.395   0.668   1.393
  906TIP3   OH2 2723   1.054   0.394   3.622
  906TIP3    H1 2724   1.122   0.391   3.689
  906TIP3    H2 2725   1.090   0.343   3.550
  907TIP3   OH2 2726   1.084   3.941   0.834
  907TIP3    H1 2727   1.018   3.888   0.879
  907TIP3    H2 2728   1.053   3.945   0.743
  908TIP3   OH2 2729   0.691   1.276   4.515
  908TIP3    H1 2730   0.750   1.202   4.503
  908TIP3    H2 2731   0.683   1.286   4.610
  909TIP3   OH2 2732   4.647   2.639   4.097
  909TIP3    H1 2733   4.606   2.721   4.127
  909TIP3    H2 2734   4.574   2.577   4.090
  910TIP3   OH2 2735   2.240   4.052   3.996
  910TIP3    H1 2736   2.327   4.046   4.037
  910TIP3    H2 2737   2.192   3.976   4.029
  911TIP3   OH2 2738   2.433   1.447   0.409
  911TIP3    H1 2739   2.485   1.456   0.329
  911TIP3    H2 2740   2.471   1.372   0.454
  912TIP3   OH2 2741   0.488   4.862   1.108
  912TIP3    H1 2742   0.547   4.908   1.166
  912TIP3    H2 2743   0.506   4.769   1.123
  913TIP3   OH2 2744   5.855   2.479   1.453
  913TIP3    H1 2745   5.941   2.437   1.448
  913TIP3    H2 2746   5.867   2.551   1.515
  914TIP3   OH2 2747   4.223   5.455   0.274
  914TIP3    H1 2748   4.216   5.380   0.332
  914TIP3    H2 2749   4.288   5.512   0.315
  915TIP3   OH2 2750   5.926   2.111   3.729
  915TIP3    H1 2751   5.836   2.126   3.757
  915TIP3    H2 2752   5.978   2.127   3.808
  916TIP3   OH2 2753   3.874   2.339   0.819
  916TIP3    H1 2754   3.784   2.372   0.814
  916TIP3    H2 2755   3.870   2.271   0.886
  917TIP3   OH2 2756   4.043   0.357   0.826
  917TIP3    H1 2757   4.090   0.282   0.788
  917TIP3    H2 2758   4.053   0.346   0.921
  918TIP3   OH2 2759   4.799   3.197   0.522
  918TIP3    H1 2760   4.881   3.154   0.499
  918TIP3    H2 2761   4.732   3.128   0.512
  919TIP3   OH2 2762   1.460   3.967   2.699
  919TIP3    H1 2763   1.483   4.052   2.662
  919TIP3    H2 2764   1.531   3.946   2.759
  920TIP3   OH2 2765   1.729   4.392   2.905
  920TIP3    H1 2766   1.706   4.391   2.812
  920TIP3    H2 2767   1.808   4.445   2.910
  921TIP3   OH2 2768   2.295   4.715   0.019
  921TIP3    H1 2769   2.384   4.741   0.045
  921TIP3    H2 2770   2.255   4.796  -0.011
  922TIP3   OH2 2771   6.301   4.137   1.663
  922TIP3    H1 2772   6.387   4.138   1.704
  922TIP3    H2 2773   6.251   4.203   1.711
  923TIP3   OH2 2774   4.027   3.524   4.045
  923TIP3    H1 2775   4.108   3.473   4.042
  923TIP3    H2 2776   4.039   3.584   4.119
  924TIP3   OH2 2777   2.214   3.380   3.236
  924TIP3    H1 2778   2.258   3.308   3.281
  924TIP3    H2 2779   2.124   3.377   3.268
  925TIP3   OH2 2780   3.354   4.774   0.311
  925TIP3    H1 2781   3.264   4.749   0.290
  925TIP3    H2 2782   3.397   4.783   0.226
  926TIP3   OH2 2783   1.781   5.170   0.576
  926TIP3    H1 2784   1.749   5.202   0.660
  926TIP3    H2 2785   1.702   5.145   0.528
  927TIP3   OH2 2786   4.244   3.403   0.983
  927TIP3    H1 2787   4.193   3.473   0.941
  927TIP3    H2 2788   4.234   3.420   1.076
  928TIP3   OH2 2789   0.909   2.464   4.377
  928TIP3    H1 2790   0.850   2.529   4.416
  928TIP3    H2 2791   0.877   2.454   4.288
  929TIP3   OH2 2792   1.949   0.412   0.798
  929TIP3    H1 2793   1.927   0.423   0.890
  929TIP3    H2 2794   2.017   0.478   0.781
  930TIP3   OH2 2795   1.628   3.498   4.558
  930TIP3    H1 2796   1.595   3.421   4.513
  930TIP3    H2 2797   1.613   3.570   4.497
  931TIP3   OH2 2798   1.396   4.557   0.669
  931TIP3    H1 2799   1.443   4.475   0.686
  931TIP3    H2 2800   1.465   4.622   0.658
  932TIP3   OH2 2801   1.884   4.226   1.405
  932TIP3    H1 2802   1.832   4.246   1.483
  932TIP3    H2 2803   1.833   4.262   1.333
  933TIP3   OH2 2804   4.006   5.056   1.968
  933TIP3    H1 2805   4.020   5.145   2.002
  933TIP3    H2 2806   3.917   5.034   1.995
  934TIP3   OH2 2807   5.483   2.726   4.662
  934TIP3    H1 2808   5.529   2.719   4.578
  934TIP3    H2 2809   5.514   2.809   4.699
  935TIP3   OH2 2810   4.339   2.365   3.131
  935TIP3    H1 2811   4.252   2.356   3.170
  935TIP3    H2 2812   4.379   2.439   3.177
  936TIP3   OH2 2813   5.940   0.340   3.760
  936TIP3    H1 2814   5.923   0.433   3.770
  936TIP3    H2 2815   6.032   0.329   3.785
  937TIP3   OH2 2816   3.481   3.450   2.711
  937TIP3    H1 2817   3.541   3.474   2.782
  937TIP3    H2 2818   3.494   3.355   2.700
  938TIP3   OH2 2819   5.017   4.271   1.166
  938TIP3    H1 2820   5.066   4.324   1.228
  938TIP3    H2 2821   5.022   4.319   1.083
  939TIP3   OH2 2822   6.266   5.142   1.871
  939TIP3    H1 2823   6.279   5.087   1.794
  939TIP3    H2 2824   6.171   5.157   1.874
  940TIP3   OH2 2825   5.465   0.942   1.542
  940TIP3    H1 2826   5.458   0.855   1.503
  940TIP3    H2 2827   5.388   0.989   1.510
  941TIP3   OH2 2828   4.443   1.861   1.679
  941TIP3    H1 2829   4.402   1.786   1.636
  941TIP3    H2 2830   4.400   1.865   1.765
  942TIP3   OH2 2831   3.303   0.694   4.917
  942TIP3    H1 2832   3.261   0.675   4.833
  942TIP3    H2 2833   3.234   0.735   4.970
  943TIP3   OH2 2834   3.747   1.524   2.686
  943TIP3    H1 2835   3.678   1.581   2.720
  943TIP3    H2 2836   3.718   1.435   2.706
  944TIP3   OH2 2837   1.111   2.560   0.537
  944TIP3    H1 2838   1.126   2.590   0.627
  944TIP3    H2 2839   1.032   2.506   0.542
  945TIP3   OH2 2840   3.581   0.131   2.864
  945TIP3    H1 2841   3.664   0.137   2.817
  945TIP3    H2 2842   3.593   0.187   2.941
  946TIP3   OH2 2843   0.199   2.729   2.695
  946TIP3    H1 2844   0.232   2.659   2.751
  946TIP3    H2 2845   0.120   2.693   2.655
  947TIP3   OH2 2846   2.866   3.127   2.558
  947TIP3    H1 2847   2.773   3.106   2.557
  947TIP3    H2 2848   2.872   3.215   2.522
  948TIP3   OH2 2849   5.142   0.485   1.624
  948TIP3    H1 2850   5.187   0.548   1.566
  948TIP3    H2 2851   5.136   0.405   1.571
  949TIP3   OH2 2852   0.568   4.961   3.348
  949TIP3    H1 2853   0.602   5.050   3.342
  949TIP3    H2 2854   0.597   4.918   3.268
  950TIP3   OH2 2855   0.412   2.449   0.146
  950TIP3    H1 2856   0.481   2.515   0.149
  950TIP3    H2 2857   0.391   2.440   0.053
  951TIP3   OH2 2858   0.486   0.063   0.805
  951TIP3    H1 2859   0.408   0.091   0.758
  951TIP3    H2 2860   0.476   0.098   0.893
  952TIP3   OH2 2861   1.921   2.205   2.917
  952TIP3    H1 2862   1.900   2.152   2.993
  952TIP3    H2 2863   1.837   2.218   2.873
  953TIP3   OH2 2864   1.599   4.341   0.706
  953TIP3    H1 2865   1.611   4.252   0.741
  953TIP3    H2 2866   1.629   4.334   0.615
  954TIP3   OH2 2867   2.023   4.627   0.884
  954TIP3    H1 2868   1.997   4.580   0.805
  954TIP3    H2 2869   2.091   4.573   0.923
  955TIP3   OH2 2870   0.047   0.078   4.948
  955TIP3    H1 2871  -0.038   0.111   4.975
  955TIP3    H2 2872   0.099   0.076   5.028
  956TIP3   OH2 2873   4.744   0.840   1.197
  956TIP3    H1 2874   4.721   0.751   1.221
  956TIP3    H2 2875   4.664   0.877   1.160
  957TIP3   OH2 2876   5.124   3.662   2.343
  957TIP3    H1 2877   5.114   3.755   2.366
  957TIP3    H2 2878   5.071   3.651   2.264
  958TIP3   OH2 2879   6.340   1.069   0.569
  958TIP3    H1 2880   6.323   1.069   0.663
  958TIP3    H2 2881   6.418   1.124   0.558
  959TIP3   OH2 2882   2.888   1.406   3.978
  959TIP3    H1 2883   2.844   1.483   3.941
  959TIP3    H2 2884   2.833   1.380   4.051
  960TIP3   OH2 2885   0.190   1.632   1.307
  960TIP3    H1 2886   0.185   1.620   1.402
  960TIP3    H2 2887   0.236   1.554   1.275
  961TIP3   OH2 2888   1.059   3.340   0.743
  961TIP3    H1 2889   1.002   3.264   0.756
  961TIP3    H2 2890   1.139   3.318   0.792
  962TIP3   OH2 2891   5.990   3.343   3.822
  962TIP3    H1 2892   5.965   3.425   3.864
  962TIP3    H2 2893   6.084   3.336   3.836
  963TIP3   OH2 2894   3.399   0.221   2.643
  963TIP3    H1 2895   3.454   0.178   2.708
  963TIP3    H2 2896   3.357   0.293   2.690
  964TIP3   OH2 2897   0.402   4.283   2.114
  964TIP3    H1 2898   0.362   4.196   2.109
  964TIP3    H2 2899   0.394   4.307   2.206
  965TIP3   OH2 2900   1.921   1.365   1.778
  965TIP3    H1 2901   1.956   1.447   1.741
  965TIP3    H2 2902   1.928   1.377   1.873
  966TIP3   OH2 2903   0.325   5.872   4.131
  966TIP3    H1 2904   0.318   5.779   4.111
  966TIP3    H2 2905   0.391   5.876   4.201
  967TIP3   OH2 2906   4.534   2.425   2.220
  967TIP3    H1 2907   4.453   2.380   2.245
  967TIP3    H2 2908   4.591   2.355   2.189
  968TIP3   OH2 2909   1.254   1.210   4.413
  968TIP3    H1 2910   1.191   1.157   4.364
  968TIP3    H2 2911   1.335   1.202   4.363
  969TIP3   OH2 2912   0.397   0.650   0.418
  969TIP3    H1 2913   0.339   0.640   0.343
  969TIP3    H2 2914   0.426   0.561   0.438
  970TIP3   OH2 2915   1.394   2.291   4.243
  970TIP3    H1 2916   1.424   2.228   4.308
  970TIP3    H2 2917   1.317   2.332   4.283
  971TIP3   OH2 2918   4.735   4.422   2.284
  971TIP3    H1 2919   4.694   4.336   2.271
  971TIP3    H2 2920   4.765   4.447   2.197
  972TIP3   OH2 2921   3.482   5.914   0.100
  972TIP3    H1 2922   3.413   5.971   0.066
  972TIP3    H2 2923   3.509   5.863   0.023
  973TIP3   OH2 2924   5.704   1.453   3.288
  973TIP3    H1 2925   5.758   1.391   3.240
  973TIP3    H2 2926   5.763   1.527   3.304
  974TIP3   OH2 2927   1.146   5.310   4.376
  974TIP3    H1 2928   1.212   5.276   4.316
  974TIP3    H2 2929   1.070   5.327   4.321
  975TIP3   OH2 2930   5.164   5.405   0.539
  975TIP3    H1 2931   5.081   5.453   0.549
  975TIP3    H2 2932   5.138   5.313   0.545
  976TIP3   OH2 2933   5.335   0.311   2.079
  976TIP3    H1 2934   5.413   0.352   2.040
  976TIP3    H2 2935   5.365   0.226   2.109
  977TIP3   OH2 2936   3.869   0.513   2.120
  977TIP3    H1 2937   3.917   0.586   2.161
  977TIP3    H2 2938   3.869   0.445   2.187
  978TIP3   OH2 2939   0.194   3.282   2.993
  978TIP3    H1 2940   0.122   3.238   3.037
  978TIP3    H2 2941   0.187   3.373   3.021
  979TIP3   OH2 2942   3.005   2.557   3.440
  979TIP3    H1 2943   3.048   2.588   3.520
  979TIP3    H2 2944   3.009   2.633   3.381
  980TIP3   OH2 2945   4.104   0.298   1.697
  980TIP3    H1 2946   4.022   0.291   1.647
  980TIP3    H2 2947   4.169   0.253   1.642
  981TIP3   OH2 2948   6.094   3.918   1.585
  981TIP3    H1 2949   6.150   3.990   1.614
  981TIP3    H2 2950   6.141   3.880   1.510
  982TIP3   OH2 2951   3.868   2.653   4.828
  982TIP3    H1 2952   3.938   2.648   4.893
  982TIP3    H2 2953   3.822   2.734   4.849
  983TIP3   OH2 2954   2.286   0.620   2.154
  983TIP3    H1 2955   2.288   0.586   2.064
  983TIP3    H2 2956   2.371   0.595   2.191
  984TIP3   OH2 2957   0.064   4.635   3.091
  984TIP3    H1 2958   0.045   4.692   3.165
  984TIP3    H2 2959   0.007   4.666   3.021
  985TIP3   OH2 2960   1.823   5.542   1.843
  985TIP3    H1 2961   1.918   5.547   1.853
  985TIP3    H2 2962   1.789   5.585   1.922
  986TIP3   OH2 2963   1.610   5.085   3.048
  986TIP3    H1 2964   1.699   5.088   3.012
  986TIP3    H2 2965   1.622   5.060   3.139
  987TIP3   OH2 2966   2.981   1.410   1.712
  987TIP3    H1 2967   2.970   1.369   1.626
  987TIP3    H2 2968   3.016   1.340   1.768
  988TIP3   OH2 2969   4.142   3.239   1.774
  988TIP3    H1 2970   4.049   3.223   1.759
  988TIP3    H2 2971   4.164   3.312   1.716
  989TIP3   OH2 2972   2.759   1.744   0.660
  989TIP3    H1 2973   2.828   1.702   0.710
  989TIP3    H2 2974   2.730   1.678   0.597
  990TIP3   OH2 2975   5.394   2.350   4.278
  990TIP3    H1 2976   5.380   2.441   4.251
  990TIP3    H2 2977   5.395   2.353   4.374
  991TIP3   OH2 2978   1.336   3.484   1.884
  991TIP3    H1 2979   1.333   3.578   1.903
  991TIP3    H2 2980   1.415   3.473   1.830
  992TIP3   OH2 2981   0.408   4.588   2.115
  992TIP3    H1 2982   0.316   4.612   2.117
  992TIP3    H2 2983   0.409   4.494   2.095
  993TIP3   OH2 2984   6.205   5.218   2.239
  993TIP3    H1 2985   6.208   5.304   2.195
  993TIP3    H2 2986   6.223   5.237   2.331
  994TIP3   OH2 2987   4.176   4.663   0.453
  994TIP3    H1 2988   4.244   4.694   0.513
  994TIP3    H2 2989   4.156   4.739   0.399
  995TIP3   OH2 2990   0.824   0.939   2.296
  995TIP3    H1 2991   0.796   0.881   2.367
  995TIP3    H2 2992   0.836   0.881   2.221
  996TIP3   OH2 2993   5.241   0.487   3.590
  996TIP3    H1 2994   5.180   0.549   3.551
  996TIP3    H2 2995   5.188   0.436   3.651
  997TIP3   OH2 2996   5.540   0.808   1.971
  997TIP3    H1 2997   5.468   0.804   1.908
  997TIP3    H2 2998   5.531   0.728   2.023
  998TIP3   OH2 2999   1.719   3.148   1.445
  998TIP3    H1 3000   1.631   3.124   1.473
  998TIP3    H2 3001   1.743   3.221   1.502
  999TIP3   OH2 3002   0.187   4.890   3.965
  999TIP3    H1 3003   0.200   4.917   4.056
  999TIP3    H2 3004   0.248   4.817   3.953
 1000TIP3   OH2 3005   3.794   0.195   0.684
 1000TIP3    H1 3006   3.812   0.234   0.599
 1000TIP3    H2 3007   3.700   0.209   0.698
 1001TIP3   OH2 3008   5.964   4.978   3.922
 1001TIP3    H1 3009   5.978   5.068   3.950
 1001TIP3    H2 3010   5.975   4.980   3.827
 1002TIP3   OH2 3011   3.965   2.550   0.422
 1002TIP3    H1 3012   3.981   2.456   0.420
 1002TIP3    H2 3013   3.885   2.562   0.370
 1003TIP3   OH2 3014   5.427   1.599   4.867
 1003TIP3    H1 3015   5.343   1.647   4.863
 1003TIP3    H2 3016   5.473   1.640   4.940
 1004TIP3   OH2 3017   5.423   6.003   4.740
 1004TIP3    H1 3018   5.407   5.912   4.763
 1004TIP3    H2 3019   5.504   6.026   4.785
 1005TIP3   OH2 3020   1.275   3.855   3.383
 1005TIP3    H1 3021   1.245   3.868   3.294
 1005TIP3    H2 3022   1.359   3.901   3.387
 1006TIP3   OH2 3023   3.445   5.391   3.438
 1006TIP3    H1 3024   3.443   5.445   3.359
 1006TIP3    H2 3025   3.361   5.407   3.481
 1007TIP3   OH2 3026   4.562   2.541   1.912
 1007TIP3    H1 3027   4.543   2.582   1.997
 1007TIP3    H2 3028   4.552   2.612   1.849
 1008TIP3   OH2 3029   3.366   5.033   2.248
 1008TIP3    H1 3030   3.414   5.096   2.302
 1008TIP3    H2 3031   3.309   4.986   2.310
 1009TIP3   OH2 3032   3.820   0.325   3.780
 1009TIP3    H1 3033   3.765   0.402   3.787
 1009TIP3    H2 3034   3.909   0.357   3.796
 1010TIP3   OH2 3035   4.528   2.694   2.135
 1010TIP3    H1 3036   4.441   2.727   2.156
 1010TIP3    H2 3037   4.535   2.612   2.184
 1011TIP3   OH2 3038   3.031   5.547   3.222
 1011TIP3    H1 3039   3.047   5.467   3.172
 1011TIP3    H2 3040   2.983   5.518   3.300
 1012TIP3   OH2 3041   5.037   5.795   1.629
 1012TIP3    H1 3042   5.056   5.781   1.536
 1012TIP3    H2 3043   4.946   5.767   1.640
 1013TIP3   OH2 3044   0.651   4.679   2.803
 1013TIP3    H1 3045   0.605   4.675   2.719
 1013TIP3    H2 3046   0.673   4.588   2.823
 1014TIP3   OH2 3047   2.897   0.429   3.619
 1014TIP3    H1 3048   2.867   0.350   3.574
 1014TIP3    H2 3049   2.865   0.501   3.565
 1015TIP3   OH2 3050   0.852   4.522   3.686
 1015TIP3    H1 3051   0.894   4.439   3.661
 1015TIP3    H2 3052   0.886   4.585   3.623
 1016TIP3   OH2 3053   2.351   4.139   2.228
 1016TIP3    H1 3054   2.357   4.088   2.309
 1016TIP3    H2 3055   2.257   4.152   2.214
 1017TIP3   OH2 3056   0.924   2.329   1.061
 1017TIP3    H1 3057   0.891   2.287   1.141
 1017TIP3    H2 3058   0.871   2.291   0.991
 1018TIP3   OH2 3059   4.946   5.291   3.330
 1018TIP3    H1 3060   4.927   5.372   3.377
 1018TIP3    H2 3061   5.029   5.307   3.287
 1019TIP3   OH2 3062   2.289   1.649   3.689
 1019TIP3    H1 3063   2.256   1.651   3.779
 1019TIP3    H2 3064   2.247   1.723   3.646
 1020TIP3   OH2 3065   3.251   3.168   4.012
 1020TIP3    H1 3066   3.179   3.105   4.010
 1020TIP3    H2 3067   3.330   3.114   4.010
 1021TIP3   OH2 3068   5.621   2.713   0.661
 1021TIP3    H1 3069   5.575   2.699   0.578
 1021TIP3    H2 3070   5.598   2.637   0.714
 1022TIP3   OH2 3071   4.598   2.835   4.887
 1022TIP3    H1 3072   4.651   2.802   4.959
 1022TIP3    H2 3073   4.575   2.757   4.836
 1023TIP3   OH2 3074   2.689   2.682   2.818
 1023TIP3    H1 3075   2.628   2.664   2.889
 1023TIP3    H2 3076   2.766   2.627   2.836
 1024TIP3   OH2 3077   5.056   3.892   4.042
 1024TIP3    H1 3078   5.005   3.918   4.118
 1024TIP3    H2 3079   5.144   3.927   4.058
 1025TIP3   OH2 3080  -0.064   4.050   3.287
 1025TIP3    H1 3081   0.013   4.105   3.302
 1025TIP3    H2 3082  -0.086   4.064   3.195
 1026TIP3   OH2 3083   4.577   0.785   0.924
 1026TIP3    H1 3084   4.492   0.781   0.879
 1026TIP3    H2 3085   4.578   0.871   0.966
 1027TIP3   OH2 3086   3.493   0.939   3.529
 1027TIP3    H1 3087   3.398   0.946   3.516
 1027TIP3    H2 3088   3.524   1.029   3.516
 1028TIP3   OH2 3089   0.605   1.731   3.418
 1028TIP3    H1 3090   0.650   1.702   3.339
 1028TIP3    H2 3091   0.673   1.733   3.485
 1029TIP3   OH2 3092   4.854   4.044   0.357
 1029TIP3    H1 3093   4.821   3.974   0.300
 1029TIP3    H2 3094   4.845   4.123   0.304
 1030TIP3   OH2 3095   3.567   0.532   4.248
 1030TIP3    H1 3096   3.518   0.458   4.213
 1030TIP3    H2 3097   3.501   0.598   4.267
 1031TIP3   OH2 3098   0.644   5.625   3.458
 1031TIP3    H1 3099   0.688   5.579   3.385
 1031TIP3    H2 3100   0.674   5.579   3.536
 1032TIP3   OH2 3101   0.623   1.938   3.842
 1032TIP3    H1 3102   0.638   1.851   3.806
 1032TIP3    H2 3103   0.619   1.924   3.937
 1033TIP3   OH2 3104   6.061   4.923   3.145
 1033TIP3    H1 3105   6.053   4.906   3.052
 1033TIP3    H2 3106   5.978   4.894   3.182
 1034TIP3   OH2 3107   5.604   4.338   0.621
 1034TIP3    H1 3108   5.662   4.356   0.695
 1034TIP3    H2 3109   5.611   4.243   0.609
 1035TIP3   OH2 3110   3.878   0.856   1.911
 1035TIP3    H1 3111   3.950   0.828   1.968
 1035TIP3    H2 3112   3.879   0.793   1.839
 1036TIP3   OH2 3113   5.538   5.239   4.889
 1036TIP3    H1 3114   5.481   5.215   4.817
 1036TIP3    H2 3115   5.555   5.157   4.935
 1037TIP3   OH2 3116   0.209   2.325   0.310
 1037TIP3    H1 3117   0.276   2.389   0.285
 1037TIP3    H2 3118   0.156   2.370   0.375
 1038TIP3   OH2 3119   4.202  -0.033   0.861
 1038TIP3    H1 3120   4.245   0.050   0.839
 1038TIP3    H2 3121   4.128  -0.039   0.800
 1039TIP3   OH2 3122   3.099   0.430   2.677
 1039TIP3    H1 3123   3.118   0.339   2.656
 1039TIP3    H2 3124   3.022   0.452   2.625
 1040TIP3   OH2 3125   3.950   4.120   1.204
 1040TIP3    H1 3126   3.910   4.136   1.119
 1040TIP3    H2 3127   3.895   4.166   1.267
 1041TIP3   OH2 3128   0.847   4.863   5.018
 1041TIP3    H1 3129   0.849   4.777   5.060
 1041TIP3    H2 3130   0.767   4.862   4.966
 1042TIP3   OH2 3131   5.954   2.142   3.465
 1042TIP3    H1 3132   5.956   2.052   3.433
 1042TIP3    H2 3133   5.922   2.135   3.555
 1043TIP3   OH2 3134   0.106   5.952   2.737
 1043TIP3    H1 3135   0.090   5.861   2.709
 1043TIP3    H2 3136   0.026   5.976   2.785
 1044TIP3   OH2 3137   0.184   0.404   1.282
 1044TIP3    H1 3138   0.150   0.395   1.371
 1044TIP3    H2 3139   0.131   0.345   1.229
 1045TIP3   OH2 3140   3.474   1.134   0.803
 1045TIP3    H1 3141   3.384   1.106   0.822
 1045TIP3    H2 3142   3.466   1.188   0.725
 1046TIP3   OH2 3143   0.033   1.197   4.256
 1046TIP3    H1 3144   0.067   1.223   4.342
 1046TIP3    H2 3145   0.044   1.275   4.201
 1047TIP3   OH2 3146   5.476   4.792   2.394
 1047TIP3    H1 3147   5.534   4.868   2.402
 1047TIP3    H2 3148   5.507   4.746   2.317
 1048TIP3   OH2 3149   3.801   4.142   0.980
 1048TIP3    H1 3150   3.794   4.160   0.887
 1048TIP3    H2 3151   3.740   4.070   0.995
 1049TIP3   OH2 3152   0.025   2.654   3.545
 1049TIP3    H1 3153   0.116   2.675   3.564
 1049TIP3    H2 3154   0.021   2.558   3.549
 1050TIP3   OH2 3155   1.407   5.646   4.444
 1050TIP3    H1 3156   1.344   5.717   4.444
 1050TIP3    H2 3157   1.373   5.583   4.507
 1051TIP3   OH2 3158   0.048   1.280   3.124
 1051TIP3    H1 3159  -0.022   1.220   3.149
 1051TIP3    H2 3160   0.083   1.243   3.042
 1052TIP3   OH2 3161   5.225   5.531   4.869
 1052TIP3    H1 3162   5.222   5.441   4.838
 1052TIP3    H2 3163   5.137   5.548   4.903
 1053TIP3   OH2 3164   5.079   5.140   0.586
 1053TIP3    H1 3165   5.112   5.083   0.517
 1053TIP3    H2 3166   4.994   5.170   0.554
 1054TIP3   OH2 3167   1.595   1.611   4.952
 1054TIP3    H1 3168   1.549   1.557   5.017
 1054TIP3    H2 3169   1.688   1.587   4.962
 1055TIP3   OH2 3170   1.222   1.933   4.411
 1055TIP3    H1 3171   1.282   2.007   4.423
 1055TIP3    H2 3172   1.256   1.888   4.333
 1056TIP3   OH2 3173   1.395   1.520   1.256
 1056TIP3    H1 3174   1.422   1.430   1.276
 1056TIP3    H2 3175   1.430   1.537   1.169
 1057TIP3   OH2 3176   2.244   2.114   0.758
 1057TIP3    H1 3177   2.261   2.081   0.670
 1057TIP3    H2 3178   2.187   2.189   0.745
 1058TIP3   OH2 3179   1.328   4.344   2.225
 1058TIP3    H1 3180   1.300   4.374   2.138
 1058TIP3    H2 3181   1.403   4.287   2.208
 1059TIP3   OH2 3182   1.334   1.565   1.690
 1059TIP3    H1 3183   1.305   1.623   1.761
 1059TIP3    H2 3184   1.381   1.494   1.734
 1060TIP3   OH2 3185   6.263   1.022   2.961
 1060TIP3    H1 3186   6.287   0.929   2.959
 1060TIP3    H2 3187   6.275   1.052   2.871
 1061TIP3   OH2 3188   4.931   0.789   1.622
 1061TIP3    H1 3189   4.966   0.780   1.534
 1061TIP3    H2 3190   5.007   0.810   1.677
 1062TIP3   OH2 3191   1.448   3.154   2.584
 1062TIP3    H1 3192   1.475   3.063   2.580
 1062TIP3    H2 3193   1.458   3.179   2.676
 1063TIP3   OH2 3194   3.032   3.178   2.813
 1063TIP3    H1 3195   3.119   3.141   2.795
 1063TIP3    H2 3196   2.971   3.119   2.770
 1064TIP3   OH2 3197   5.169   2.497   2.445
 1064TIP3    H1 3198   5.212   2.509   2.529
 1064TIP3    H2 3199   5.233   2.451   2.391
 1065TIP3   OH2 3200   6.361   2.553   2.551
 1065TIP3    H1 3201   6.451   2.522   2.554
 1065TIP3    H2 3202   6.334   2.557   2.643
 1066TIP3   OH2 3203   3.579   4.648   1.677
 1066TIP3    H1 3204   3.652   4.678   1.622
 1066TIP3    H2 3205   3.534   4.583   1.624
 1067TIP3   OH2 3206   5.982   1.565   2.846
 1067TIP3    H1 3207   5.891   1.585   2.822
 1067TIP3    H2 3208   5.975   1.531   2.936
 1068TIP3   OH2 3209   0.650   0.439   1.791
 1068TIP3    H1 3210   0.677   0.503   1.858
 1068TIP3    H2 3211   0.646   0.356   1.839
 1069TIP3   OH2 3212   3.460   5.961   2.218
 1069TIP3    H1 3213   3.463   5.866   2.229
 1069TIP3    H2 3214   3.436   5.995   2.304
 1070TIP3   OH2 3215   3.457   0.735   3.886
 1070TIP3    H1 3216   3.387   0.707   3.944
 1070TIP3    H2 3217   3.437   0.826   3.866
 1071TIP3   OH2 3218   3.917   5.520   0.937
 1071TIP3    H1 3219   3.924   5.428   0.962
 1071TIP3    H2 3220   3.969   5.528   0.857
 1072TIP3   OH2 3221   0.275   3.031   0.104
 1072TIP3    H1 3222   0.314   2.997   0.023
 1072TIP3    H2 3223   0.349   3.041   0.164
 1073TIP3   OH2 3224   5.129   4.274   4.050
 1073TIP3    H1 3225   5.166   4.326   4.122
 1073TIP3    H2 3226   5.035   4.287   4.057
 1074TIP3   OH2 3227   3.231   5.671   1.382
 1074TIP3    H1 3228   3.264   5.760   1.394
 1074TIP3    H2 3229   3.308   5.615   1.387
 1075TIP3   OH2 3230   1.765   2.487   0.974
 1075TIP3    H1 3231   1.742   2.516   1.063
 1075TIP3    H2 3232   1.760   2.566   0.921
 1076TIP3   OH2 3233   2.198   0.061   4.588
 1076TIP3    H1 3234   2.286   0.099   4.592
 1076TIP3    H2 3235   2.145   0.129   4.546
 1077TIP3   OH2 3236   2.362   0.347   5.060
 1077TIP3    H1 3237   2.450   0.310   5.058
 1077TIP3    H2 3238   2.375   0.440   5.043
 1078TIP3   OH2 3239   1.724   0.798   5.028
 1078TIP3    H1 3240   1.695   0.886   5.004
 1078TIP3    H2 3241   1.813   0.809   5.060
 1079TIP3   OH2 3242   0.620   2.577   1.252
 1079TIP3    H1 3243   0.711   2.560   1.279
 1079TIP3    H2 3244   0.622   2.667   1.218
 1080TIP3   OH2 3245   2.673   0.922   3.259
 1080TIP3    H1 3246   2.692   0.942   3.168
 1080TIP3    H2 3247   2.746   0.961   3.308
 1081TIP3   OH2 3248   5.106   3.846   1.257
 1081TIP3    H1 3249   5.131   3.911   1.322
 1081TIP3    H2 3250   5.054   3.895   1.192
 1082TIP3   OH2 3251   0.180   5.971   3.373
 1082TIP3    H1 3252   0.166   5.885   3.333
 1082TIP3    H2 3253   0.154   5.960   3.464
 1083TIP3   OH2 3254   4.637   5.600   2.327
 1083TIP3    H1 3255   4.613   5.607   2.419
 1083TIP3    H2 3256   4.605   5.514   2.300
 1084TIP3   OH2 3257   4.975   4.662   5.131
 1084TIP3    H1 3258   4.896   4.653   5.184
 1084TIP3    H2 3259   5.012   4.747   5.157
 1085TIP3   OH2 3260   2.008   5.622   4.247
 1085TIP3    H1 3261   2.017   5.582   4.333
 1085TIP3    H2 3262   2.036   5.555   4.185
 1086TIP3   OH2 3263   4.755   0.397   4.052
 1086TIP3    H1 3264   4.846   0.409   4.080
 1086TIP3    H2 3265   4.720   0.332   4.113
 1087TIP3   OH2 3266   4.266   5.531   1.562
 1087TIP3    H1 3267   4.301   5.451   1.523
 1087TIP3    H2 3268   4.329   5.599   1.536
 1088TIP3   OH2 3269   1.924   4.991   3.794
 1088TIP3    H1 3270   1.852   4.962   3.737
 1088TIP3    H2 3271   1.928   4.925   3.862
 1089TIP3   OH2 3272   3.450   4.323   5.118
 1089TIP3    H1 3273   3.361   4.298   5.096
 1089TIP3    H2 3274   3.464   4.286   5.205
 1090TIP3   OH2 3275   0.225   1.396   0.547
 1090TIP3    H1 3276   0.153   1.394   0.611
 1090TIP3    H2 3277   0.303   1.372   0.598
 1091TIP3   OH2 3278   2.747   5.391   4.068
 1091TIP3    H1 3279   2.673   5.399   4.008
 1091TIP3    H2 3280   2.707   5.358   4.149
 1092TIP3   OH2 3281   5.249   0.106   3.626
 1092TIP3    H1 3282   5.194   0.034   3.596
 1092TIP3    H2 3283   5.188   0.173   3.655
 1093TIP3   OH2 3284   5.825   0.306   1.711
 1093TIP3    H1 3285   5.877   0.380   1.679
 1093TIP3    H2 3286   5.767   0.344   1.777
 1094TIP3   OH2 3287   3.419   0.779   3.293
 1094TIP3    H1 3288   3.422   0.842   3.365
 1094TIP3    H2 3289   3.381   0.828   3.220
 1095TIP3   OH2 3290   2.489   5.373   4.518
 1095TIP3    H1 3291   2.451   5.400   4.435
 1095TIP3    H2 3292   2.458   5.439   4.581
 1096TIP3   OH2 3293   2.261   5.505   4.375
 1096TIP3    H1 3294   2.182   5.467   4.414
 1096TIP3    H2 3295   2.279   5.582   4.429
 1097TIP3   OH2 3296   2.135   5.883   1.365
 1097TIP3    H1 3297   2.122   5.789   1.351
 1097TIP3    H2 3298   2.230   5.893   1.373
 1098TIP3   OH2 3299   0.740   4.627   5.100
 1098TIP3    H1 3300   0.732   4.656   5.191
 1098TIP3    H2 3301   0.677   4.555   5.092
 1099TIP3   OH2 3302   0.496   0.358   4.079
 1099TIP3    H1 3303   0.461   0.304   4.150
 1099TIP3    H2 3304   0.438   0.342   4.005
 1100TIP3   OH2 3305   6.088   6.030   1.737
 1100TIP3    H1 3306   6.128   5.958   1.690
 1100TIP3    H2 3307   6.152   6.054   1.804
 1101TIP3   OH2 3308   2.300   5.068   1.035
 1101TIP3    H1 3309   2.213   5.042   1.006
 1101TIP3    H2 3310   2.305   5.039   1.126
 1102TIP3   OH2 3311   4.133   1.509   0.066
 1102TIP3    H1 3312   4.166   1.473   0.149
 1102TIP3    H2 3313   4.082   1.586   0.092
 1103TIP3   OH2 3314   2.367   3.081   1.565
 1103TIP3    H1 3315   2.302   3.052   1.629
 1103TIP3    H2 3316   2.353   3.024   1.489
 1104TIP3   OH2 3317   1.053   0.096   2.927
 1104TIP3    H1 3318   0.989   0.158   2.960
 1104TIP3    H2 3319   1.021   0.010   2.954
 1105TIP3   OH2 3320   4.948   0.450   4.258
 1105TIP3    H1 3321   4.990   0.435   4.343
 1105TIP3    H2 3322   4.879   0.513   4.277
 1106TIP3   OH2 3323   1.684   0.458   4.285
 1106TIP3    H1 3324   1.691   0.437   4.192
 1106TIP3    H2 3325   1.591   0.474   4.300
 1107TIP3   OH2 3326   5.960   0.732   4.122
 1107TIP3    H1 3327   5.886   0.786   4.149
 1107TIP3    H2 3328   6.018   0.732   4.198
 1108TIP3   OH2 3329   4.856   2.576   2.020
 1108TIP3    H1 3330   4.906   2.503   1.984
 1108TIP3    H2 3331   4.769   2.569   1.980
 1109TIP3   OH2 3332   1.910   0.038   3.821
 1109TIP3    H1 3333   2.001   0.017   3.842
 1109TIP3    H2 3334   1.878  -0.037   3.771
 1110TIP3   OH2 3335   0.603   4.936   4.814
 1110TIP3    H1 3336   0.510   4.951   4.829
 1110TIP3    H2 3337   0.613   4.938   4.719
 1111TIP3   OH2 3338   0.509   4.573   0.287
 1111TIP3    H1 3339   0.486   4.569   0.379
 1111TIP3    H2 3340   0.594   4.616   0.285
 1112TIP3   OH2 3341   3.765   3.698   1.096
 1112TIP3    H1 3342   3.847   3.654   1.119
 1112TIP3    H2 3343   3.744   3.750   1.173
 1113TIP3   OH2 3344   4.368   1.097   4.094
 1113TIP3    H1 3345   4.318   1.020   4.067
 1113TIP3    H2 3346   4.419   1.068   4.169
 1114TIP3   OH2 3347   6.033   4.661   4.184
 1114TIP3    H1 3348   6.066   4.611   4.258
 1114TIP3    H2 3349   6.012   4.595   4.117
 1115TIP3   OH2 3350   2.906   1.598   0.839
 1115TIP3    H1 3351   2.948   1.678   0.871
 1115TIP3    H2 3352   2.953   1.527   0.883
 1116TIP3   OH2 3353   4.271   0.992   1.463
 1116TIP3    H1 3354   4.270   1.080   1.502
 1116TIP3    H2 3355   4.188   0.953   1.491
 1117TIP3   OH2 3356   4.296   3.959   1.017
 1117TIP3    H1 3357   4.247   4.012   0.955
 1117TIP3    H2 3358   4.325   4.022   1.084
 1118TIP3   OH2 3359   0.797   3.101   3.577
 1118TIP3    H1 3360   0.870   3.142   3.623
 1118TIP3    H2 3361   0.831   3.017   3.546
 1119TIP3   OH2 3362   1.811   2.951   2.804
 1119TIP3    H1 3363   1.830   3.040   2.834
 1119TIP3    H2 3364   1.717   2.951   2.787
 1120TIP3   OH2 3365   4.580   4.286   5.140
 1120TIP3    H1 3366   4.551   4.309   5.052
 1120TIP3    H2 3367   4.622   4.201   5.130
 1121TIP3   OH2 3368   2.984   5.022   4.800
 1121TIP3    H1 3369   3.071   4.991   4.773
 1121TIP3    H2 3370   2.957   5.082   4.730
 1122TIP3   OH2 3371   1.179   3.592   4.672
 1122TIP3    H1 3372   1.107   3.638   4.629
 1122TIP3    H2 3373   1.141   3.560   4.753
 1123TIP3   OH2 3374   1.607   3.474   2.948
 1123TIP3    H1 3375   1.693   3.432   2.938
 1123TIP3    H2 3376   1.596   3.483   3.043
 1124TIP3   OH2 3377   1.253   2.519   1.185
 1124TIP3    H1 3378   1.181   2.552   1.131
 1124TIP3    H2 3379   1.266   2.429   1.155
 1125TIP3   OH2 3380   3.880   1.930   5.091
 1125TIP3    H1 3381   3.888   1.835   5.090
 1125TIP3    H2 3382   3.865   1.953   5.183
 1126TIP3   OH2 3383   0.085   1.956   5.099
 1126TIP3    H1 3384   0.041   1.947   5.014
 1126TIP3    H2 3385   0.038   2.028   5.142
 1127TIP3   OH2 3386   6.130   2.311   4.182
 1127TIP3    H1 3387   6.126   2.249   4.255
 1127TIP3    H2 3388   6.039   2.316   4.151
 1128TIP3   OH2 3389   2.658   5.211   3.238
 1128TIP3    H1 3390   2.639   5.275   3.307
 1128TIP3    H2 3391   2.752   5.195   3.245
 1129TIP3   OH2 3392   5.770   3.255   4.798
 1129TIP3    H1 3393   5.775   3.237   4.704
 1129TIP3    H2 3394   5.738   3.174   4.837
 1130TIP3   OH2 3395   2.578   0.845   4.780
 1130TIP3    H1 3396   2.562   0.751   4.789
 1130TIP3    H2 3397   2.492   0.882   4.761
 1131TIP3   OH2 3398   5.254   5.380   3.548
 1131TIP3    H1 3399   5.310   5.457   3.553
 1131TIP3    H2 3400   5.190   5.392   3.618
 1132TIP3   OH2 3401   4.049   0.460   1.918
 1132TIP3    H1 3402   4.064   0.397   1.848
 1132TIP3    H2 3403   3.980   0.420   1.972
 1133TIP3   OH2 3404   3.228   3.861   2.694
 1133TIP3    H1 3405   3.251   3.799   2.626
 1133TIP3    H2 3406   3.188   3.935   2.647
 1134TIP3   OH2 3407   3.250   2.527   1.797
 1134TIP3    H1 3408   3.243   2.536   1.702
 1134TIP3    H2 3409   3.339   2.556   1.818
 1135TIP3   OH2 3410   2.747   0.946   2.631
 1135TIP3    H1 3411   2.653   0.952   2.647
 1135TIP3    H2 3412   2.767   1.024   2.578
 1136TIP3   OH2 3413   2.187   4.660   2.960
 1136TIP3    H1 3414   2.193   4.687   2.869
 1136TIP3    H2 3415   2.278   4.656   2.989
 1137TIP3   OH2 3416   4.671   5.726   4.648
 1137TIP3    H1 3417   4.619   5.712   4.727
 1137TIP3    H2 3418   4.640   5.810   4.614
 1138TIP3   OH2 3419   4.647   3.103   1.311
 1138TIP3    H1 3420   4.553   3.092   1.297
 1138TIP3    H2 3421   4.677   3.154   1.236
 1139TIP3   OH2 3422   5.192   0.834   2.129
 1139TIP3    H1 3423   5.225   0.804   2.214
 1139TIP3    H2 3424   5.182   0.753   2.078
 1140TIP3   OH2 3425   2.052   0.921   3.790
 1140TIP3    H1 3426   2.096   0.972   3.722
 1140TIP3    H2 3427   2.097   0.837   3.789
 1141TIP3   OH2 3428   3.343   6.055   1.977
 1141TIP3    H1 3429   3.372   5.990   1.913
 1141TIP3    H2 3430   3.400   6.041   2.053
 1142TIP3   OH2 3431   4.444   5.843   2.800
 1142TIP3    H1 3432   4.393   5.788   2.740
 1142TIP3    H2 3433   4.535   5.828   2.775
 1143TIP3   OH2 3434   4.768   3.733   2.299
 1143TIP3    H1 3435   4.751   3.645   2.334
 1143TIP3    H2 3436   4.685   3.759   2.259
 1144TIP3   OH2 3437   2.512   4.800   4.442
 1144TIP3    H1 3438   2.547   4.802   4.531
 1144TIP3    H2 3439   2.567   4.736   4.396
 1145TIP3   OH2 3440   4.375   4.123   1.932
 1145TIP3    H1 3441   4.349   4.100   1.843
 1145TIP3    H2 3442   4.343   4.050   1.985
 1146TIP3   OH2 3443   5.772   5.682   4.395
 1146TIP3    H1 3444   5.846   5.688   4.335
 1146TIP3    H2 3445   5.703   5.734   4.353
 1147TIP3   OH2 3446   3.332   0.215   4.760
 1147TIP3    H1 3447   3.359   0.250   4.675
 1147TIP3    H2 3448   3.338   0.289   4.819
 1148TIP3   OH2 3449   0.657   1.519   4.069
 1148TIP3    H1 3450   0.657   1.509   4.164
 1148TIP3    H2 3451   0.565   1.511   4.044
 1149TIP3   OH2 3452   4.258   5.904   1.386
 1149TIP3    H1 3453   4.228   5.995   1.390
 1149TIP3    H2 3454   4.182   5.852   1.410
 1150TIP3   OH2 3455   4.537   1.743   3.294
 1150TIP3    H1 3456   4.503   1.719   3.380
 1150TIP3    H2 3457   4.481   1.697   3.232
 1151TIP3   OH2 3458   3.494   2.575   0.810
 1151TIP3    H1 3459   3.553   2.647   0.786
 1151TIP3    H2 3460   3.444   2.558   0.730
 1152TIP3   OH2 3461   4.368   0.001   4.531
 1152TIP3    H1 3462   4.307  -0.010   4.458
 1152TIP3    H2 3463   4.440  -0.059   4.511
 1153TIP3   OH2 3464   6.340   3.494   2.523
 1153TIP3    H1 3465   6.361   3.547   2.601
 1153TIP3    H2 3466   6.396   3.417   2.531
 1154TIP3   OH2 3467   2.345   4.415   1.585
 1154TIP3    H1 3468   2.317   4.324   1.592
 1154TIP3    H2 3469   2.420   4.413   1.526
 1155TIP3   OH2 3470   3.288   3.990   0.276
 1155TIP3    H1 3471   3.366   3.938   0.257
 1155TIP3    H2 3472   3.302   4.022   0.365
 1156TIP3   OH2 3473   5.833   2.746   0.484
 1156TIP3    H1 3474   5.856   2.837   0.467
 1156TIP3    H2 3475   5.758   2.750   0.543
 1157TIP3   OH2 3476   0.095   5.463   2.261
 1157TIP3    H1 3477   0.025   5.489   2.201
 1157TIP3    H2 3478   0.146   5.398   2.212
 1158TIP3   OH2 3479   0.813   4.928   3.962
 1158TIP3    H1 3480   0.765   4.972   3.892
 1158TIP3    H2 3481   0.886   4.987   3.980
 1159TIP3   OH2 3482   0.798   1.566   1.304
 1159TIP3    H1 3483   0.710   1.603   1.297
 1159TIP3    H2 3484   0.856   1.640   1.285
 1160TIP3   OH2 3485   2.733   1.943   3.824
 1160TIP3    H1 3486   2.751   1.907   3.737
 1160TIP3    H2 3487   2.651   1.990   3.813
 1161TIP3   OH2 3488   3.658   5.136   4.428
 1161TIP3    H1 3489   3.714   5.140   4.350
 1161TIP3    H2 3490   3.710   5.087   4.492
 1162TIP3   OH2 3491   4.060   5.507   0.691
 1162TIP3    H1 3492   4.083   5.481   0.602
 1162TIP3    H2 3493   4.144   5.520   0.735
 1163TIP3   OH2 3494   5.446   0.449   3.095
 1163TIP3    H1 3495   5.387   0.471   3.167
 1163TIP3    H2 3496   5.473   0.359   3.113
 1164TIP3   OH2 3497   5.965   3.437   1.582
 1164TIP3    H1 3498   6.051   3.415   1.619
 1164TIP3    H2 3499   5.905   3.375   1.623
 1165TIP3   OH2 3500   4.313   2.843   1.289
 1165TIP3    H1 3501   4.343   2.880   1.373
 1165TIP3    H2 3502   4.228   2.804   1.309
 1166TIP3   OH2 3503   5.433   4.314   3.307
 1166TIP3    H1 3504   5.457   4.357   3.389
 1166TIP3    H2 3505   5.343   4.341   3.291
 1167TIP3   OH2 3506   2.499   3.830   3.348
 1167TIP3    H1 3507   2.484   3.852   3.440
 1167TIP3    H2 3508   2.576   3.880   3.323
 1168TIP3   OH2 3509   6.207   1.011   0.114
 1168TIP3    H1 3510   6.221   0.995   0.020
 1168TIP3    H2 3511   6.263   0.947   0.157
 1169TIP3   OH2 3512   2.283   0.105   3.130
 1169TIP3    H1 3513   2.304   0.074   3.219
 1169TIP3    H2 3514   2.271   0.025   3.079
 1170TIP3   OH2 3515   4.430   0.045   0.565
 1170TIP3    H1 3516   4.343   0.062   0.527
 1170TIP3    H2 3517   4.437   0.108   0.636
 1171TIP3   OH2 3518   2.265   4.050   2.980
 1171TIP3    H1 3519   2.224   4.136   2.985
 1171TIP3    H2 3520   2.318   4.053   2.900
 1172TIP3   OH2 3521   2.759   2.489   3.278
 1172TIP3    H1 3522   2.836   2.489   3.335
 1172TIP3    H2 3523   2.793   2.469   3.191
 1173TIP3   OH2 3524   0.299   4.017   2.051
 1173TIP3    H1 3525   0.347   3.940   2.021
 1173TIP3    H2 3526   0.227   3.980   2.103
 1174TIP3   OH2 3527   0.256   0.184   0.050
 1174TIP3    H1 3528   0.215   0.160  -0.033
 1174TIP3    H2 3529   0.308   0.108   0.074
 1175TIP3   OH2 3530   4.571   2.202   3.765
 1175TIP3    H1 3531   4.491   2.166   3.805
 1175TIP3    H2 3532   4.545   2.224   3.676
 1176TIP3   OH2 3533   6.335   0.953   4.519
 1176TIP3    H1 3534   6.385   0.887   4.567
 1176TIP3    H2 3535   6.253   0.961   4.568
 1177TIP3   OH2 3536   5.745   4.227   1.948
 1177TIP3    H1 3537   5.788   4.232   1.863
 1177TIP3    H2 3538   5.805   4.270   2.008
 1178TIP3   OH2 3539   5.029   4.884   1.752
 1178TIP3    H1 3540   5.070   4.918   1.673
 1178TIP3    H2 3541   4.968   4.817   1.721
 1179TIP3   OH2 3542   0.299   2.684   0.327
 1179TIP3    H1 3543   0.350   2.624   0.383
 1179TIP3    H2 3544   0.343   2.681   0.243
 1180TIP3   OH2 3545   2.532   1.900   3.505
 1180TIP3    H1 3546   2.579   1.983   3.495
 1180TIP3    H2 3547   2.493   1.884   3.419
 1181TIP3   OH2 3548   4.425   0.928   5.126
 1181TIP3    H1 3549   4.340   0.927   5.082
 1181TIP3    H2 3550   4.446   1.021   5.136
 1182TIP3   OH2 3551   0.068   3.380   1.178
 1182TIP3    H1 3552   0.120   3.378   1.258
 1182TIP3    H2 3553   0.125   3.421   1.113
 1183TIP3   OH2 3554   1.383   5.704   0.791
 1183TIP3    H1 3555   1.338   5.750   0.720
 1183TIP3    H2 3556   1.339   5.733   0.871
 1184TIP3   OH2 3557   5.085   3.283   2.407
 1184TIP3    H1 3558   5.161   3.338   2.387
 1184TIP3    H2 3559   5.117   3.221   2.473
 1185TIP3   OH2 3560   2.442   4.214   0.877
 1185TIP3    H1 3561   2.487   4.271   0.939
 1185TIP3    H2 3562   2.363   4.262   0.852
 1186TIP3   OH2 3563   2.766   5.830   2.873
 1186TIP3    H1 3564   2.749   5.780   2.952
 1186TIP3    H2 3565   2.795   5.915   2.904
 1187TIP3   OH2 3566   5.944   0.761   4.939
 1187TIP3    H1 3567   5.898   0.698   4.995
 1187TIP3    H2 3568   5.883   0.777   4.867
 1188TIP3   OH2 3569   4.182   1.869   0.457
 1188TIP3    H1 3570   4.219   1.957   0.466
 1188TIP3    H2 3571   4.095   1.882   0.422
 1189TIP3   OH2 3572   4.396   1.722   1.298
 1189TIP3    H1 3573   4.470   1.764   1.255
 1189TIP3    H2 3574   4.332   1.708   1.229
 1190TIP3   OH2 3575   5.334   0.603   1.428
 1190TIP3    H1 3576   5.404   0.571   1.484
 1190TIP3    H2 3577   5.376   0.618   1.343
 1191TIP3   OH2 3578   3.476   4.364   1.794
 1191TIP3    H1 3579   3.497   4.275   1.764
 1191TIP3    H2 3580   3.418   4.398   1.725
 1192TIP3   OH2 3581   3.894   1.010   0.909
 1192TIP3    H1 3582   3.841   1.050   0.840
 1192TIP3    H2 3583   3.839   1.014   0.987
 1193TIP3   OH2 3584   1.714   5.026   4.075
 1193TIP3    H1 3585   1.646   5.075   4.122
 1193TIP3    H2 3586   1.691   5.036   3.983
 1194TIP3   OH2 3587   1.571   0.588   2.123
 1194TIP3    H1 3588   1.498   0.531   2.098
 1194TIP3    H2 3589   1.636   0.574   2.054
 1195TIP3   OH2 3590   5.212   0.195   0.162
 1195TIP3    H1 3591   5.278   0.200   0.231
 1195TIP3    H2 3592   5.139   0.147   0.202
 1196TIP3   OH2 3593   4.239   1.159   4.940
 1196TIP3    H1 3594   4.195   1.114   5.012
 1196TIP3    H2 3595   4.230   1.101   4.865
 1197TIP3   OH2 3596   1.918   1.446   4.354
 1197TIP3    H1 3597   1.925   1.528   4.402
 1197TIP3    H2 3598   1.840   1.404   4.391
 1198TIP3   OH2 3599   0.494   3.547   5.069
 1198TIP3    H1 3600   0.489   3.601   4.991
 1198TIP3    H2 3601   0.585   3.519   5.073
 1199TIP3   OH2 3602   6.301   3.161   4.825
 1199TIP3    H1 3603   6.258   3.109   4.757
 1199TIP3    H2 3604   6.232   3.220   4.855
 1200TIP3   OH2 3605   5.472   4.964   0.390
 1200TIP3    H1 3606   5.470   5.045   0.340
 1200TIP3    H2 3607   5.557   4.926   0.371
 1201TIP3   OH2 3608   3.583   1.627   3.959
 1201TIP3    H1 3609   3.519   1.556   3.951
 1201TIP3    H2 3610   3.535   1.699   3.999
 1202TIP3   OH2 3611   5.317   1.428  -0.024
 1202TIP3    H1 3612   5.301   1.493   0.045
 1202TIP3    H2 3613   5.229   1.401  -0.051
 1203TIP3   OH2 3614   5.494   0.132   4.182
 1203TIP3    H1 3615   5.513   0.060   4.241
 1203TIP3    H2 3616   5.544   0.113   4.103
 1204TIP3   OH2 3617   5.003   2.932   2.101
 1204TIP3    H1 3618   4.942   2.943   2.029
 1204TIP3    H2 3619   5.006   2.837   2.115
 1205TIP3   OH2 3620   4.963   5.505   1.525
 1205TIP3    H1 3621   4.916   5.424   1.504
 1205TIP3    H2 3622   4.908   5.548   1.590
 1206TIP3   OH2 3623   3.310   4.829   2.847
 1206TIP3    H1 3624   3.323   4.828   2.941
 1206TIP3    H2 3625   3.316   4.922   2.823
 1207TIP3   OH2 3626   2.074   0.224   3.515
 1207TIP3    H1 3627   2.034   0.139   3.496
 1207TIP3    H2 3628   2.077   0.269   3.431
 1208TIP3   OH2 3629   5.026   4.360   1.580
 1208TIP3    H1 3630   5.075   4.405   1.649
 1208TIP3    H2 3631   5.035   4.416   1.503
 1209TIP3   OH2 3632   6.053   5.789   2.255
 1209TIP3    H1 3633   5.990   5.768   2.186
 1209TIP3    H2 3634   6.022   5.871   2.292
 1210TIP3   OH2 3635   2.416   0.533   2.709
 1210TIP3    H1 3636   2.323   0.550   2.696
 1210TIP3    H2 3637   2.432   0.559   2.800
 1211TIP3   OH2 3638   4.756   0.906   4.686
 1211TIP3    H1 3639   4.766   0.998   4.709
 1211TIP3    H2 3640   4.784   0.858   4.764
 1212TIP3   OH2 3641   1.688   2.041   1.580
 1212TIP3    H1 3642   1.767   1.990   1.566
 1212TIP3    H2 3643   1.621   1.977   1.601
 1213TIP3   OH2 3644   6.057   3.846   3.722
 1213TIP3    H1 3645   6.127   3.875   3.664
 1213TIP3    H2 3646   5.977   3.881   3.682
 1214TIP3   OH2 3647   1.181   3.061   0.636
 1214TIP3    H1 3648   1.118   3.061   0.708
 1214TIP3    H2 3649   1.216   2.972   0.634
 1215TIP3   OH2 3650   3.158   0.734   4.426
 1215TIP3    H1 3651   3.218   0.730   4.500
 1215TIP3    H2 3652   3.138   0.827   4.415
 1216TIP3   OH2 3653   1.999   0.418   0.229
 1216TIP3    H1 3654   2.018   0.426   0.322
 1216TIP3    H2 3655   1.930   0.351   0.224
 1217TIP3   OH2 3656   5.673   4.652   4.883
 1217TIP3    H1 3657   5.665   4.604   4.966
 1217TIP3    H2 3658   5.699   4.586   4.819
 1218TIP3   OH2 3659   0.933   0.818   2.077
 1218TIP3    H1 3660   0.908   0.844   1.988
 1218TIP3    H2 3661   1.028   0.828   2.079
 1219TIP3   OH2 3662   6.037   3.910   1.096
 1219TIP3    H1 3663   6.114   3.932   1.149
 1219TIP3    H2 3664   5.966   3.960   1.135
 1220TIP3   OH2 3665   2.735   1.834   4.983
 1220TIP3    H1 3666   2.711   1.831   4.890
 1220TIP3    H2 3667   2.795   1.908   4.990
 1221TIP3   OH2 3668   5.580   1.964   1.400
 1221TIP3    H1 3669   5.616   1.876   1.401
 1221TIP3    H2 3670   5.633   2.011   1.335
 1222TIP3   OH2 3671   5.107   3.339   1.899
 1222TIP3    H1 3672   5.124   3.431   1.877
 1222TIP3    H2 3673   5.014   3.326   1.879
 1223TIP3   OH2 3674   2.012   5.725   2.983
 1223TIP3    H1 3675   2.072   5.738   2.909
 1223TIP3    H2 3676   1.980   5.635   2.972
 1224TIP3   OH2 3677   2.418   4.628   3.112
 1224TIP3    H1 3678   2.457   4.583   3.187
 1224TIP3    H2 3679   2.416   4.720   3.138
 1225TIP3   OH2 3680   6.228  -0.018   2.091
 1225TIP3    H1 3681   6.222  -0.058   2.177
 1225TIP3    H2 3682   6.320   0.007   2.082
 1226TIP3   OH2 3683   3.001   0.536   3.838
 1226TIP3    H1 3684   2.975   0.492   3.757
 1226TIP3    H2 3685   2.919   0.570   3.874
 1227TIP3   OH2 3686   0.370   4.198   3.443
 1227TIP3    H1 3687   0.316   4.232   3.372
 1227TIP3    H2 3688   0.406   4.277   3.485
 1228TIP3   OH2 3689   0.604   4.477   4.253
 1228TIP3    H1 3690   0.671   4.529   4.209
 1228TIP3    H2 3691   0.580   4.411   4.188
 1229TIP3   OH2 3692   1.079   1.926   2.045
 1229TIP3    H1 3693   1.052   2.017   2.032
 1229TIP3    H2 3694   1.127   1.927   2.127
 1230TIP3   OH2 3695   0.500   1.836   2.907
 1230TIP3    H1 3696   0.482   1.743   2.894
 1230TIP3    H2 3697   0.595   1.840   2.921
 1231TIP3   OH2 3698   5.152   2.031   1.697
 1231TIP3    H1 3699   5.233   2.009   1.652
 1231TIP3    H2 3700   5.083   1.987   1.647
 1232TIP3   OH2 3701   1.828   5.857   2.163
 1232TIP3    H1 3702   1.743   5.830   2.131
 1232TIP3    H2 3703   1.835   5.949   2.138
 1233TIP3   OH2 3704   3.596   3.683   4.257
 1233TIP3    H1 3705   3.597   3.714   4.167
 1233TIP3    H2 3706   3.554   3.754   4.306
 1234TIP3   OH2 3707   0.925   5.893   3.458
 1234TIP3    H1 3708   0.980   5.830   3.411
 1234TIP3    H2 3709   0.967   5.978   3.442
 1235TIP3   OH2 3710   5.847   4.078   4.414
 1235TIP3    H1 3711   5.845   4.146   4.481
 1235TIP3    H2 3712   5.937   4.078   4.382
 1236TIP3   OH2 3713   4.208   3.760   3.721
 1236TIP3    H1 3714   4.133   3.817   3.704
 1236TIP3    H2 3715   4.173   3.691   3.778
 1237TIP3   OH2 3716   3.523   5.748   1.315
 1237TIP3    H1 3717   3.538   5.683   1.246
 1237TIP3    H2 3718   3.555   5.704   1.395
 1238TIP3   OH2 3719   0.497   1.398   4.922
 1238TIP3    H1 3720   0.402   1.395   4.929
 1238TIP3    H2 3721   0.514   1.422   4.831
 1239TIP3   OH2 3722   6.301   1.345   1.757
 1239TIP3    H1 3723   6.361   1.308   1.823
 1239TIP3    H2 3724   6.228   1.380   1.809
 1240TIP3   OH2 3725   0.306   1.578   3.434
 1240TIP3    H1 3726   0.401   1.577   3.427
 1240TIP3    H2 3727   0.275   1.548   3.348
 1241TIP3   OH2 3728   0.175   4.834   2.251
 1241TIP3    H1 3729   0.129   4.879   2.180
 1241TIP3    H2 3730   0.159   4.741   2.235
 1242TIP3   OH2 3731   6.042   1.752   1.798
 1242TIP3    H1 3732   5.948   1.733   1.802
 1242TIP3    H2 3733   6.048   1.827   1.739
 1243TIP3   OH2 3734   2.980   3.720   4.991
 1243TIP3    H1 3735   3.048   3.682   4.935
 1243TIP3    H2 3736   2.947   3.647   5.043
 1244TIP3   OH2 3737   0.398   2.662   3.104
 1244TIP3    H1 3738   0.309   2.628   3.120
 1244TIP3    H2 3739   0.387   2.757   3.103
 1245TIP3   OH2 3740   2.924   1.908   0.056
 1245TIP3    H1 3741   3.003   1.885   0.105
 1245TIP3    H2 3742   2.945   1.990   0.013
 1246TIP3   OH2 3743   0.625   0.452   3.790
 1246TIP3    H1 3744   0.604   0.470   3.698
 1246TIP3    H2 3745   0.574   0.516   3.839
 1247TIP3   OH2 3746   1.548   1.079   4.375
 1247TIP3    H1 3747   1.537   1.023   4.452
 1247TIP3    H2 3748   1.601   1.152   4.406
 1248TIP3   OH2 3749   4.696   1.394   2.646
 1248TIP3    H1 3750   4.644   1.356   2.716
 1248TIP3    H2 3751   4.699   1.488   2.666
 1249TIP3   OH2 3752   3.640   0.334   1.427
 1249TIP3    H1 3753   3.575   0.281   1.381
 1249TIP3    H2 3754   3.602   0.349   1.513
 1250TIP3   OH2 3755   5.363   4.222   2.001
 1250TIP3    H1 3756   5.429   4.164   1.964
 1250TIP3    H2 3757   5.411   4.272   2.068
 1251TIP3   OH2 3758   5.080   4.120   4.416
 1251TIP3    H1 3759   5.058   4.213   4.414
 1251TIP3    H2 3760   5.166   4.114   4.373
 1252TIP3   OH2 3761   4.335   0.791   0.220
 1252TIP3    H1 3762   4.297   0.802   0.132
 1252TIP3    H2 3763   4.405   0.727   0.209
 1253TIP3   OH2 3764   3.887   5.914   1.705
 1253TIP3    H1 3765   3.863   5.821   1.706
 1253TIP3    H2 3766   3.977   5.916   1.673
 1254TIP3   OH2 3767   0.112   5.764   1.086
 1254TIP3    H1 3768   0.021   5.777   1.113
 1254TIP3    H2 3769   0.132   5.840   1.032
 1255TIP3   OH2 3770   2.192   2.164   0.078
 1255TIP3    H1 3771   2.254   2.166   0.005
 1255TIP3    H2 3772   2.222   2.090   0.131
 1256TIP3   OH2 3773   2.253   1.461   1.387
 1256TIP3    H1 3774   2.277   1.510   1.308
 1256TIP3    H2 3775   2.186   1.514   1.429
 1257TIP3   OH2 3776   1.379   0.722   2.786
 1257TIP3    H1 3777   1.332   0.651   2.742
 1257TIP3    H2 3778   1.470   0.712   2.758
 1258TIP3   OH2 3779   1.889   1.677   4.785
 1258TIP3    H1 3780   1.879   1.769   4.759
 1258TIP3    H2 3781   1.979   1.655   4.763
 1259TIP3   OH2 3782   2.668   1.129   1.152
 1259TIP3    H1 3783   2.731   1.057   1.158
 1259TIP3    H2 3784   2.605   1.100   1.086
 1260TIP3   OH2 3785   1.625   3.714   3.425
 1260TIP3    H1 3786   1.657   3.636   3.471
 1260TIP3    H2 3787   1.691   3.732   3.359
 1261TIP3   OH2 3788   3.516   0.694   2.882
 1261TIP3    H1 3789   3.576   0.638   2.930
 1261TIP3    H2 3790   3.521   0.663   2.792
 1262TIP3   OH2 3791   4.112   0.395   3.804
 1262TIP3    H1 3792   4.153   0.470   3.760
 1262TIP3    H2 3793   4.105   0.422   3.896
 1263TIP3   OH2 3794   4.726   1.257   3.297
 1263TIP3    H1 3795   4.799   1.305   3.336
 1263TIP3    H2 3796   4.707   1.188   3.360
 1264TIP3   OH2 3797   5.101   1.589   3.941
 1264TIP3    H1 3798   5.154   1.521   3.899
 1264TIP3    H2 3799   5.113   1.574   4.035
 1265TIP3   OH2 3800   2.185   4.253   0.744
 1265TIP3    H1 3801   2.132   4.198   0.800
 1265TIP3    H2 3802   2.122   4.303   0.692
 1266TIP3   OH2 3803   5.477  -0.008   0.353
 1266TIP3    H1 3804   5.542  -0.047   0.295
 1266TIP3    H2 3805   5.524   0.060   0.401
 1267TIP3   OH2 3806   1.454   3.102   4.235
 1267TIP3    H1 3807   1.494   3.015   4.237
 1267TIP3    H2 3808   1.368   3.089   4.275
 1268TIP3   OH2 3809   0.750   2.524   3.210
 1268TIP3    H1 3810   0.726   2.437   3.240
 1268TIP3    H2 3811   0.802   2.561   3.282
 1269TIP3   OH2 3812   4.892   0.479   1.775
 1269TIP3    H1 3813   4.885   0.400   1.722
 1269TIP3    H2 3814   4.978   0.516   1.753
 1270TIP3   OH2 3815   2.382   1.154   4.028
 1270TIP3    H1 3816   2.342   1.113   4.105
 1270TIP3    H2 3817   2.435   1.084   3.988
 1271TIP3   OH2 3818   3.447   3.730   0.219
 1271TIP3    H1 3819   3.491   3.654   0.258
 1271TIP3    H2 3820   3.363   3.695   0.189
 1272TIP3   OH2 3821   1.024   4.442   3.899
 1272TIP3    H1 3822   1.008   4.348   3.897
 1272TIP3    H2 3823   0.964   4.478   3.834
 1273TIP3   OH2 3824   1.374   5.194   1.021
 1273TIP3    H1 3825   1.365   5.111   0.975
 1273TIP3    H2 3826   1.414   5.171   1.105
 1274TIP3   OH2 3827   1.638   3.483   2.089
 1274TIP3    H1 3828   1.549   3.458   2.111
 1274TIP3    H2 3829   1.692   3.442   2.157
 1275TIP3   OH2 3830   3.281   1.678   2.511
 1275TIP3    H1 3831   3.332   1.758   2.493
 1275TIP3    H2 3832   3.209   1.681   2.449
 1276TIP3   OH2 3833   0.855   3.821   2.465
 1276TIP3    H1 3834   0.853   3.787   2.375
 1276TIP3    H2 3835   0.861   3.743   2.520
 1277TIP3   OH2 3836   0.019   0.468   4.766
 1277TIP3    H1 3837   0.060   0.554   4.758
 1277TIP3    H2 3838  -0.074   0.484   4.753
 1278TIP3   OH2 3839   0.569   5.015   0.666
 1278TIP3    H1 3840   0.546   4.962   0.743
 1278TIP3    H2 3841   0.497   5.076   0.657
 1279TIP3   OH2 3842   5.323   4.945   0.631
 1279TIP3    H1 3843   5.384   4.963   0.560
 1279TIP3    H2 3844   5.372   4.967   0.711
 1280TIP3   OH2 3845   2.568   0.425   4.181
 1280TIP3    H1 3846   2.598   0.441   4.271
 1280TIP3    H2 3847   2.489   0.371   4.191
 1281TIP3   OH2 3848   2.979   4.720   3.468
 1281TIP3    H1 3849   2.967   4.625   3.467
 1281TIP3    H2 3850   2.997   4.740   3.560
 1282TIP3   OH2 3851   4.590   3.455   0.323
 1282TIP3    H1 3852   4.620   3.525   0.381
 1282TIP3    H2 3853   4.648   3.381   0.342
 1283TIP3   OH2 3854   2.900   4.334   3.112
 1283TIP3    H1 3855   2.877   4.391   3.038
 1283TIP3    H2 3856   2.931   4.393   3.180
 1284TIP3   OH2 3857   2.241   4.259   3.351
 1284TIP3    H1 3858   2.251   4.173   3.393
 1284TIP3    H2 3859   2.169   4.301   3.398
 1285TIP3   OH2 3860   6.162   1.922   0.533
 1285TIP3    H1 3861   6.149   1.898   0.441
 1285TIP3    H2 3862   6.221   1.856   0.568
 1286TIP3   OH2 3863   4.496   1.064   2.883
 1286TIP3    H1 3864   4.489   0.970   2.869
 1286TIP3    H2 3865   4.547   1.073   2.964
 1287TIP3   OH2 3866   4.630   3.703   0.450
 1287TIP3    H1 3867   4.583   3.765   0.507
 1287TIP3    H2 3868   4.646   3.752   0.370
 1288TIP3   OH2 3869   0.229   5.376   4.693
 1288TIP3    H1 3870   0.238   5.390   4.598
 1288TIP3    H2 3871   0.134   5.372   4.707
 1289TIP3   OH2 3872   1.999   5.691   4.971
 1289TIP3    H1 3873   2.016   5.784   4.990
 1289TIP3    H2 3874   1.918   5.672   5.017
 1290TIP3   OH2 3875   1.831   2.583   1.811
 1290TIP3    H1 3876   1.736   2.593   1.805
 1290TIP3    H2 3877   1.848   2.569   1.904
 1291TIP3   OH2 3878   6.261   1.491   3.632
 1291TIP3    H1 3879   6.290   1.474   3.543
 1291TIP3    H2 3880   6.249   1.404   3.670
 1292TIP3   OH2 3881   0.076   0.349   2.499
 1292TIP3    H1 3882   0.089   0.406   2.575
 1292TIP3    H2 3883   0.012   0.284   2.528
 1293TIP3   OH2 3884   0.215   5.434   3.234
 1293TIP3    H1 3885   0.291   5.428   3.177
 1293TIP3    H2 3886   0.244   5.396   3.317
 1294TIP3   OH2 3887   4.847   0.489   3.099
 1294TIP3    H1 3888   4.754   0.470   3.089
 1294TIP3    H2 3889   4.887   0.404   3.119
 1295TIP3   OH2 3890   2.782   0.981   4.586
 1295TIP3    H1 3891   2.739   0.923   4.648
 1295TIP3    H2 3892   2.779   1.067   4.628
 1296TIP3   OH2 3893   0.536   3.258   1.491
 1296TIP3    H1 3894   0.576   3.260   1.578
 1296TIP3    H2 3895   0.456   3.309   1.500
 1297TIP3   OH2 3896   3.131   0.349   3.325
 1297TIP3    H1 3897   3.180   0.431   3.322
 1297TIP3    H2 3898   3.040   0.376   3.317
 1298TIP3   OH2 3899   3.836   4.027   2.877
 1298TIP3    H1 3900   3.857   4.120   2.877
 1298TIP3    H2 3901   3.832   4.003   2.785
 1299TIP3   OH2 3902   1.401   2.260   1.127
 1299TIP3    H1 3903   1.447   2.308   1.058
 1299TIP3    H2 3904   1.469   2.244   1.193
 1300TIP3   OH2 3905   4.436   0.622   2.029
 1300TIP3    H1 3906   4.429   0.554   1.961
 1300TIP3    H2 3907   4.460   0.574   2.108
 1301TIP3   OH2 3908   2.942   2.635   2.261
 1301TIP3    H1 3909   2.866   2.693   2.264
 1301TIP3    H2 3910   2.979   2.647   2.174
 1302TIP3   OH2 3911   2.689   3.900   3.731
 1302TIP3    H1 3912   2.732   3.815   3.735
 1302TIP3    H2 3913   2.760   3.963   3.725
 1303TIP3   OH2 3914   3.836   4.259   1.414
 1303TIP3    H1 3915   3.855   4.183   1.469
 1303TIP3    H2 3916   3.885   4.331   1.453
 1304TIP3   OH2 3917   0.665   3.130   3.919
 1304TIP3    H1 3918   0.665   3.207   3.862
 1304TIP3    H2 3919   0.624   3.161   4.000
 1305TIP3   OH2 3920   2.648   4.397   2.421
 1305TIP3    H1 3921   2.727   4.387   2.474
 1305TIP3    H2 3922   2.646   4.489   2.398
 1306TIP3   OH2 3923   1.544   0.969   0.689
 1306TIP3    H1 3924   1.460   1.002   0.657
 1306TIP3    H2 3925   1.605   0.984   0.617
 1307TIP3   OH2 3926   0.930   4.499   0.853
 1307TIP3    H1 3927   0.868   4.426   0.854
 1307TIP3    H2 3928   0.989   4.480   0.780
 1308TIP3   OH2 3929   1.412   0.107   4.877
 1308TIP3    H1 3930   1.494   0.083   4.835
 1308TIP3    H2 3931   1.433   0.112   4.970
 1309TIP3   OH2 3932   0.049   2.298   0.084
 1309TIP3    H1 3933   0.081   2.316   0.172
 1309TIP3    H2 3934  -0.047   2.296   0.092
 1310TIP3   OH2 3935   2.995   3.067   5.133
 1310TIP3    H1 3936   3.040   3.138   5.088
 1310TIP3    H2 3937   2.913   3.056   5.085
 1311TIP3   OH2 3938   4.050   5.961   3.221
 1311TIP3    H1 3939   3.999   5.908   3.282
 1311TIP3    H2 3940   4.096   6.025   3.277
 1312TIP3   OH2 3941   1.113   5.203   0.085
 1312TIP3    H1 3942   1.134   5.249   0.166
 1312TIP3    H2 3943   1.103   5.272   0.020
 1313TIP3   OH2 3944   2.075   4.264   5.000
 1313TIP3    H1 3945   2.150   4.225   5.045
 1313TIP3    H2 3946   2.024   4.306   5.070
 1314TIP3   OH2 3947   3.214   1.849   0.139
 1314TIP3    H1 3948   3.231   1.763   0.100
 1314TIP3    H2 3949   3.300   1.880   0.165
 1315TIP3   OH2 3950   5.662   0.039   5.024
 1315TIP3    H1 3951   5.713  -0.015   4.963
 1315TIP3    H2 3952   5.728   0.080   5.079
 1316TIP3   OH2 3953   4.863   0.242   0.799
 1316TIP3    H1 3954   4.797   0.285   0.745
 1316TIP3    H2 3955   4.941   0.239   0.744
 1317TIP3   OH2 3956   6.154   3.124   2.931
 1317TIP3    H1 3957   6.223   3.091   2.989
 1317TIP3    H2 3958   6.163   3.073   2.851
 1318TIP3   OH2 3959   0.788   5.902   1.671
 1318TIP3    H1 3960   0.715   5.918   1.730
 1318TIP3    H2 3961   0.806   5.808   1.680
 1319TIP3   OH2 3962   3.298   3.100   2.791
 1319TIP3    H1 3963   3.278   3.176   2.845
 1319TIP3    H2 3964   3.378   3.124   2.745
 1320TIP3   OH2 3965   1.256   2.780   3.066
 1320TIP3    H1 3966   1.285   2.871   3.060
 1320TIP3    H2 3967   1.176   2.785   3.119
 1321TIP3   OH2 3968   0.897   4.305   2.229
 1321TIP3    H1 3969   0.932   4.216   2.219
 1321TIP3    H2 3970   0.851   4.322   2.147
 1322TIP3   OH2 3971   4.623   2.234   1.020
 1322TIP3    H1 3972   4.695   2.220   0.958
 1322TIP3    H2 3973   4.667   2.246   1.104
 1323TIP3   OH2 3974   3.308   1.409   3.638
 1323TIP3    H1 3975   3.243   1.392   3.706
 1323TIP3    H2 3976   3.324   1.503   3.643
 1324TIP3   OH2 3977   5.728   2.958   2.511
 1324TIP3    H1 3978   5.633   2.953   2.505
 1324TIP3    H2 3979   5.747   3.050   2.525
 1325TIP3   OH2 3980   0.088   1.101   5.157
 1325TIP3    H1 3981   0.000   1.092   5.192
 1325TIP3    H2 3982   0.092   1.190   5.123
 1326TIP3   OH2 3983   2.920   5.266   3.887
 1326TIP3    H1 3984   2.971   5.346   3.899
 1326TIP3    H2 3985   2.860   5.265   3.962
 1327TIP3   OH2 3986   4.552   1.237   3.979
 1327TIP3    H1 3987   4.477   1.194   4.020
 1327TIP3    H2 3988   4.604   1.271   4.052
 1328TIP3   OH2 3989   2.114   4.297   4.102
 1328TIP3    H1 3990   2.019   4.284   4.097
 1328TIP3    H2 3991   2.150   4.209   4.091
 1329TIP3   OH2 3992   1.971   3.117   0.354
 1329TIP3    H1 3993   1.944   3.152   0.270
 1329TIP3    H2 3994   1.898   3.138   0.413
 1330TIP3   OH2 3995   3.712   2.274   4.119
 1330TIP3    H1 3996   3.695   2.222   4.040
 1330TIP3    H2 3997   3.806   2.287   4.120
 1331TIP3   OH2 3998   0.380   4.404   2.369
 1331TIP3    H1 3999   0.446   4.473   2.366
 1331TIP3    H2 4000   0.388   4.366   2.457
 1332TIP3   OH2 4001   0.151   1.851   3.194
 1332TIP3    H1 4002   0.117   1.932   3.231
 1332TIP3    H2 4003   0.243   1.851   3.218
 1333TIP3   OH2 4004   3.138   2.390   2.643
 1333TIP3    H1 4005   3.097   2.476   2.649
 1333TIP3    H2 4006   3.090   2.345   2.574
 1334TIP3   OH2 4007   5.956   2.477   1.144
 1334TIP3    H1 4008   5.892   2.495   1.213
 1334TIP3    H2 4009   6.008   2.405   1.178
 1335TIP3   OH2 4010   2.884   2.678   1.740
 1335TIP3    H1 4011   2.902   2.651   1.649
 1335TIP3    H2 4012   2.790   2.691   1.743
 1336TIP3   OH2 4013   3.573   1.061   4.641
 1336TIP3    H1 4014   3.561   1.013   4.723
 1336TIP3    H2 4015   3.496   1.118   4.634
 1337TIP3   OH2 4016   5.291   2.545   4.073
 1337TIP3    H1 4017   5.218   2.577   4.125
 1337TIP3    H2 4018   5.338   2.624   4.046
 1338TIP3   OH2 4019   5.292   3.161   0.309
 1338TIP3    H1 4020   5.293   3.174   0.214
 1338TIP3    H2 4021   5.324   3.072   0.321
 1339TIP3   OH2 4022   0.318   4.100   3.706
 1339TIP3    H1 4023   0.365   4.017   3.701
 1339TIP3    H2 4024   0.343   4.147   3.626
 1340TIP3   OH2 4025   5.256   5.169   2.460
 1340TIP3    H1 4026   5.244   5.140   2.551
 1340TIP3    H2 4027   5.206   5.106   2.408
 1341TIP3   OH2 4028   5.359   2.448   1.862
 1341TIP3    H1 4029   5.335   2.540   1.878
 1341TIP3    H2 4030   5.367   2.442   1.767
 1342TIP3   OH2 4031   6.301   3.426   0.794
 1342TIP3    H1 4032   6.321   3.342   0.752
 1342TIP3    H2 4033   6.228   3.407   0.853
 1343TIP3   OH2 4034   4.588   1.919   1.195
 1343TIP3    H1 4035   4.646   1.941   1.268
 1343TIP3    H2 4036   4.645   1.917   1.119
 1344TIP3   OH2 4037   3.779   3.102   1.404
 1344TIP3    H1 4038   3.747   3.024   1.358
 1344TIP3    H2 4039   3.870   3.082   1.425
 1345TIP3   OH2 4040   2.397   3.372   3.844
 1345TIP3    H1 4041   2.405   3.277   3.830
 1345TIP3    H2 4042   2.417   3.410   3.759
 1346TIP3   OH2 4043   5.575   2.470   2.417
 1346TIP3    H1 4044   5.636   2.452   2.488
 1346TIP3    H2 4045   5.563   2.565   2.420
 1347TIP3   OH2 4046   5.609   1.928   3.628
 1347TIP3    H1 4047   5.549   1.994   3.661
 1347TIP3    H2 4048   5.569   1.897   3.547
 1348TIP3   OH2 4049   0.626   4.714   2.037
 1348TIP3    H1 4050   0.569   4.667   2.097
 1348TIP3    H2 4051   0.575   4.791   2.011
 1349TIP3   OH2 4052   4.557   0.587   0.704
 1349TIP3    H1 4053   4.648   0.616   0.706
 1349TIP3    H2 4054   4.526   0.613   0.617
 1350TIP3   OH2 4055   2.295   2.618   1.082
 1350TIP3    H1 4056   2.207   2.580   1.074
 1350TIP3    H2 4057   2.287   2.705   1.045
 1351TIP3   OH2 4058   0.600   1.842   0.595
 1351TIP3    H1 4059   0.669   1.812   0.537
 1351TIP3    H2 4060   0.519   1.821   0.549
 1352TIP3   OH2 4061   4.358   4.568   2.243
 1352TIP3    H1 4062   4.342   4.608   2.158
 1352TIP3    H2 4063   4.354   4.474   2.226
 1353TIP3   OH2 4064   5.513   1.423   0.614
 1353TIP3    H1 4065   5.498   1.510   0.651
 1353TIP3    H2 4066   5.552   1.372   0.685
 1354TIP3   OH2 4067   5.021   2.689   1.801
 1354TIP3    H1 4068   5.013   2.662   1.892
 1354TIP3    H2 4069   4.990   2.780   1.800
 1355TIP3   OH2 4070   2.980   4.240   4.089
 1355TIP3    H1 4071   3.052   4.259   4.149
 1355TIP3    H2 4072   2.902   4.275   4.132
 1356TIP3   OH2 4073   6.210   3.542   2.258
 1356TIP3    H1 4074   6.243   3.495   2.334
 1356TIP3    H2 4075   6.179   3.625   2.292
 1357TIP3   OH2 4076   0.380   1.802   1.131
 1357TIP3    H1 4077   0.438   1.799   1.055
 1357TIP3    H2 4078   0.306   1.745   1.107
 1358TIP3   OH2 4079   5.560   5.112   3.597
 1358TIP3    H1 4080   5.512   5.105   3.514
 1358TIP3    H2 4081   5.595   5.025   3.612
 1359TIP3   OH2 4082   0.026   2.840   0.138
 1359TIP3    H1 4083   0.112   2.797   0.137
 1359TIP3    H2 4084   0.040   2.919   0.190
 1360TIP3   OH2 4085  -0.013   2.378   0.515
 1360TIP3    H1 4086  -0.102   2.409   0.499
 1360TIP3    H2 4087   0.013   2.420   0.597
 1361TIP3   OH2 4088   5.714   5.139   3.942
 1361TIP3    H1 4089   5.750   5.172   3.859
 1361TIP3    H2 4090   5.671   5.057   3.918
 1362TIP3   OH2 4091   3.379   1.800   1.782
 1362TIP3    H1 4092   3.455   1.795   1.841
 1362TIP3    H2 4093   3.334   1.880   1.808
 1363TIP3   OH2 4094   5.819   4.367   3.629
 1363TIP3    H1 4095   5.872   4.400   3.557
 1363TIP3    H2 4096   5.730   4.396   3.609
 1364TIP3   OH2 4097   5.818   5.737   4.091
 1364TIP3    H1 4098   5.725   5.722   4.106
 1364TIP3    H2 4099   5.824   5.831   4.071
 1365TIP3   OH2 4100   2.932   4.460   3.404
 1365TIP3    H1 4101   3.005   4.399   3.415
 1365TIP3    H2 4102   2.864   4.428   3.461
 1366TIP3   OH2 4103   6.246   5.561   3.316
 1366TIP3    H1 4104   6.204   5.504   3.253
 1366TIP3    H2 4105   6.181   5.629   3.334
 1367TIP3   OH2 4106   4.535   2.402   1.318
 1367TIP3    H1 4107   4.608   2.345   1.291
 1367TIP3    H2 4108   4.536   2.474   1.254
 1368TIP3   OH2 4109   1.764   2.903   2.070
 1368TIP3    H1 4110   1.853   2.890   2.102
 1368TIP3    H2 4111   1.769   2.887   1.976
 1369TIP3   OH2 4112   2.115   1.932   2.977
 1369TIP3    H1 4113   2.150   1.918   2.890
 1369TIP3    H2 4114   2.096   2.026   2.981
 1370TIP3   OH2 4115   2.678   1.989   4.140
 1370TIP3    H1 4116   2.751   1.946   4.185
 1370TIP3    H2 4117   2.674   1.946   4.055
 1371TIP3   OH2 4118   0.152   2.607   3.965
 1371TIP3    H1 4119   0.175   2.562   3.883
 1371TIP3    H2 4120   0.109   2.540   4.018
 1372TIP3   OH2 4121   1.460   4.982   2.504
 1372TIP3    H1 4122   1.487   5.036   2.578
 1372TIP3    H2 4123   1.477   5.037   2.427
 1373TIP3   OH2 4124   0.095   1.443   2.760
 1373TIP3    H1 4125   0.117   1.509   2.694
 1373TIP3    H2 4126   0.099   1.490   2.843
 1374TIP3   OH2 4127   3.270   0.397   3.713
 1374TIP3    H1 4128   3.324   0.364   3.785
 1374TIP3    H2 4129   3.192   0.432   3.755
 1375TIP3   OH2 4130   1.654   2.899   1.633
 1375TIP3    H1 4131   1.671   2.864   1.545
 1375TIP3    H2 4132   1.590   2.969   1.619
 1376TIP3   OH2 4133   0.262   0.840   2.967
 1376TIP3    H1 4134   0.353   0.815   2.952
 1376TIP3    H2 4135   0.259   0.867   3.059
 1377TIP3   OH2 4136   5.832   0.465   2.330
 1377TIP3    H1 4137   5.771   0.436   2.399
 1377TIP3    H2 4138   5.918   0.440   2.363
 1378TIP3   OH2 4139   3.668   5.995   2.909
 1378TIP3    H1 4140   3.676   6.002   3.004
 1378TIP3    H2 4141   3.686   5.903   2.889
 1379TIP3   OH2 4142   0.135   3.283   2.492
 1379TIP3    H1 4143   0.115   3.192   2.513
 1379TIP3    H2 4144   0.167   3.280   2.401
 1380TIP3   OH2 4145   3.707   4.746   1.005
 1380TIP3    H1 4146   3.750   4.810   0.947
 1380TIP3    H2 4147   3.642   4.703   0.949
 1381TIP3   OH2 4148   0.290   1.771   4.811
 1381TIP3    H1 4149   0.202   1.748   4.843
 1381TIP3    H2 4150   0.326   1.688   4.780
 1382TIP3   OH2 4151   6.128   5.113   0.421
 1382TIP3    H1 4152   6.164   5.071   0.498
 1382TIP3    H2 4153   6.038   5.081   0.416
 1383TIP3   OH2 4154   2.183   3.274   0.280
 1383TIP3    H1 4155   2.255   3.230   0.236
 1383TIP3    H2 4156   2.120   3.205   0.299
 1384TIP3   OH2 4157   3.258   3.859   1.311
 1384TIP3    H1 4158   3.286   3.795   1.246
 1384TIP3    H2 4159   3.278   3.818   1.395
 1385TIP3   OH2 4160   0.448   3.754   2.459
 1385TIP3    H1 4161   0.505   3.739   2.384
 1385TIP3    H2 4162   0.417   3.844   2.447
 1386TIP3   OH2 4163   5.051   2.731   4.115
 1386TIP3    H1 4164   5.076   2.726   4.023
 1386TIP3    H2 4165   5.059   2.824   4.138
 1387TIP3   OH2 4166   2.985   2.602   4.580
 1387TIP3    H1 4167   2.976   2.578   4.488
 1387TIP3    H2 4168   2.896   2.598   4.615
 1388TIP3   OH2 4169   1.895   3.707   3.699
 1388TIP3    H1 4170   1.811   3.670   3.727
 1388TIP3    H2 4171   1.957   3.635   3.707
 1389TIP3   OH2 4172   0.211   0.467   3.942
 1389TIP3    H1 4173   0.208   0.514   3.859
 1389TIP3    H2 4174   0.205   0.536   4.009
 1390TIP3   OH2 4175   2.914   2.691   3.801
 1390TIP3    H1 4176   2.828   2.655   3.781
 1390TIP3    H2 4177   2.917   2.776   3.758
 1391TIP3   OH2 4178   2.575   5.399   3.865
 1391TIP3    H1 4179   2.582   5.303   3.874
 1391TIP3    H2 4180   2.508   5.412   3.798
 1392TIP3   OH2 4181   3.638   0.302   0.133
 1392TIP3    H1 4182   3.708   0.283   0.196
 1392TIP3    H2 4183   3.558   0.301   0.186
 1393TIP3   OH2 4184   5.431   3.218   0.043
 1393TIP3    H1 4185   5.516   3.190   0.010
 1393TIP3    H2 4186   5.377   3.229  -0.036
 1394TIP3   OH2 4187   3.333   0.618   1.367
 1394TIP3    H1 4188   3.416   0.648   1.404
 1394TIP3    H2 4189   3.267   0.673   1.409
 1395TIP3   OH2 4190   5.003   0.074   1.892
 1395TIP3    H1 4191   4.956  -0.004   1.862
 1395TIP3    H2 4192   5.009   0.130   1.815
 1396TIP3   OH2 4193   0.211   5.402   2.655
 1396TIP3    H1 4194   0.250   5.394   2.742
 1396TIP3    H2 4195   0.141   5.336   2.654
 1397TIP3   OH2 4196   0.984   5.101   4.089
 1397TIP3    H1 4197   0.998   5.176   4.032
 1397TIP3    H2 4198   1.069   5.057   4.093
 1398TIP3   OH2 4199   1.257   1.313   2.058
 1398TIP3    H1 4200   1.340   1.320   2.105
 1398TIP3    H2 4201   1.281   1.321   1.966
 1399TIP3   OH2 4202   3.027   3.193   0.759
 1399TIP3    H1 4203   3.085   3.218   0.831
 1399TIP3    H2 4204   3.024   3.098   0.763
 1400TIP3   OH2 4205   5.117   1.511   4.195
 1400TIP3    H1 4206   5.082   1.435   4.242
 1400TIP3    H2 4207   5.183   1.547   4.254
 1401TIP3   OH2 4208   4.675   1.796   1.567
 1401TIP3    H1 4209   4.684   1.713   1.520
 1401TIP3    H2 4210   4.595   1.785   1.620
 1402TIP3   OH2 4211   5.289   2.529   2.692
 1402TIP3    H1 4212   5.356   2.596   2.704
 1402TIP3    H2 4213   5.333   2.447   2.716
 1403TIP3   OH2 4214   0.451   5.445   2.796
 1403TIP3    H1 4215   0.372   5.488   2.764
 1403TIP3    H2 4216   0.517   5.514   2.796
 1404TIP3   OH2 4217   4.874   1.596   1.795
 1404TIP3    H1 4218   4.806   1.663   1.784
 1404TIP3    H2 4219   4.825   1.517   1.818
 1405TIP3   OH2 4220   5.271   4.954   4.684
 1405TIP3    H1 4221   5.264   4.901   4.763
 1405TIP3    H2 4222   5.183   4.990   4.671
 1406TIP3   OH2 4223   3.941   2.276   0.536
 1406TIP3    H1 4224   3.850   2.264   0.510
 1406TIP3    H2 4225   3.936   2.328   0.617
 1407TIP3   OH2 4226   2.920   1.025   1.640
 1407TIP3    H1 4227   2.980   1.028   1.715
 1407TIP3    H2 4228   2.883   1.113   1.635
 1408TIP3   OH2 4229   0.390   1.578   2.816
 1408TIP3    H1 4230   0.334   1.610   2.746
 1408TIP3    H2 4231   0.406   1.486   2.795
 1409TIP3   OH2 4232   1.292   5.378   4.577
 1409TIP3    H1 4233   1.224   5.383   4.510
 1409TIP3    H2 4234   1.321   5.287   4.576
 1410TIP3   OH2 4235   5.630   4.126   3.224
 1410TIP3    H1 4236   5.554   4.185   3.227
 1410TIP3    H2 4237   5.648   4.106   3.315
 1411TIP3   OH2 4238   0.844   5.292   4.997
 1411TIP3    H1 4239   0.894   5.243   5.063
 1411TIP3    H2 4240   0.843   5.235   4.920
 1412TIP3   OH2 4241   4.806   5.950   3.624
 1412TIP3    H1 4242   4.756   5.874   3.597
 1412TIP3    H2 4243   4.897   5.927   3.605
 1413TIP3   OH2 4244   5.467   4.099   1.369
 1413TIP3    H1 4245   5.529   4.105   1.297
 1413TIP3    H2 4246   5.382   4.086   1.327
 1414TIP3   OH2 4247   5.415   3.388   2.036
 1414TIP3    H1 4248   5.498   3.427   2.006
 1414TIP3    H2 4249   5.350   3.457   2.022
 1415TIP3   OH2 4250   4.470   5.733   3.073
 1415TIP3    H1 4251   4.472   5.777   2.988
 1415TIP3    H2 4252   4.442   5.644   3.054
 1416TIP3   OH2 4253   3.340   3.419   0.018
 1416TIP3    H1 4254   3.286   3.344  -0.005
 1416TIP3    H2 4255   3.278   3.483   0.054
 1417TIP3   OH2 4256   1.251   3.431   4.289
 1417TIP3    H1 4257   1.331   3.455   4.242
 1417TIP3    H2 4258   1.201   3.379   4.226
 1418TIP3   OH2 4259   3.596   0.892   0.746
 1418TIP3    H1 4260   3.554   0.835   0.809
 1418TIP3    H2 4261   3.562   0.979   0.765
 1419TIP3   OH2 4262   4.256   0.021   2.252
 1419TIP3    H1 4263   4.168  -0.006   2.225
 1419TIP3    H2 4264   4.289   0.072   2.177
 1420TIP3   OH2 4265   0.547   2.432   4.555
 1420TIP3    H1 4266   0.628   2.477   4.580
 1420TIP3    H2 4267   0.538   2.449   4.461
 1421TIP3   OH2 4268   5.663   5.095   2.369
 1421TIP3    H1 4269   5.653   5.048   2.286
 1421TIP3    H2 4270   5.757   5.107   2.379
 1422TIP3   OH2 4271   6.313   5.780   3.962
 1422TIP3    H1 4272   6.385   5.824   4.007
 1422TIP3    H2 4273   6.347   5.693   3.942
 1423TIP3   OH2 4274   3.625   4.468   3.636
 1423TIP3    H1 4275   3.595   4.552   3.600
 1423TIP3    H2 4276   3.600   4.472   3.729
 1424TIP3   OH2 4277   2.371   2.708   1.355
 1424TIP3    H1 4278   2.285   2.738   1.385
 1424TIP3    H2 4279   2.357   2.680   1.265
 1425TIP3   OH2 4280   4.662   1.854   1.897
 1425TIP3    H1 4281   4.616   1.929   1.935
 1425TIP3    H2 4282   4.644   1.782   1.957
 1426TIP3   OH2 4283   2.376   2.979   3.248
 1426TIP3    H1 4284   2.442   2.938   3.193
 1426TIP3    H2 4285   2.362   2.917   3.319
 1427TIP3   OH2 4286   6.180   0.624   3.707
 1427TIP3    H1 4287   6.170   0.624   3.802
 1427TIP3    H2 4288   6.249   0.688   3.691
 1428TIP3   OH2 4289   6.117   0.320   4.173
 1428TIP3    H1 4290   6.047   0.256   4.162
 1428TIP3    H2 4291   6.088   0.377   4.245
 1429TIP3   OH2 4292   1.570   2.845   4.224
 1429TIP3    H1 4293   1.640   2.796   4.269
 1429TIP3    H2 4294   1.494   2.787   4.229
 1430TIP3   OH2 4295   0.566   0.403   0.215
 1430TIP3    H1 4296   0.513   0.360   0.283
 1430TIP3    H2 4297   0.655   0.373   0.231
 1431TIP3   OH2 4298   0.577   4.387   1.485
 1431TIP3    H1 4299   0.668   4.402   1.462
 1431TIP3    H2 4300   0.536   4.473   1.480
 1432TIP3   OH2 4301   0.233   5.908   0.637
 1432TIP3    H1 4302   0.309   5.896   0.580
 1432TIP3    H2 4303   0.161   5.866   0.589
 1433TIP3   OH2 4304   2.554   3.716   0.743
 1433TIP3    H1 4305   2.567   3.668   0.661
 1433TIP3    H2 4306   2.589   3.803   0.726
 1434TIP3   OH2 4307   4.430   1.976   4.134
 1434TIP3    H1 4308   4.383   1.925   4.069
 1434TIP3    H2 4309   4.447   1.914   4.206
 1435TIP3   OH2 4310   0.774   2.346   2.044
 1435TIP3    H1 4311   0.764   2.392   2.128
 1435TIP3    H2 4312   0.741   2.409   1.979
 1436TIP3   OH2 4313   3.174   4.212   4.906
 1436TIP3    H1 4314   3.139   4.233   4.993
 1436TIP3    H2 4315   3.096   4.202   4.851
 1437TIP3   OH2 4316   1.660   5.366   0.767
 1437TIP3    H1 4317   1.571   5.393   0.745
 1437TIP3    H2 4318   1.715   5.434   0.729
 1438TIP3   OH2 4319   0.115   4.870   1.663
 1438TIP3    H1 4320   0.039   4.826   1.701
 1438TIP3    H2 4321   0.077   4.939   1.607
 1439TIP3   OH2 4322   4.832   5.437   1.959
 1439TIP3    H1 4323   4.883   5.366   1.999
 1439TIP3    H2 4324   4.745   5.400   1.946
 1440TIP3   OH2 4325   1.138   2.200   1.541
 1440TIP3    H1 4326   1.145   2.205   1.445
 1440TIP3    H2 4327   1.133   2.106   1.559
 1441TIP3   OH2 4328   2.648   4.965   0.815
 1441TIP3    H1 4329   2.621   5.030   0.879
 1441TIP3    H2 4330   2.731   4.997   0.781
 1442TIP3   OH2 4331   4.950   0.232   3.167
 1442TIP3    H1 4332   5.012   0.233   3.241
 1442TIP3    H2 4333   4.999   0.191   3.096
 1443TIP3   OH2 4334   3.562   4.987   0.307
 1443TIP3    H1 4335   3.588   5.051   0.373
 1443TIP3    H2 4336   3.466   4.986   0.311
 1444TIP3   OH2 4337   3.267   5.587   0.938
 1444TIP3    H1 4338   3.344   5.623   0.984
 1444TIP3    H2 4339   3.267   5.632   0.854
 1445TIP3   OH2 4340   6.075   2.200   1.163
 1445TIP3    H1 4341   5.985   2.169   1.147
 1445TIP3    H2 4342   6.128   2.121   1.163
 1446TIP3   OH2 4343   4.068   2.815   1.956
 1446TIP3    H1 4344   4.060   2.883   2.023
 1446TIP3    H2 4345   4.148   2.768   1.979
 1447TIP3   OH2 4346   2.667   3.392   1.861
 1447TIP3    H1 4347   2.728   3.329   1.823
 1447TIP3    H2 4348   2.688   3.475   1.819
 1448TIP3   OH2 4349   4.451   3.940   2.920
 1448TIP3    H1 4350   4.481   4.031   2.931
 1448TIP3    H2 4351   4.358   3.949   2.899
 1449TIP3   OH2 4352   5.488   1.385   3.017
 1449TIP3    H1 4353   5.533   1.343   2.944
 1449TIP3    H2 4354   5.491   1.321   3.088
 1450TIP3   OH2 4355   4.136   6.027   0.117
 1450TIP3    H1 4356   4.198   6.098   0.100
 1450TIP3    H2 4357   4.050   6.068   0.110
 1451TIP3   OH2 4358   3.715   4.800   2.206
 1451TIP3    H1 4359   3.757   4.717   2.182
 1451TIP3    H2 4360   3.656   4.777   2.277
 1452TIP3   OH2 4361   2.665   0.542   2.484
 1452TIP3    H1 4362   2.753   0.537   2.446
 1452TIP3    H2 4363   2.609   0.567   2.410
 1453TIP3   OH2 4364   3.876   1.379   5.114
 1453TIP3    H1 4365   3.945   1.390   5.048
 1453TIP3    H2 4366   3.832   1.298   5.090
 1454TIP3   OH2 4367   3.104   3.147   3.470
 1454TIP3    H1 4368   3.015   3.154   3.434
 1454TIP3    H2 4369   3.113   3.222   3.528
 1455TIP3   OH2 4370   6.031   4.182   2.114
 1455TIP3    H1 4371   6.004   4.093   2.096
 1455TIP3    H2 4372   6.102   4.199   2.052
 1456TIP3   OH2 4373   4.837   2.601   3.602
 1456TIP3    H1 4374   4.748   2.567   3.600
 1456TIP3    H2 4375   4.851   2.624   3.694
 1457TIP3   OH2 4376   3.262   1.998   2.187
 1457TIP3    H1 4377   3.177   1.995   2.142
 1457TIP3    H2 4378   3.323   2.032   2.121
 1458TIP3   OH2 4379   4.052   4.658   3.554
 1458TIP3    H1 4380   4.128   4.640   3.497
 1458TIP3    H2 4381   4.044   4.754   3.552
 1459TIP3   OH2 4382   3.901   0.885   2.704
 1459TIP3    H1 4383   3.885   0.799   2.741
 1459TIP3    H2 4384   3.951   0.932   2.770
 1460TIP3   OH2 4385   3.976   3.961   3.639
 1460TIP3    H1 4386   3.976   4.050   3.672
 1460TIP3    H2 4387   3.888   3.949   3.602
 1461TIP3   OH2 4388   0.522   1.252   3.638
 1461TIP3    H1 4389   0.511   1.177   3.580
 1461TIP3    H2 4390   0.436   1.294   3.640
 1462TIP3   OH2 4391   2.762   3.616   2.371
 1462TIP3    H1 4392   2.706   3.691   2.391
 1462TIP3    H2 4393   2.725   3.578   2.291
 1463TIP3   OH2 4394   5.550   2.194   0.772
 1463TIP3    H1 4395   5.457   2.175   0.787
 1463TIP3    H2 4396   5.552   2.288   0.754
 1464TIP3   OH2 4397   5.558   1.901   4.272
 1464TIP3    H1 4398   5.605   1.857   4.343
 1464TIP3    H2 4399   5.565   1.841   4.198
 1465TIP3   OH2 4400   5.369   0.681   0.089
 1465TIP3    H1 4401   5.418   0.753   0.049
 1465TIP3    H2 4402   5.339   0.628   0.015
 1466TIP3   OH2 4403   0.566   5.271   0.324
 1466TIP3    H1 4404   0.476   5.303   0.336
 1466TIP3    H2 4405   0.556   5.180   0.299
 1467TIP3   OH2 4406   2.571   1.192   3.512
 1467TIP3    H1 4407   2.538   1.212   3.600
 1467TIP3    H2 4408   2.527   1.110   3.489
 1468TIP3   OH2 4409   5.319   0.483   2.330
 1468TIP3    H1 4410   5.317   0.403   2.278
 1468TIP3    H2 4411   5.228   0.513   2.331
 1469TIP3   OH2 4412   5.020   4.462   0.949
 1469TIP3    H1 4413   4.969   4.543   0.949
 1469TIP3    H2 4414   5.109   4.489   0.927
 1470TIP3   OH2 4415   4.715   0.458   3.428
 1470TIP3    H1 4416   4.711   0.379   3.374
 1470TIP3    H2 4417   4.653   0.441   3.499
 1471TIP3   OH2 4418   2.982   2.878   0.166
 1471TIP3    H1 4419   3.006   2.863   0.074
 1471TIP3    H2 4420   2.964   2.791   0.200
 1472TIP3   OH2 4421   4.494   3.062   3.271
 1472TIP3    H1 4422   4.513   3.120   3.197
 1472TIP3    H2 4423   4.481   2.976   3.232
 1473TIP3   OH2 4424   0.054   3.151   0.703
 1473TIP3    H1 4425  -0.041   3.161   0.699
 1473TIP3    H2 4426   0.068   3.057   0.708
 1474TIP3   OH2 4427   0.806   0.602   2.288
 1474TIP3    H1 4428   0.720   0.559   2.283
 1474TIP3    H2 4429   0.793   0.675   2.349
 1475TIP3   OH2 4430   4.186   4.075   2.400
 1475TIP3    H1 4431   4.101   4.038   2.377
 1475TIP3    H2 4432   4.172   4.170   2.401
 1476TIP3   OH2 4433   2.943   0.587   1.531
 1476TIP3    H1 4434   2.980   0.515   1.481
 1476TIP3    H2 4435   2.858   0.554   1.561
 1477TIP3   OH2 4436   1.435   2.089   1.841
 1477TIP3    H1 4437   1.419   2.043   1.758
 1477TIP3    H2 4438   1.449   2.020   1.905
 1478TIP3   OH2 4439   1.562   2.025   3.368
 1478TIP3    H1 4440   1.555   2.065   3.455
 1478TIP3    H2 4441   1.554   2.099   3.307
 1479TIP3   OH2 4442   5.555   0.388   4.079
 1479TIP3    H1 4443   5.525   0.326   4.145
 1479TIP3    H2 4444   5.501   0.369   4.003
 1480TIP3   OH2 4445   0.131   5.049   0.089
 1480TIP3    H1 4446   0.178   5.067   0.170
 1480TIP3    H2 4447   0.041   5.076   0.107
 1481TIP3   OH2 4448   3.912   0.012   1.098
 1481TIP3    H1 4449   3.877  -0.072   1.068
 1481TIP3    H2 4450   3.906   0.007   1.194
 1482TIP3   OH2 4451   6.075   1.888   3.443
 1482TIP3    H1 4452   6.120   1.863   3.524
 1482TIP3    H2 4453   6.144   1.920   3.386
 1483TIP3   OH2 4454   2.040   1.464   0.637
 1483TIP3    H1 4455   2.088   1.446   0.556
 1483TIP3    H2 4456   1.951   1.434   0.620
 1484TIP3   OH2 4457   0.215   1.214   3.897
 1484TIP3    H1 4458   0.288   1.161   3.928
 1484TIP3    H2 4459   0.255   1.281   3.842
 1485TIP3   OH2 4460   5.892   3.921   1.761
 1485TIP3    H1 4461   5.966   3.891   1.708
 1485TIP3    H2 4462   5.889   4.015   1.747
 1486TIP3   OH2 4463   4.304   5.680   4.857
 1486TIP3    H1 4464   4.329   5.765   4.819
 1486TIP3    H2 4465   4.214   5.694   4.888
 1487TIP3   OH2 4466   2.050   2.420   3.042
 1487TIP3    H1 4467   1.973   2.434   3.098
 1487TIP3    H2 4468   2.023   2.350   2.983
 1488TIP3   OH2 4469   0.842   5.349   3.516
 1488TIP3    H1 4470   0.901   5.424   3.518
 1488TIP3    H2 4471   0.816   5.336   3.607
 1489TIP3   OH2 4472   1.804   4.047   3.826
 1489TIP3    H1 4473   1.760   3.995   3.759
 1489TIP3    H2 4474   1.893   4.012   3.829
 1490TIP3   OH2 4475   1.506   1.298   4.868
 1490TIP3    H1 4476   1.595   1.267   4.854
 1490TIP3    H2 4477   1.496   1.372   4.808
 1491TIP3   OH2 4478   3.930   2.201   1.854
 1491TIP3    H1 4479   4.016   2.208   1.814
 1491TIP3    H2 4480   3.872   2.178   1.781
 1492TIP3   OH2 4481   4.605   2.180   4.080
 1492TIP3    H1 4482   4.674   2.149   4.021
 1492TIP3    H2 4483   4.546   2.105   4.089
 1493TIP3   OH2 4484   1.433   0.982   0.980
 1493TIP3    H1 4485   1.475   0.938   0.905
 1493TIP3    H2 4486   1.363   1.035   0.940
 1494TIP3   OH2 4487   0.577   2.483   0.902
 1494TIP3    H1 4488   0.634   2.419   0.945
 1494TIP3    H2 4489   0.602   2.567   0.940
 1495TIP3   OH2 4490   6.020   1.901   2.078
 1495TIP3    H1 4491   6.092   1.850   2.116
 1495TIP3    H2 4492   6.010   1.866   1.990
 1496TIP3   OH2 4493   1.455   5.253   1.678
 1496TIP3    H1 4494   1.465   5.329   1.735
 1496TIP3    H2 4495   1.541   5.241   1.637
 1497TIP3   OH2 4496   5.826   0.983   0.439
 1497TIP3    H1 4497   5.858   0.899   0.472
 1497TIP3    H2 4498   5.889   1.008   0.372
 1498TIP3   OH2 4499   3.519   4.173   0.432
 1498TIP3    H1 4500   3.560   4.089   0.408
 1498TIP3    H2 4501   3.590   4.237   0.424
 1499TIP3   OH2 4502   2.283   0.515   1.358
 1499TIP3    H1 4503   2.307   0.439   1.304
 1499TIP3    H2 4504   2.296   0.485   1.448
 1500TIP3   OH2 4505   6.145   4.247   0.664
 1500TIP3    H1 4506   6.108   4.166   0.698
 1500TIP3    H2 4507   6.098   4.264   0.583
 1501TIP3   OH2 4508   0.113   3.965   2.570
 1501TIP3    H1 4509   0.099   3.941   2.478
 1501TIP3    H2 4510   0.111   4.061   2.570
 1502TIP3   OH2 4511   4.730   4.960   3.752
 1502TIP3    H1 4512   4.679   4.882   3.730
 1502TIP3    H2 4513   4.820   4.939   3.725
 1503TIP3   OH2 4514   2.136   0.267   4.018
 1503TIP3    H1 4515   2.156   0.176   3.997
 1503TIP3    H2 4516   2.124   0.309   3.933
 1504TIP3   OH2 4517   0.356   3.378   1.239
 1504TIP3    H1 4518   0.372   3.286   1.261
 1504TIP3    H2 4519   0.389   3.427   1.314
 1505TIP3   OH2 4520   5.156   4.400   0.125
 1505TIP3    H1 4521   5.245   4.434   0.133
 1505TIP3    H2 4522   5.117   4.413   0.212
 1506TIP3   OH2 4523   1.874   3.493   4.700
 1506TIP3    H1 4524   1.908   3.405   4.717
 1506TIP3    H2 4525   1.784   3.479   4.671
 1507TIP3   OH2 4526   3.401   0.256   0.260
 1507TIP3    H1 4527   3.351   0.180   0.231
 1507TIP3    H2 4528   3.367   0.275   0.348
 1508TIP3   OH2 4529   0.552   4.421   1.945
 1508TIP3    H1 4530   0.504   4.497   1.978
 1508TIP3    H2 4531   0.499   4.346   1.974
 1509TIP3   OH2 4532   1.065   0.254   3.380
 1509TIP3    H1 4533   1.003   0.323   3.355
 1509TIP3    H2 4534   1.107   0.229   3.299
 1510TIP3   OH2 4535   5.022   4.394   2.353
 1510TIP3    H1 4536   4.969   4.473   2.345
 1510TIP3    H2 4537   5.110   4.427   2.374
 1511TIP3   OH2 4538   2.462   2.062   1.690
 1511TIP3    H1 4539   2.438   2.059   1.597
 1511TIP3    H2 4540   2.557   2.071   1.690
 1512TIP3   OH2 4541   4.415   3.979   5.067
 1512TIP3    H1 4542   4.419   3.942   5.155
 1512TIP3    H2 4543   4.476   3.927   5.016
 1513TIP3   OH2 4544   5.797   1.502   4.276
 1513TIP3    H1 4545   5.715   1.487   4.231
 1513TIP3    H2 4546   5.795   1.441   4.351
 1514TIP3   OH2 4547   0.354   1.379   2.001
 1514TIP3    H1 4548   0.308   1.447   1.952
 1514TIP3    H2 4549   0.344   1.300   1.949
 1515TIP3   OH2 4550   1.577   5.264   4.927
 1515TIP3    H1 4551   1.615   5.267   4.839
 1515TIP3    H2 4552   1.533   5.179   4.931
 1516TIP3   OH2 4553   1.616   2.371   2.011
 1516TIP3    H1 4554   1.616   2.331   1.924
 1516TIP3    H2 4555   1.633   2.463   1.995
 1517TIP3   OH2 4556   4.511   4.606   0.242
 1517TIP3    H1 4557   4.568   4.673   0.280
 1517TIP3    H2 4558   4.460   4.652   0.176
 1518TIP3   OH2 4559   1.031   2.867   3.559
 1518TIP3    H1 4560   1.034   2.772   3.547
 1518TIP3    H2 4561   1.037   2.879   3.654
 1519TIP3   OH2 4562   1.227   3.885   4.571
 1519TIP3    H1 4563   1.142   3.842   4.584
 1519TIP3    H2 4564   1.215   3.972   4.610
 1520TIP3   OH2 4565   2.410   2.237   2.311
 1520TIP3    H1 4566   2.379   2.206   2.226
 1520TIP3    H2 4567   2.495   2.195   2.323
 1521TIP3   OH2 4568   0.331   5.465   3.860
 1521TIP3    H1 4569   0.367   5.377   3.867
 1521TIP3    H2 4570   0.385   5.518   3.917
 1522TIP3   OH2 4571   5.305   5.238   2.162
 1522TIP3    H1 4572   5.296   5.153   2.118
 1522TIP3    H2 4573   5.285   5.302   2.093
 1523TIP3   OH2 4574   1.256   4.807   5.043
 1523TIP3    H1 4575   1.229   4.745   4.976
 1523TIP3    H2 4576   1.249   4.892   5.001
 1524TIP3   OH2 4577   4.961   3.188   2.173
 1524TIP3    H1 4578   5.001   3.218   2.255
 1524TIP3    H2 4579   4.984   3.095   2.169
 1525TIP3   OH2 4580   3.095   3.245   4.468
 1525TIP3    H1 4581   3.131   3.326   4.503
 1525TIP3    H2 4582   3.095   3.185   4.543
 1526TIP3   OH2 4583   0.637   3.420   3.024
 1526TIP3    H1 4584   0.724   3.454   3.046
 1526TIP3    H2 4585   0.654   3.332   2.991
 1527TIP3   OH2 4586   3.827   1.861   1.375
 1527TIP3    H1 4587   3.913   1.822   1.390
 1527TIP3    H2 4588   3.842   1.931   1.311
 1528TIP3   OH2 4589   0.459   3.520   1.459
 1528TIP3    H1 4590   0.415   3.605   1.464
 1528TIP3    H2 4591   0.505   3.512   1.542
 1529TIP3   OH2 4592   3.262   0.878   2.162
 1529TIP3    H1 4593   3.295   0.806   2.216
 1529TIP3    H2 4594   3.314   0.873   2.082
 1530TIP3   OH2 4595   2.941   0.117   2.818
 1530TIP3    H1 4596   2.876   0.058   2.780
 1530TIP3    H2 4597   2.975   0.166   2.743
 1531TIP3   OH2 4598   3.325   5.801   4.873
 1531TIP3    H1 4599   3.265   5.871   4.845
 1531TIP3    H2 4600   3.342   5.821   4.965
 1532TIP3   OH2 4601   5.542   1.164   4.881
 1532TIP3    H1 4602   5.518   1.072   4.882
 1532TIP3    H2 4603   5.570   1.182   4.971
 1533TIP3   OH2 4604   1.751   5.986   1.686
 1533TIP3    H1 4605   1.753   6.059   1.748
 1533TIP3    H2 4606   1.809   5.920   1.723
 1534TIP3   OH2 4607   2.697   3.506   3.872
 1534TIP3    H1 4608   2.685   3.425   3.823
 1534TIP3    H2 4609   2.753   3.560   3.816
 1535TIP3   OH2 4610   1.547   5.132   2.291
 1535TIP3    H1 4611   1.603   5.092   2.225
 1535TIP3    H2 4612   1.596   5.209   2.320
 1536TIP3   OH2 4613   0.966   3.108   0.478
 1536TIP3    H1 4614   1.053   3.103   0.517
 1536TIP3    H2 4615   0.977   3.075   0.389
 1537TIP3   OH2 4616   4.708   5.769   5.077
 1537TIP3    H1 4617   4.675   5.705   5.015
 1537TIP3    H2 4618   4.635   5.783   5.138
 1538TIP3   OH2 4619   4.956   0.080   4.301
 1538TIP3    H1 4620   4.988   0.072   4.391
 1538TIP3    H2 4621   5.014   0.145   4.261
 1539TIP3   OH2 4622   5.947   5.325   0.385
 1539TIP3    H1 4623   5.876   5.261   0.392
 1539TIP3    H2 4624   6.027   5.275   0.403
 1540TIP3   OH2 4625   6.146   2.555   4.521
 1540TIP3    H1 4626   6.222   2.510   4.485
 1540TIP3    H2 4627   6.138   2.522   4.610
 1541TIP3   OH2 4628   5.660   2.788   1.216
 1541TIP3    H1 4629   5.638   2.829   1.299
 1541TIP3    H2 4630   5.754   2.805   1.204
 1542TIP3   OH2 4631   2.360   0.938   2.000
 1542TIP3    H1 4632   2.395   0.849   1.995
 1542TIP3    H2 4633   2.435   0.994   1.977
 1543TIP3   OH2 4634   0.544   3.902   2.985
 1543TIP3    H1 4635   0.517   3.994   2.996
 1543TIP3    H2 4636   0.524   3.882   2.894
 1544TIP3   OH2 4637   4.950   1.386   2.950
 1544TIP3    H1 4638   5.016   1.425   3.007
 1544TIP3    H2 4639   4.986   1.300   2.928
 1545TIP3   OH2 4640   1.281   4.473   3.229
 1545TIP3    H1 4641   1.348   4.524   3.273
 1545TIP3    H2 4642   1.325   4.435   3.153
 1546TIP3   OH2 4643   0.890   2.572   0.136
 1546TIP3    H1 4644   0.851   2.659   0.144
 1546TIP3    H2 4645   0.885   2.552   0.042
 1547TIP3   OH2 4646   0.773   2.192   1.254
 1547TIP3    H1 4647   0.684   2.218   1.230
 1547TIP3    H2 4648   0.800   2.258   1.318
 1548TIP3   OH2 4649   2.124   3.570   3.685
 1548TIP3    H1 4650   2.190   3.598   3.748
 1548TIP3    H2 4651   2.145   3.618   3.605
 1549TIP3   OH2 4652   0.523   2.356   1.521
 1549TIP3    H1 4653   0.595   2.399   1.473
 1549TIP3    H2 4654   0.454   2.346   1.456
 1550TIP3   OH2 4655   1.921   3.966   5.023
 1550TIP3    H1 4656   2.008   3.959   4.984
 1550TIP3    H2 4657   1.863   3.924   4.960
 1551TIP3   OH2 4658   2.697   2.943   0.196
 1551TIP3    H1 4659   2.648   2.873   0.240
 1551TIP3    H2 4660   2.777   2.900   0.164
 1552TIP3   OH2 4661   5.629   3.736   3.799
 1552TIP3    H1 4662   5.705   3.791   3.780
 1552TIP3    H2 4663   5.626   3.674   3.726
 1553TIP3   OH2 4664   2.570   1.268   2.639
 1553TIP3    H1 4665   2.602   1.314   2.716
 1553TIP3    H2 4666   2.629   1.297   2.568
 1554TIP3   OH2 4667   5.130   3.238   2.705
 1554TIP3    H1 4668   5.102   3.181   2.777
 1554TIP3    H2 4669   5.204   3.192   2.665
 1555TIP3   OH2 4670   5.000   4.792   2.875
 1555TIP3    H1 4671   4.994   4.865   2.937
 1555TIP3    H2 4672   5.026   4.717   2.929
 1556TIP3   OH2 4673   3.153   4.658   3.982
 1556TIP3    H1 4674   3.226   4.715   4.003
 1556TIP3    H2 4675   3.146   4.661   3.887
 1557TIP3   OH2 4676   5.566   0.545   2.859
 1557TIP3    H1 4677   5.577   0.486   2.784
 1557TIP3    H2 4678   5.532   0.489   2.929
 1558TIP3   OH2 4679   2.676   2.116   4.845
 1558TIP3    H1 4680   2.744   2.065   4.802
 1558TIP3    H2 4681   2.663   2.192   4.789
 1559TIP3   OH2 4682   0.382   4.774   0.787
 1559TIP3    H1 4683   0.311   4.737   0.840
 1559TIP3    H2 4684   0.459   4.724   0.812
 1560TIP3   OH2 4685   3.257   1.465   3.331
 1560TIP3    H1 4686   3.164   1.470   3.353
 1560TIP3    H2 4687   3.298   1.423   3.407
 1561TIP3   OH2 4688   6.136   5.351   1.609
 1561TIP3    H1 4689   6.161   5.308   1.527
 1561TIP3    H2 4690   6.046   5.324   1.624
 1562TIP3   OH2 4691   1.326   2.852   0.884
 1562TIP3    H1 4692   1.257   2.885   0.942
 1562TIP3    H2 4693   1.403   2.843   0.941
 1563TIP3   OH2 4694   4.530   2.028   2.080
 1563TIP3    H1 4695   4.505   2.016   2.172
 1563TIP3    H2 4696   4.470   1.972   2.031
 1564TIP3   OH2 4697   0.802   1.488   0.128
 1564TIP3    H1 4698   0.878   1.532   0.167
 1564TIP3    H2 4699   0.793   1.527   0.042
 1565TIP3   OH2 4700   3.178   0.573   0.092
 1565TIP3    H1 4701   3.230   0.539   0.019
 1565TIP3    H2 4702   3.165   0.498   0.150
 1566TIP3   OH2 4703   1.866   0.315   1.826
 1566TIP3    H1 4704   1.884   0.375   1.753
 1566TIP3    H2 4705   1.822   0.241   1.785
 1567TIP3   OH2 4706   3.911   5.514   2.187
 1567TIP3    H1 4707   3.933   5.591   2.134
 1567TIP3    H2 4708   3.948   5.532   2.273
 1568TIP3   OH2 4709   0.266   5.475   0.696
 1568TIP3    H1 4710   0.177   5.509   0.704
 1568TIP3    H2 4711   0.255   5.387   0.659
 1569TIP3   OH2 4712   2.385   3.355   1.488
 1569TIP3    H1 4713   2.371   3.269   1.529
 1569TIP3    H2 4714   2.361   3.341   1.397
 1570TIP3   OH2 4715   5.019   3.518   0.116
 1570TIP3    H1 4716   5.000   3.463   0.193
 1570TIP3    H2 4717   5.036   3.455   0.046
 1571TIP3   OH2 4718   2.604   5.921   4.221
 1571TIP3    H1 4719   2.683   5.975   4.225
 1571TIP3    H2 4720   2.621   5.849   4.282
 1572TIP3   OH2 4721   3.080   5.871   4.089
 1572TIP3    H1 4722   3.018   5.829   4.030
 1572TIP3    H2 4723   3.073   5.822   4.171
 1573TIP3   OH2 4724   5.574   4.814   3.307
 1573TIP3    H1 4725   5.571   4.853   3.395
 1573TIP3    H2 4726   5.497   4.849   3.263
 1574TIP3   OH2 4727   1.133   1.994   3.720
 1574TIP3    H1 4728   1.154   2.014   3.811
 1574TIP3    H2 4729   1.202   1.933   3.693
 1575TIP3   OH2 4730   4.958   1.780   3.072
 1575TIP3    H1 4731   4.905   1.748   2.999
 1575TIP3    H2 4732   5.035   1.723   3.072
 1576TIP3   OH2 4733   1.278   1.845   4.136
 1576TIP3    H1 4734   1.213   1.859   4.066
 1576TIP3    H2 4735   1.344   1.911   4.121
 1577TIP3   OH2 4736   5.744   1.308   0.448
 1577TIP3    H1 4737   5.681   1.330   0.518
 1577TIP3    H2 4738   5.739   1.213   0.440
 1578TIP3   OH2 4739   5.059   1.303   2.026
 1578TIP3    H1 4740   5.017   1.380   2.065
 1578TIP3    H2 4741   5.137   1.289   2.079
 1579TIP3   OH2 4742   6.029   2.563   2.635
 1579TIP3    H1 4743   6.035   2.556   2.540
 1579TIP3    H2 4744   6.014   2.473   2.664
 1580TIP3   OH2 4745   3.265   1.024   1.339
 1580TIP3    H1 4746   3.252   0.948   1.397
 1580TIP3    H2 4747   3.360   1.038   1.341
 1581TIP3   OH2 4748   0.096   3.858   2.164
 1581TIP3    H1 4749   0.036   3.823   2.098
 1581TIP3    H2 4750   0.112   3.784   2.223
 1582TIP3   OH2 4751   1.786   5.810   4.224
 1582TIP3    H1 4752   1.877   5.782   4.218
 1582TIP3    H2 4753   1.755   5.774   4.307
 1583TIP3   OH2 4754   1.720   1.055   4.146
 1583TIP3    H1 4755   1.667   1.030   4.221
 1583TIP3    H2 4756   1.682   1.138   4.116
 1584TIP3   OH2 4757   0.635   1.206   5.057
 1584TIP3    H1 4758   0.562   1.145   5.063
 1584TIP3    H2 4759   0.623   1.248   4.971
 1585TIP3   OH2 4760   3.005   1.800   3.140
 1585TIP3    H1 4761   2.942   1.859   3.097
 1585TIP3    H2 4762   3.074   1.858   3.171
 1586TIP3   OH2 4763   0.175   1.164   4.557
 1586TIP3    H1 4764   0.223   1.157   4.640
 1586TIP3    H2 4765   0.124   1.083   4.552
 1587TIP3   OH2 4766   2.551   1.253   4.673
 1587TIP3    H1 4767   2.566   1.335   4.721
 1587TIP3    H2 4768   2.537   1.281   4.583
 1588TIP3   OH2 4769   1.275   2.588   1.731
 1588TIP3    H1 4770   1.367   2.592   1.757
 1588TIP3    H2 4771   1.247   2.500   1.756
 1589TIP3   OH2 4772   4.174   3.142   3.463
 1589TIP3    H1 4773   4.213   3.056   3.448
 1589TIP3    H2 4774   4.247   3.203   3.456
 1590TIP3   OH2 4775   4.298   1.384   0.609
 1590TIP3    H1 4776   4.352   1.306   0.601
 1590TIP3    H2 4777   4.212   1.351   0.634
 1591TIP3   OH2 4778   5.789   2.138   0.935
 1591TIP3    H1 4779   5.708   2.187   0.918
 1591TIP3    H2 4780   5.859   2.196   0.906
 1592TIP3   OH2 4781   3.794   4.382   1.756
 1592TIP3    H1 4782   3.782   4.308   1.697
 1592TIP3    H2 4783   3.705   4.404   1.785
 1593TIP3   OH2 4784   5.704   0.710   1.694
 1593TIP3    H1 4785   5.634   0.693   1.757
 1593TIP3    H2 4786   5.780   0.732   1.747
 1594TIP3   OH2 4787   2.087   4.306   1.194
 1594TIP3    H1 4788   2.028   4.276   1.263
 1594TIP3    H2 4789   2.159   4.350   1.241
 1595TIP3   OH2 4790   2.934   3.300   3.064
 1595TIP3    H1 4791   3.010   3.348   3.096
 1595TIP3    H2 4792   2.966   3.252   2.988
 1596TIP3   OH2 4793   0.113   0.383   0.651
 1596TIP3    H1 4794   0.144   0.471   0.628
 1596TIP3    H2 4795   0.032   0.399   0.699
 1597TIP3   OH2 4796   0.771   0.435   0.634
 1597TIP3    H1 4797   0.727   0.503   0.685
 1597TIP3    H2 4798   0.704   0.369   0.618
 1598TIP3   OH2 4799   5.681   4.020   0.681
 1598TIP3    H1 4800   5.612   3.989   0.739
 1598TIP3    H2 4801   5.694   3.949   0.618
 1599TIP3   OH2 4802   5.376   1.809   0.356
 1599TIP3    H1 4803   5.407   1.773   0.273
 1599TIP3    H2 4804   5.289   1.842   0.338
 1600TIP3   OH2 4805   5.339   4.591   4.726
 1600TIP3    H1 4806   5.388   4.560   4.650
 1600TIP3    H2 4807   5.344   4.518   4.788
 1601TIP3   OH2 4808   1.578   5.930   3.531
 1601TIP3    H1 4809   1.552   6.021   3.540
 1601TIP3    H2 4810   1.579   5.897   3.621
 1602TIP3   OH2 4811   2.302   2.042   1.268
 1602TIP3    H1 4812   2.286   2.069   1.177
 1602TIP3    H2 4813   2.241   2.096   1.320
 1603TIP3   OH2 4814   0.685   3.159   4.271
 1603TIP3    H1 4815   0.756   3.197   4.219
 1603TIP3    H2 4816   0.679   3.215   4.348
 1604TIP3   OH2 4817   4.169   0.169   0.495
 1604TIP3    H1 4818   4.089   0.120   0.476
 1604TIP3    H2 4819   4.224   0.156   0.418
 1605TIP3   OH2 4820   2.204   5.007   0.324
 1605TIP3    H1 4821   2.170   5.075   0.382
 1605TIP3    H2 4822   2.270   4.961   0.376
 1606TIP3   OH2 4823   2.955   4.858   1.371
 1606TIP3    H1 4824   2.917   4.794   1.431
 1606TIP3    H2 4825   3.020   4.905   1.424
 1607TIP3   OH2 4826   3.460   2.642   3.690
 1607TIP3    H1 4827   3.367   2.627   3.677
 1607TIP3    H2 4828   3.483   2.589   3.767
 1608TIP3   OH2 4829   4.811   3.645   4.855
 1608TIP3    H1 4830   4.832   3.701   4.929
 1608TIP3    H2 4831   4.824   3.701   4.778
 1609TIP3   OH2 4832   6.247   3.117   0.148
 1609TIP3    H1 4833   6.276   3.180   0.082
 1609TIP3    H2 4834   6.154   3.137   0.161
 1610TIP3   OH2 4835   2.470   0.648   0.816
 1610TIP3    H1 4836   2.510   0.657   0.729
 1610TIP3    H2 4837   2.436   0.735   0.836
 1611TIP3   OH2 4838   2.709   0.128   0.680
 1611TIP3    H1 4839   2.628   0.090   0.713
 1611TIP3    H2 4840   2.773   0.113   0.749
 1612TIP3   OH2 4841   1.780   4.485   3.492
 1612TIP3    H1 4842   1.768   4.402   3.539
 1612TIP3    H2 4843   1.819   4.544   3.557
 1613TIP3   OH2 4844   3.398   4.449   3.467
 1613TIP3    H1 4845   3.462   4.378   3.469
 1613TIP3    H2 4846   3.429   4.508   3.397
 1614TIP3   OH2 4847   5.129   2.448   4.945
 1614TIP3    H1 4848   5.094   2.458   4.856
 1614TIP3    H2 4849   5.063   2.396   4.991
 1615TIP3   OH2 4850   2.868   3.506   4.078
 1615TIP3    H1 4851   2.915   3.423   4.074
 1615TIP3    H2 4852   2.793   3.495   4.020
 1616TIP3   OH2 4853   0.902   2.225   4.526
 1616TIP3    H1 4854   0.898   2.299   4.465
 1616TIP3    H2 4855   0.930   2.151   4.472
 1617TIP3   OH2 4856   0.646   2.639   4.957
 1617TIP3    H1 4857   0.574   2.601   4.907
 1617TIP3    H2 4858   0.679   2.709   4.901
 1618TIP3   OH2 4859   3.233   1.551   4.914
 1618TIP3    H1 4860   3.151   1.600   4.918
 1618TIP3    H2 4861   3.206   1.459   4.915
 1619TIP3   OH2 4862   4.817   3.377   1.774
 1619TIP3    H1 4863   4.723   3.360   1.770
 1619TIP3    H2 4864   4.849   3.357   1.686
 1620TIP3   OH2 4865   1.083   5.549   2.690
 1620TIP3    H1 4866   1.042   5.535   2.775
 1620TIP3    H2 4867   1.053   5.636   2.663
 1621TIP3   OH2 4868   5.935   5.655   1.029
 1621TIP3    H1 4869   5.931   5.646   0.934
 1621TIP3    H2 4870   5.862   5.713   1.051
 1622TIP3   OH2 4871   5.576   1.243   2.788
 1622TIP3    H1 4872   5.497   1.189   2.782
 1622TIP3    H2 4873   5.572   1.299   2.710
 1623TIP3   OH2 4874   4.313   2.746   3.149
 1623TIP3    H1 4875   4.386   2.807   3.155
 1623TIP3    H2 4876   4.301   2.734   3.055
 1624TIP3   OH2 4877   0.284   3.347   1.676
 1624TIP3    H1 4878   0.224   3.421   1.689
 1624TIP3    H2 4879   0.240   3.294   1.609
 1625TIP3   OH2 4880   0.077   2.477   3.011
 1625TIP3    H1 4881   0.015   2.503   2.943
 1625TIP3    H2 4882   0.127   2.405   2.973
 1626TIP3   OH2 4883   4.582   5.657   0.627
 1626TIP3    H1 4884   4.581   5.600   0.704
 1626TIP3    H2 4885   4.628   5.735   0.656
 1627TIP3   OH2 4886   0.205   3.327   3.355
 1627TIP3    H1 4887   0.125   3.376   3.373
 1627TIP3    H2 4888   0.275   3.392   3.362
 1628TIP3   OH2 4889   5.799   1.352   1.659
 1628TIP3    H1 4890   5.721   1.299   1.671
 1628TIP3    H2 4891   5.792   1.420   1.727
 1629TIP3   OH2 4892   5.550   5.612   1.280
 1629TIP3    H1 4893   5.645   5.618   1.289
 1629TIP3    H2 4894   5.536   5.545   1.213
 1630TIP3   OH2 4895   2.588   5.734   1.390
 1630TIP3    H1 4896   2.515   5.794   1.374
 1630TIP3    H2 4897   2.637   5.733   1.308
 1631TIP3   OH2 4898   5.347   5.822   2.198
 1631TIP3    H1 4899   5.434   5.815   2.158
 1631TIP3    H2 4900   5.364   5.834   2.291
 1632TIP3   OH2 4901   3.778   1.187   4.507
 1632TIP3    H1 4902   3.707   1.156   4.564
 1632TIP3    H2 4903   3.733   1.233   4.436
 1633TIP3   OH2 4904   0.609   2.155   2.868
 1633TIP3    H1 4905   0.556   2.076   2.858
 1633TIP3    H2 4906   0.552   2.217   2.913
 1634TIP3   OH2 4907   6.108   0.478   3.159
 1634TIP3    H1 4908   6.107   0.487   3.254
 1634TIP3    H2 4909   6.127   0.567   3.127
 1635TIP3   OH2 4910   3.698   3.470   3.759
 1635TIP3    H1 4911   3.792   3.473   3.774
 1635TIP3    H2 4912   3.682   3.382   3.723
 1636TIP3   OH2 4913   2.894   5.011   1.786
 1636TIP3    H1 4914   2.813   5.013   1.735
 1636TIP3    H2 4915   2.902   4.921   1.816
 1637TIP3   OH2 4916   2.106   1.364   4.026
 1637TIP3    H1 4917   2.081   1.272   4.019
 1637TIP3    H2 4918   2.142   1.373   4.115
 1638TIP3   OH2 4919   4.921   3.951   4.270
 1638TIP3    H1 4920   4.834   3.973   4.302
 1638TIP3    H2 4921   4.979   4.017   4.309
 1639TIP3   OH2 4922   3.774   4.340   3.198
 1639TIP3    H1 4923   3.692   4.380   3.168
 1639TIP3    H2 4924   3.833   4.348   3.123
 1640TIP3   OH2 4925   2.340   0.034   0.914
 1640TIP3    H1 4926   2.397  -0.020   0.970
 1640TIP3    H2 4927   2.348  -0.005   0.827
 1641TIP3   OH2 4928   2.167   4.540   1.378
 1641TIP3    H1 4929   2.164   4.626   1.337
 1641TIP3    H2 4930   2.228   4.550   1.451
 1642TIP3   OH2 4931   0.331   2.808   0.876
 1642TIP3    H1 4932   0.309   2.877   0.813
 1642TIP3    H2 4933   0.423   2.787   0.857
 1643TIP3   OH2 4934   1.501   5.509   1.809
 1643TIP3    H1 4935   1.586   5.554   1.804
 1643TIP3    H2 4936   1.513   5.445   1.879
 1644TIP3   OH2 4937   3.573   5.032   0.582
 1644TIP3    H1 4938   3.569   5.082   0.664
 1644TIP3    H2 4939   3.498   4.972   0.587
 1645TIP3   OH2 4940   0.021   3.730   2.698
 1645TIP3    H1 4941   0.084   3.731   2.769
 1645TIP3    H2 4942   0.046   3.803   2.642
 1646TIP3   OH2 4943   5.628   3.335   0.354
 1646TIP3    H1 4944   5.678   3.288   0.288
 1646TIP3    H2 4945   5.589   3.409   0.307
 1647TIP3   OH2 4946   1.766   3.046   4.175
 1647TIP3    H1 4947   1.713   2.987   4.228
 1647TIP3    H2 4948   1.705   3.079   4.109
 1648TIP3   OH2 4949   0.615   4.247   3.790
 1648TIP3    H1 4950   0.522   4.231   3.771
 1648TIP3    H2 4951   0.655   4.260   3.704
 1649TIP3   OH2 4952   0.315   5.189   1.491
 1649TIP3    H1 4953   0.237   5.167   1.542
 1649TIP3    H2 4954   0.357   5.104   1.474
 1650TIP3   OH2 4955   5.222   5.332   5.110
 1650TIP3    H1 4956   5.262   5.246   5.122
 1650TIP3    H2 4957   5.280   5.378   5.050
 1651TIP3   OH2 4958   0.194   2.607   1.686
 1651TIP3    H1 4959   0.240   2.525   1.705
 1651TIP3    H2 4960   0.250   2.652   1.622
 1652TIP3   OH2 4961   3.101   5.938   0.785
 1652TIP3    H1 4962   3.124   6.002   0.852
 1652TIP3    H2 4963   3.066   5.864   0.834
 1653TIP3   OH2 4964   5.690   5.899   1.399
 1653TIP3    H1 4965   5.746   5.972   1.426
 1653TIP3    H2 4966   5.752   5.829   1.378
 1654TIP3   OH2 4967   5.585   4.186   4.335
 1654TIP3    H1 4968   5.593   4.246   4.262
 1654TIP3    H2 4969   5.675   4.174   4.366
 1655TIP3   OH2 4970   4.078   1.327   2.767
 1655TIP3    H1 4971   4.126   1.282   2.836
 1655TIP3    H2 4972   4.088   1.420   2.786
 1656TIP3   OH2 4973   5.043   3.619   4.513
 1656TIP3    H1 4974   5.078   3.631   4.424
 1656TIP3    H2 4975   5.061   3.528   4.534
 1657TIP3   OH2 4976   4.047   1.306   1.335
 1657TIP3    H1 4977   4.025   1.385   1.385
 1657TIP3    H2 4978   4.096   1.338   1.260
 1658TIP3   OH2 4979   3.658   4.153   4.580
 1658TIP3    H1 4980   3.753   4.154   4.567
 1658TIP3    H2 4981   3.623   4.126   4.496
 1659TIP3   OH2 4982   5.203   4.627   1.773
 1659TIP3    H1 4983   5.264   4.683   1.726
 1659TIP3    H2 4984   5.117   4.665   1.755
 1660TIP3   OH2 4985   6.243   3.795   4.894
 1660TIP3    H1 4986   6.280   3.853   4.827
 1660TIP3    H2 4987   6.230   3.852   4.970
 1661TIP3   OH2 4988   1.310   0.234   1.940
 1661TIP3    H1 4989   1.302   0.260   2.032
 1661TIP3    H2 4990   1.370   0.298   1.902
 1662TIP3   OH2 4991   1.319   2.241   4.649
 1662TIP3    H1 4992   1.369   2.214   4.573
 1662TIP3    H2 4993   1.267   2.164   4.673
 1663TIP3   OH2 4994   1.504   4.519   1.225
 1663TIP3    H1 4995   1.499   4.596   1.167
 1663TIP3    H2 4996   1.564   4.546   1.294
 1664TIP3   OH2 4997   2.369   4.126   2.741
 1664TIP3    H1 4998   2.329   4.212   2.735
 1664TIP3    H2 4999   2.462   4.143   2.756
 1665TIP3   OH2 5000   1.539   4.226   1.507
 1665TIP3    H1 5001   1.502   4.196   1.424
 1665TIP3    H2 5002   1.570   4.146   1.549
 1666TIP3   OH2 5003   6.218   3.113   1.620
 1666TIP3    H1 5004   6.256   3.071   1.698
 1666TIP3    H2 5005   6.224   3.206   1.638
 1667TIP3   OH2 5006   6.378   5.427   3.514
 1667TIP3    H1 5007   6.382   5.497   3.579
 1667TIP3    H2 5008   6.329   5.466   3.441
 1668TIP3   OH2 5009   0.927   5.611   0.767
 1668TIP3    H1 5010   0.937   5.686   0.709
 1668TIP3    H2 5011   0.993   5.549   0.737
 1669TIP3   OH2 5012   3.884   0.080   3.909
 1669TIP3    H1 5013   3.872   0.172   3.886
 1669TIP3    H2 5014   3.801   0.038   3.885
 1670TIP3   OH2 5015   1.326   0.755   3.760
 1670TIP3    H1 5016   1.354   0.840   3.794
 1670TIP3    H2 5017   1.333   0.764   3.665
 1671TIP3   OH2 5018   2.132   3.791   4.067
 1671TIP3    H1 5019   2.144   3.775   4.160
 1671TIP3    H2 5020   2.128   3.704   4.027
 1672TIP3   OH2 5021   0.989   4.142   3.950
 1672TIP3    H1 5022   1.042   4.096   3.886
 1672TIP3    H2 5023   0.901   4.104   3.941
 1673TIP3   OH2 5024   0.933   4.437   4.449
 1673TIP3    H1 5025   0.912   4.445   4.356
 1673TIP3    H2 5026   1.000   4.370   4.453
 1674TIP3   OH2 5027   4.610   0.633   3.954
 1674TIP3    H1 5028   4.649   0.573   4.017
 1674TIP3    H2 5029   4.547   0.581   3.905
 1675TIP3   OH2 5030   0.785   0.404   4.796
 1675TIP3    H1 5031   0.832   0.340   4.849
 1675TIP3    H2 5032   0.740   0.353   4.729
 1676TIP3   OH2 5033   1.457   3.515   1.141
 1676TIP3    H1 5034   1.417   3.548   1.222
 1676TIP3    H2 5035   1.438   3.582   1.076
 1677TIP3   OH2 5036   4.246   5.363   3.276
 1677TIP3    H1 5037   4.252   5.317   3.192
 1677TIP3    H2 5038   4.333   5.400   3.290
 1678TIP3   OH2 5039   2.873   4.712   1.579
 1678TIP3    H1 5040   2.812   4.735   1.649
 1678TIP3    H2 5041   2.866   4.617   1.572
 1679TIP3   OH2 5042   5.786   0.147   1.229
 1679TIP3    H1 5043   5.855   0.083   1.217
 1679TIP3    H2 5044   5.711   0.110   1.183
 1680TIP3   OH2 5045   4.660   2.364   0.641
 1680TIP3    H1 5046   4.701   2.374   0.555
 1680TIP3    H2 5047   4.626   2.452   0.661
 1681TIP3   OH2 5048   3.921   5.265   1.041
 1681TIP3    H1 5049   3.991   5.208   1.072
 1681TIP3    H2 5050   3.841   5.222   1.072
 1682TIP3   OH2 5051   5.801   3.420   1.024
 1682TIP3    H1 5052   5.717   3.428   0.980
 1682TIP3    H2 5053   5.791   3.468   1.106
 1683TIP3   OH2 5054   2.016   2.266   1.745
 1683TIP3    H1 5055   1.967   2.292   1.823
 1683TIP3    H2 5056   2.027   2.172   1.753
 1684TIP3   OH2 5057   2.574   1.778   4.752
 1684TIP3    H1 5058   2.619   1.763   4.669
 1684TIP3    H2 5059   2.495   1.827   4.728
 1685TIP3   OH2 5060   5.606   5.109   2.735
 1685TIP3    H1 5061   5.554   5.085   2.811
 1685TIP3    H2 5062   5.542   5.119   2.664
 1686TIP3   OH2 5063   3.903   5.415   2.509
 1686TIP3    H1 5064   3.826   5.443   2.559
 1686TIP3    H2 5065   3.867   5.359   2.440
 1687TIP3   OH2 5066   2.914   2.814   1.267
 1687TIP3    H1 5067   2.820   2.829   1.255
 1687TIP3    H2 5068   2.949   2.813   1.178
 1688TIP3   OH2 5069   1.801   5.347   2.085
 1688TIP3    H1 5070   1.832   5.323   1.998
 1688TIP3    H2 5071   1.881   5.355   2.138
 1689TIP3   OH2 5072   0.349   0.823   2.511
 1689TIP3    H1 5073   0.282   0.823   2.579
 1689TIP3    H2 5074   0.409   0.754   2.537
 1690TIP3   OH2 5075   1.102   3.172   0.253
 1690TIP3    H1 5076   1.072   3.263   0.253
 1690TIP3    H2 5077   1.070   3.137   0.169
 1691TIP3   OH2 5078   4.801   5.811   0.738
 1691TIP3    H1 5079   4.794   5.903   0.762
 1691TIP3    H2 5080   4.895   5.797   0.722
 1692TIP3   OH2 5081   2.712   5.383   0.887
 1692TIP3    H1 5082   2.788   5.407   0.939
 1692TIP3    H2 5083   2.680   5.302   0.928
 1693TIP3   OH2 5084   2.994   3.587   2.895
 1693TIP3    H1 5085   3.049   3.651   2.939
 1693TIP3    H2 5086   3.056   3.528   2.851
 1694TIP3   OH2 5087   4.812   4.535   2.994
 1694TIP3    H1 5088   4.744   4.572   3.051
 1694TIP3    H2 5089   4.766   4.518   2.912
 1695TIP3   OH2 5090   4.250   1.087   1.810
 1695TIP3    H1 5091   4.238   1.130   1.725
 1695TIP3    H2 5092   4.341   1.056   1.808
 1696TIP3   OH2 5093   3.236   2.920   3.574
 1696TIP3    H1 5094   3.212   3.010   3.552
 1696TIP3    H2 5095   3.258   2.880   3.491
 1697TIP3   OH2 5096   2.882   0.326   2.160
 1697TIP3    H1 5097   2.877   0.420   2.139
 1697TIP3    H2 5098   2.826   0.315   2.236
 1698TIP3   OH2 5099   4.514   2.115   2.392
 1698TIP3    H1 5100   4.608   2.129   2.382
 1698TIP3    H2 5101   4.506   2.033   2.441
 1699TIP3   OH2 5102   1.204   4.901   2.416
 1699TIP3    H1 5103   1.214   4.927   2.324
 1699TIP3    H2 5104   1.293   4.903   2.451
 1700TIP3   OH2 5105   0.458   3.315   0.073
 1700TIP3    H1 5106   0.459   3.398   0.120
 1700TIP3    H2 5107   0.432   3.251   0.139
 1701TIP3   OH2 5108   2.017   4.325   3.775
 1701TIP3    H1 5109   2.073   4.397   3.804
 1701TIP3    H2 5110   1.946   4.322   3.838
 1702TIP3   OH2 5111   4.648   4.988   3.173
 1702TIP3    H1 5112   4.580   4.973   3.107
 1702TIP3    H2 5113   4.623   4.934   3.247
 1703TIP3   OH2 5114   4.216   3.297   4.833
 1703TIP3    H1 5115   4.145   3.262   4.888
 1703TIP3    H2 5116   4.211   3.245   4.753
 1704TIP3   OH2 5117   6.312   5.393   4.748
 1704TIP3    H1 5118   6.241   5.330   4.762
 1704TIP3    H2 5119   6.302   5.457   4.818
 1705TIP3   OH2 5120   0.232   4.437   1.880
 1705TIP3    H1 5121   0.208   4.384   1.956
 1705TIP3    H2 5122   0.203   4.525   1.902
 1706TIP3   OH2 5123   6.067   4.737   3.404
 1706TIP3    H1 5124   6.110   4.714   3.487
 1706TIP3    H2 5125   6.138   4.767   3.348
 1707TIP3   OH2 5126   5.820   3.879   1.495
 1707TIP3    H1 5127   5.859   3.890   1.582
 1707TIP3    H2 5128   5.841   3.961   1.449
 1708TIP3   OH2 5129   0.040   0.855   2.422
 1708TIP3    H1 5130   0.113   0.824   2.369
 1708TIP3    H2 5131  -0.038   0.837   2.369
 1709TIP3   OH2 5132   0.244   3.972   1.340
 1709TIP3    H1 5133   0.305   4.037   1.303
 1709TIP3    H2 5134   0.183   3.954   1.268
 1710TIP3   OH2 5135   1.131   2.385   2.033
 1710TIP3    H1 5136   1.167   2.368   1.946
 1710TIP3    H2 5137   1.207   2.391   2.091
 1711TIP3   OH2 5138   1.129   0.890   4.018
 1711TIP3    H1 5139   1.058   0.889   3.955
 1711TIP3    H2 5140   1.167   0.802   4.013
 1712TIP3   OH2 5141   1.405   4.002   5.058
 1712TIP3    H1 5142   1.398   4.000   5.154
 1712TIP3    H2 5143   1.496   3.979   5.041
 1713TIP3   OH2 5144   3.501   5.120   3.889
 1713TIP3    H1 5145   3.504   5.198   3.833
 1713TIP3    H2 5146   3.591   5.090   3.895
 1714TIP3   OH2 5147   6.087   0.125   1.863
 1714TIP3    H1 5148   6.117   0.085   1.945
 1714TIP3    H2 5149   6.052   0.051   1.812
 1715TIP3   OH2 5150   1.892   0.025   3.450
 1715TIP3    H1 5151   1.893  -0.070   3.451
 1715TIP3    H2 5152   1.800   0.048   3.465
 1716TIP3   OH2 5153   1.093   1.894   0.282
 1716TIP3    H1 5154   1.096   1.929   0.371
 1716TIP3    H2 5155   1.076   1.970   0.227
 1717TIP3   OH2 5156   0.283   5.623   1.256
 1717TIP3    H1 5157   0.333   5.579   1.188
 1717TIP3    H2 5158   0.228   5.686   1.209
 1718TIP3   OH2 5159   4.707   3.095   4.632
 1718TIP3    H1 5160   4.695   3.137   4.547
 1718TIP3    H2 5161   4.663   3.153   4.694
 1719TIP3   OH2 5162   5.187   1.070   0.893
 1719TIP3    H1 5163   5.113   1.096   0.949
 1719TIP3    H2 5164   5.226   1.153   0.866
 1720TIP3   OH2 5165   3.164   5.547   1.650
 1720TIP3    H1 5166   3.189   5.630   1.692
 1720TIP3    H2 5167   3.139   5.572   1.561
 1721TIP3   OH2 5168   0.349   5.592   0.467
 1721TIP3    H1 5169   0.274   5.605   0.409
 1721TIP3    H2 5170   0.310   5.577   0.553
 1722TIP3   OH2 5171   4.411   1.159   0.548
 1722TIP3    H1 5172   4.490   1.170   0.496
 1722TIP3    H2 5173   4.438   1.103   0.621
 1723TIP3   OH2 5174   0.502   4.210   4.501
 1723TIP3    H1 5175   0.437   4.186   4.434
 1723TIP3    H2 5176   0.510   4.305   4.493
 1724TIP3   OH2 5177   3.704   1.950   0.837
 1724TIP3    H1 5178   3.636   1.979   0.775
 1724TIP3    H2 5179   3.656   1.901   0.904
 1725TIP3   OH2 5180   2.227   3.180   2.881
 1725TIP3    H1 5181   2.247   3.266   2.844
 1725TIP3    H2 5182   2.213   3.124   2.805
 1726TIP3   OH2 5183   3.526   0.221   0.707
 1726TIP3    H1 5184   3.463   0.221   0.635
 1726TIP3    H2 5185   3.526   0.312   0.738
 1727TIP3   OH2 5186   2.290   1.234   0.592
 1727TIP3    H1 5187   2.362   1.174   0.611
 1727TIP3    H2 5188   2.263   1.267   0.678
 1728TIP3   OH2 5189   2.867   0.409   0.281
 1728TIP3    H1 5190   2.961   0.403   0.268
 1728TIP3    H2 5191   2.829   0.396   0.194
 1729TIP3   OH2 5192   4.441   4.956   1.824
 1729TIP3    H1 5193   4.444   4.869   1.784
 1729TIP3    H2 5194   4.455   4.939   1.918
 1730TIP3   OH2 5195   2.330   3.119   1.099
 1730TIP3    H1 5196   2.262   3.162   1.152
 1730TIP3    H2 5197   2.346   3.180   1.027
 1731TIP3   OH2 5198   0.640   1.181   3.284
 1731TIP3    H1 5199   0.702   1.177   3.357
 1731TIP3    H2 5200   0.589   1.260   3.301
 1732TIP3   OH2 5201   4.982   0.881   5.100
 1732TIP3    H1 5202   4.965   0.819   5.171
 1732TIP3    H2 5203   5.053   0.936   5.134
 1733TIP3   OH2 5204   0.770   4.848   1.000
 1733TIP3    H1 5205   0.849   4.897   1.022
 1733TIP3    H2 5206   0.739   4.815   1.084
 1734TIP3   OH2 5207   1.165   2.975   2.756
 1734TIP3    H1 5208   1.123   2.898   2.794
 1734TIP3    H2 5209   1.245   2.940   2.715
 1735TIP3   OH2 5210   0.414   4.646   4.366
 1735TIP3    H1 5211   0.351   4.586   4.407
 1735TIP3    H2 5212   0.480   4.588   4.328
 1736TIP3   OH2 5213   5.689   0.346   0.983
 1736TIP3    H1 5214   5.760   0.284   1.000
 1736TIP3    H2 5215   5.690   0.359   0.888
 1737TIP3   OH2 5216   2.911   0.940   3.622
 1737TIP3    H1 5217   2.939   1.014   3.568
 1737TIP3    H2 5218   2.960   0.951   3.704
 1738TIP3   OH2 5219   3.305   0.969   5.144
 1738TIP3    H1 5220   3.319   1.008   5.058
 1738TIP3    H2 5221   3.263   1.039   5.196
 1739TIP3   OH2 5222   5.825   1.769   4.059
 1739TIP3    H1 5223   5.865   1.855   4.045
 1739TIP3    H2 5224   5.736   1.778   4.024
 1740TIP3   OH2 5225   3.688   3.652   1.605
 1740TIP3    H1 5226   3.672   3.641   1.698
 1740TIP3    H2 5227   3.716   3.566   1.575
 1741TIP3   OH2 5228   3.381   5.815   4.114
 1741TIP3    H1 5229   3.291   5.816   4.083
 1741TIP3    H2 5230   3.375   5.788   4.206
 1742TIP3   OH2 5231   1.590   0.426   4.697
 1742TIP3    H1 5232   1.581   0.482   4.774
 1742TIP3    H2 5233   1.513   0.369   4.699
 1743TIP3   OH2 5234   2.433   0.126   4.023
 1743TIP3    H1 5235   2.510   0.133   3.967
 1743TIP3    H2 5236   2.450   0.050   4.078
 1744TIP3   OH2 5237   4.862   5.399   2.373
 1744TIP3    H1 5238   4.892   5.373   2.460
 1744TIP3    H2 5239   4.781   5.447   2.390
 1745TIP3   OH2 5240   0.423   0.506   4.481
 1745TIP3    H1 5241   0.462   0.486   4.567
 1745TIP3    H2 5242   0.465   0.446   4.421
 1746TIP3   OH2 5243   5.519   5.455   5.064
 1746TIP3    H1 5244   5.529   5.388   4.997
 1746TIP3    H2 5245   5.541   5.537   5.019
 1747TIP3   OH2 5246   5.971   2.387   3.072
 1747TIP3    H1 5247   5.992   2.480   3.078
 1747TIP3    H2 5248   6.044   2.342   3.114
 1748TIP3   OH2 5249   5.393   5.737   4.790
 1748TIP3    H1 5250   5.464   5.720   4.851
 1748TIP3    H2 5251   5.335   5.661   4.800
 1749TIP3   OH2 5252   1.540   4.531   3.351
 1749TIP3    H1 5253   1.610   4.498   3.407
 1749TIP3    H2 5254   1.505   4.606   3.397
 1750TIP3   OH2 5255   0.428   2.926   1.880
 1750TIP3    H1 5256   0.406   2.833   1.881
 1750TIP3    H2 5257   0.410   2.957   1.968
 1751TIP3   OH2 5258   1.043   0.162   2.077
 1751TIP3    H1 5259   1.080   0.193   2.159
 1751TIP3    H2 5260   1.120   0.145   2.021
 1752TIP3   OH2 5261   0.077   5.010   3.110
 1752TIP3    H1 5262   0.168   4.983   3.120
 1752TIP3    H2 5263   0.075   5.102   3.139
 1753TIP3   OH2 5264   3.393   3.504   1.757
 1753TIP3    H1 5265   3.415   3.455   1.678
 1753TIP3    H2 5266   3.388   3.595   1.729
 1754TIP3   OH2 5267   5.134   5.820   3.923
 1754TIP3    H1 5268   5.128   5.869   3.841
 1754TIP3    H2 5269   5.049   5.833   3.965
 1755TIP3   OH2 5270   5.845   4.348   4.510
 1755TIP3    H1 5271   5.901   4.387   4.577
 1755TIP3    H2 5272   5.813   4.422   4.459
 1756TIP3   OH2 5273   2.958   0.090   3.748
 1756TIP3    H1 5274   2.887   0.112   3.688
 1756TIP3    H2 5275   3.037   0.095   3.695
 1757TIP3   OH2 5276   5.346   1.638   2.612
 1757TIP3    H1 5277   5.282   1.609   2.548
 1757TIP3    H2 5278   5.333   1.733   2.618
 1758TIP3   OH2 5279   5.962   4.348   4.104
 1758TIP3    H1 5280   6.048   4.369   4.141
 1758TIP3    H2 5281   5.976   4.267   4.056
 1759TIP3   OH2 5282   5.320   5.084   5.137
 1759TIP3    H1 5283   5.408   5.057   5.113
 1759TIP3    H2 5284   5.277   5.003   5.167
 1760TIP3   OH2 5285   0.591   4.597   3.700
 1760TIP3    H1 5286   0.605   4.659   3.629
 1760TIP3    H2 5287   0.678   4.573   3.730
 1761TIP3   OH2 5288   4.645   0.425   1.495
 1761TIP3    H1 5289   4.714   0.485   1.467
 1761TIP3    H2 5290   4.688   0.368   1.559
 1762TIP3   OH2 5291   2.663   4.227   2.833
 1762TIP3    H1 5292   2.595   4.290   2.857
 1762TIP3    H2 5293   2.744   4.279   2.831
 1763TIP3   OH2 5294   1.574   5.195   4.644
 1763TIP3    H1 5295   1.495   5.161   4.603
 1763TIP3    H2 5296   1.644   5.136   4.613
 1764TIP3   OH2 5297   4.545   3.348   2.597
 1764TIP3    H1 5298   4.547   3.276   2.533
 1764TIP3    H2 5299   4.588   3.421   2.552
 1765TIP3   OH2 5300   5.230   3.831   2.112
 1765TIP3    H1 5301   5.290   3.821   2.185
 1765TIP3    H2 5302   5.147   3.857   2.152
 1766TIP3   OH2 5303   2.112   3.203   1.316
 1766TIP3    H1 5304   2.070   3.287   1.331
 1766TIP3    H2 5305   2.079   3.146   1.386
 1767TIP3   OH2 5306   1.558   2.868   3.350
 1767TIP3    H1 5307   1.467   2.891   3.334
 1767TIP3    H2 5308   1.554   2.790   3.405
 1768TIP3   OH2 5309   4.130   3.732   4.537
 1768TIP3    H1 5310   4.112   3.639   4.528
 1768TIP3    H2 5311   4.157   3.743   4.628
 1769TIP3   OH2 5312   1.209   3.235   2.813
 1769TIP3    H1 5313   1.223   3.141   2.803
 1769TIP3    H2 5314   1.140   3.243   2.879
 1770TIP3   OH2 5315   2.165   1.802   2.663
 1770TIP3    H1 5316   2.191   1.735   2.600
 1770TIP3    H2 5317   2.241   1.858   2.672
 1771TIP3   OH2 5318   0.808   0.410   0.330
 1771TIP3    H1 5319   0.825   0.425   0.423
 1771TIP3    H2 5320   0.894   0.393   0.292
 1772TIP3   OH2 5321   4.945   1.693   4.558
 1772TIP3    H1 5322   5.001   1.768   4.540
 1772TIP3    H2 5323   4.857   1.731   4.570
 1773TIP3   OH2 5324   2.540   5.254   3.007
 1773TIP3    H1 5325   2.594   5.219   3.078
 1773TIP3    H2 5326   2.568   5.205   2.930
 1774TIP3   OH2 5327   4.252   1.188   2.461
 1774TIP3    H1 5328   4.159   1.208   2.474
 1774TIP3    H2 5329   4.272   1.220   2.373
 1775TIP3   OH2 5330   6.289   4.802   3.265
 1775TIP3    H1 5331   6.369   4.847   3.292
 1775TIP3    H2 5332   6.252   4.857   3.196
 1776TIP3   OH2 5333   1.684   1.134   4.610
 1776TIP3    H1 5334   1.698   1.059   4.668
 1776TIP3    H2 5335   1.711   1.210   4.663
 1777TIP3   OH2 5336   1.023   4.700   0.328
 1777TIP3    H1 5337   1.070   4.618   0.345
 1777TIP3    H2 5338   1.043   4.755   0.404
 1778TIP3   OH2 5339   1.129   0.186   1.473
 1778TIP3    H1 5340   1.116   0.122   1.403
 1778TIP3    H2 5341   1.040   0.208   1.503
 1779TIP3   OH2 5342   2.988   2.034   1.199
 1779TIP3    H1 5343   3.019   2.111   1.151
 1779TIP3    H2 5344   2.900   2.059   1.228
 1780TIP3   OH2 5345   3.049   0.982   0.452
 1780TIP3    H1 5346   3.127   0.935   0.480
 1780TIP3    H2 5347   3.049   0.975   0.357
 1781TIP3   OH2 5348   4.123   2.463   0.814
 1781TIP3    H1 5349   4.028   2.450   0.808
 1781TIP3    H2 5350   4.155   2.385   0.858
 1782TIP3   OH2 5351   3.958   2.580   3.146
 1782TIP3    H1 5352   4.047   2.616   3.147
 1782TIP3    H2 5353   3.970   2.487   3.164
 1783TIP3   OH2 5354   2.761   0.514   0.513
 1783TIP3    H1 5355   2.824   0.475   0.574
 1783TIP3    H2 5356   2.805   0.509   0.427
 1784TIP3   OH2 5357   6.285   3.707   2.021
 1784TIP3    H1 5358   6.223   3.657   2.074
 1784TIP3    H2 5359   6.352   3.644   1.996
 1785TIP3   OH2 5360   3.204   5.339   1.833
 1785TIP3    H1 5361   3.185   5.412   1.773
 1785TIP3    H2 5362   3.167   5.368   1.917
 1786TIP3   OH2 5363   4.579   2.812   0.056
 1786TIP3    H1 5364   4.517   2.816   0.129
 1786TIP3    H2 5365   4.524   2.793  -0.020
 1787TIP3   OH2 5366   1.785   5.256   2.552
 1787TIP3    H1 5367   1.858   5.304   2.593
 1787TIP3    H2 5368   1.786   5.171   2.596
 1788TIP3   OH2 5369   6.115   3.797   2.773
 1788TIP3    H1 5370   6.206   3.770   2.764
 1788TIP3    H2 5371   6.076   3.779   2.688
 1789TIP3   OH2 5372   5.894   0.604   3.364
 1789TIP3    H1 5373   5.830   0.579   3.430
 1789TIP3    H2 5374   5.854   0.677   3.318
 1790TIP3   OH2 5375   1.112   4.174   1.696
 1790TIP3    H1 5376   1.204   4.182   1.725
 1790TIP3    H2 5377   1.108   4.225   1.616
 1791TIP3   OH2 5378   0.944   5.481   1.478
 1791TIP3    H1 5379   1.006   5.425   1.525
 1791TIP3    H2 5380   0.998   5.524   1.412
 1792TIP3   OH2 5381   3.389   4.109   1.174
 1792TIP3    H1 5382   3.335   4.033   1.199
 1792TIP3    H2 5383   3.460   4.071   1.122
 1793TIP3   OH2 5384   2.200   5.359   3.472
 1793TIP3    H1 5385   2.138   5.429   3.454
 1793TIP3    H2 5386   2.156   5.279   3.444
 1794TIP3   OH2 5387   3.627   4.409   1.262
 1794TIP3    H1 5388   3.679   4.445   1.190
 1794TIP3    H2 5389   3.660   4.320   1.274
 1795TIP3   OH2 5390   3.529   0.175   1.038
 1795TIP3    H1 5391   3.566   0.118   0.970
 1795TIP3    H2 5392   3.606   0.203   1.089
 1796TIP3   OH2 5393   3.707   4.226   3.898
 1796TIP3    H1 5394   3.796   4.229   3.864
 1796TIP3    H2 5395   3.667   4.150   3.857
 1797TIP3   OH2 5396   0.252   1.844   2.455
 1797TIP3    H1 5397   0.285   1.931   2.434
 1797TIP3    H2 5398   0.304   1.785   2.401
 1798TIP3   OH2 5399   2.250   1.236   5.193
 1798TIP3    H1 5400   2.300   1.314   5.219
 1798TIP3    H2 5401   2.316   1.166   5.191
 1799TIP3   OH2 5402   5.281   2.231   0.832
 1799TIP3    H1 5403   5.258   2.290   0.903
 1799TIP3    H2 5404   5.235   2.150   0.851
 1800TIP3   OH2 5405   1.708   3.072   1.181
 1800TIP3    H1 5406   1.711   3.092   1.274
 1800TIP3    H2 5407   1.797   3.090   1.150
 1801TIP3   OH2 5408   2.914   4.489   4.842
 1801TIP3    H1 5409   2.822   4.493   4.815
 1801TIP3    H2 5410   2.936   4.396   4.838
 1802TIP3   OH2 5411   1.559   0.662   2.400
 1802TIP3    H1 5412   1.633   0.715   2.370
 1802TIP3    H2 5413   1.534   0.609   2.324
 1803TIP3   OH2 5414   1.254   2.082   3.264
 1803TIP3    H1 5415   1.277   1.990   3.274
 1803TIP3    H2 5416   1.236   2.113   3.353
 1804TIP3   OH2 5417   3.606   1.614   3.567
 1804TIP3    H1 5418   3.571   1.700   3.545
 1804TIP3    H2 5419   3.590   1.560   3.489
 1805TIP3   OH2 5420   4.150   4.318   4.738
 1805TIP3    H1 5421   4.191   4.244   4.783
 1805TIP3    H2 5422   4.221   4.382   4.726
 1806TIP3   OH2 5423   5.598   2.652   4.415
 1806TIP3    H1 5424   5.650   2.573   4.400
 1806TIP3    H2 5425   5.663   2.721   4.426
 1807TIP3   OH2 5426   6.238   5.448   0.165
 1807TIP3    H1 5427   6.319   5.498   0.175
 1807TIP3    H2 5428   6.171   5.515   0.150
 1808TIP3   OH2 5429   0.837   5.789   0.404
 1808TIP3    H1 5430   0.850   5.722   0.336
 1808TIP3    H2 5431   0.818   5.869   0.355
 1809TIP3   OH2 5432   3.854   5.351   0.070
 1809TIP3    H1 5433   3.846   5.311   0.157
 1809TIP3    H2 5434   3.777   5.407   0.062
 1810TIP3   OH2 5435   1.868   2.024   0.046
 1810TIP3    H1 5436   1.816   2.034   0.126
 1810TIP3    H2 5437   1.944   2.080   0.060
 1811TIP3   OH2 5438   6.015   0.768   1.956
 1811TIP3    H1 5439   6.000   0.747   2.048
 1811TIP3    H2 5440   5.973   0.697   1.907
 1812TIP3   OH2 5441   4.584   3.739   3.670
 1812TIP3    H1 5442   4.669   3.748   3.627
 1812TIP3    H2 5443   4.598   3.772   3.759
 1813TIP3   OH2 5444   2.105   4.553   1.927
 1813TIP3    H1 5445   2.197   4.573   1.910
 1813TIP3    H2 5446   2.090   4.470   1.884
 1814TIP3   OH2 5447   2.711   3.586   0.220
 1814TIP3    H1 5448   2.711   3.577   0.125
 1814TIP3    H2 5449   2.685   3.500   0.253
 1815TIP3   OH2 5450   2.700   5.279   4.320
 1815TIP3    H1 5451   2.672   5.191   4.342
 1815TIP3    H2 5452   2.653   5.336   4.381
 1816TIP3   OH2 5453   5.641   1.806   2.507
 1816TIP3    H1 5454   5.596   1.882   2.469
 1816TIP3    H2 5455   5.640   1.822   2.601
 1817TIP3   OH2 5456   2.248   3.428   4.049
 1817TIP3    H1 5457   2.293   3.475   3.979
 1817TIP3    H2 5458   2.243   3.337   4.017
 1818TIP3   OH2 5459   5.617   0.328   1.895
 1818TIP3    H1 5460   5.558   0.252   1.887
 1818TIP3    H2 5461   5.669   0.310   1.973
 1819TIP3   OH2 5462   0.981   2.181   2.061
 1819TIP3    H1 5463   0.896   2.217   2.038
 1819TIP3    H2 5464   1.041   2.255   2.054
 1820TIP3   OH2 5465   3.747   0.994   2.487
 1820TIP3    H1 5466   3.722   0.941   2.411
 1820TIP3    H2 5467   3.808   0.939   2.536
 1821TIP3   OH2 5468   0.957   5.081   5.114
 1821TIP3    H1 5469   1.026   5.051   5.175
 1821TIP3    H2 5470   0.910   5.001   5.092
 1822TIP3   OH2 5471   0.100   4.601   0.906
 1822TIP3    H1 5472   0.125   4.515   0.939
 1822TIP3    H2 5473   0.040   4.636   0.972
 1823TIP3   OH2 5474   3.064   2.253   2.899
 1823TIP3    H1 5475   3.086   2.177   2.846
 1823TIP3    H2 5476   3.036   2.319   2.835
 1824TIP3   OH2 5477   3.962   0.032   5.077
 1824TIP3    H1 5478   3.985   0.077   4.996
 1824TIP3    H2 5479   4.046   0.007   5.115
 1825TIP3   OH2 5480   5.681   0.936   0.163
 1825TIP3    H1 5481   5.772   0.914   0.143
 1825TIP3    H2 5482   5.681   1.031   0.174
 1826TIP3   OH2 5483   1.478   0.562   4.501
 1826TIP3    H1 5484   1.529   0.513   4.565
 1826TIP3    H2 5485   1.389   0.563   4.536
 1827TIP3   OH2 5486   5.281   1.877   2.190
 1827TIP3    H1 5487   5.193   1.887   2.226
 1827TIP3    H2 5488   5.299   1.959   2.145
 1828TIP3   OH2 5489   0.653   3.586   3.715
 1828TIP3    H1 5490   0.731   3.596   3.660
 1828TIP3    H2 5491   0.594   3.533   3.662
 1829TIP3   OH2 5492   4.715   0.195   3.308
 1829TIP3    H1 5493   4.788   0.201   3.246
 1829TIP3    H2 5494   4.638   0.179   3.253
 1830TIP3   OH2 5495   3.515   4.984   3.440
 1830TIP3    H1 5496   3.469   5.001   3.358
 1830TIP3    H2 5497   3.555   5.067   3.463
 1831TIP3   OH2 5498   1.854   4.105   0.348
 1831TIP3    H1 5499   1.805   4.023   0.342
 1831TIP3    H2 5500   1.919   4.089   0.416
 1832TIP3   OH2 5501   1.714   2.679   4.377
 1832TIP3    H1 5502   1.717   2.683   4.472
 1832TIP3    H2 5503   1.744   2.591   4.355
 1833TIP3   OH2 5504   1.141   5.398   1.904
 1833TIP3    H1 5505   1.185   5.460   1.846
 1833TIP3    H2 5506   1.152   5.434   1.992
 1834TIP3   OH2 5507   0.154   5.682   4.811
 1834TIP3    H1 5508   0.195   5.612   4.863
 1834TIP3    H2 5509   0.210   5.758   4.824
 1835TIP3   OH2 5510   2.704   4.394   0.504
 1835TIP3    H1 5511   2.614   4.361   0.497
 1835TIP3    H2 5512   2.707   4.439   0.588
 1836TIP3   OH2 5513   6.043   4.234   3.325
 1836TIP3    H1 5514   6.114   4.256   3.385
 1836TIP3    H2 5515   5.996   4.316   3.313
 1837TIP3   OH2 5516   3.937   2.898   3.012
 1837TIP3    H1 5517   4.004   2.892   3.080
 1837TIP3    H2 5518   3.854   2.885   3.058
 1838TIP3   OH2 5519   4.859   5.301   0.508
 1838TIP3    H1 5520   4.864   5.397   0.503
 1838TIP3    H2 5521   4.778   5.284   0.556
 1839TIP3   OH2 5522   0.973   3.944   0.599
 1839TIP3    H1 5523   0.878   3.941   0.613
 1839TIP3    H2 5524   0.983   3.991   0.516
 1840TIP3   OH2 5525   4.567   3.318   1.713
 1840TIP3    H1 5526   4.502   3.307   1.643
 1840TIP3    H2 5527   4.603   3.230   1.726
 1841TIP3   OH2 5528   0.419   1.664   1.591
 1841TIP3    H1 5529   0.379   1.578   1.582
 1841TIP3    H2 5530   0.485   1.653   1.659
 1842TIP3   OH2 5531   3.810   4.993   0.203
 1842TIP3    H1 5532   3.835   5.072   0.251
 1842TIP3    H2 5533   3.728   4.965   0.244
 1843TIP3   OH2 5534   0.603   5.472   2.168
 1843TIP3    H1 5535   0.532   5.412   2.146
 1843TIP3    H2 5536   0.655   5.479   2.088
 1844TIP3   OH2 5537   1.222   1.952   2.272
 1844TIP3    H1 5538   1.246   2.043   2.287
 1844TIP3    H2 5539   1.269   1.903   2.339
 1845TIP3   OH2 5540   6.148   4.226   3.057
 1845TIP3    H1 5541   6.205   4.302   3.064
 1845TIP3    H2 5542   6.107   4.219   3.144
 1846TIP3   OH2 5543   2.901   5.516   3.465
 1846TIP3    H1 5544   2.851   5.436   3.484
 1846TIP3    H2 5545   2.849   5.586   3.503
 1847TIP3   OH2 5546   3.728   0.544   1.114
 1847TIP3    H1 5547   3.788   0.607   1.073
 1847TIP3    H2 5548   3.783   0.468   1.132
 1848TIP3   OH2 5549   5.819   5.930   3.225
 1848TIP3    H1 5550   5.879   5.972   3.164
 1848TIP3    H2 5551   5.752   5.890   3.169
 1849TIP3   OH2 5552   2.735   1.064   4.850
 1849TIP3    H1 5553   2.691   0.979   4.852
 1849TIP3    H2 5554   2.669   1.123   4.814
 1850TIP3   OH2 5555   1.793   3.772   3.233
 1850TIP3    H1 5556   1.804   3.719   3.154
 1850TIP3    H2 5557   1.873   3.826   3.237
 1851TIP3   OH2 5558   5.873   0.257   0.217
 1851TIP3    H1 5559   5.785   0.269   0.183
 1851TIP3    H2 5560   5.914   0.195   0.157
 1852TIP3   OH2 5561   4.232   0.287   4.847
 1852TIP3    H1 5562   4.275   0.309   4.764
 1852TIP3    H2 5563   4.228   0.192   4.848
 1853TIP3   OH2 5564   5.437   0.316   3.460
 1853TIP3    H1 5565   5.378   0.369   3.515
 1853TIP3    H2 5566   5.474   0.252   3.520
 1854TIP3   OH2 5567   3.322   1.562   0.155
 1854TIP3    H1 5568   3.233   1.528   0.155
 1854TIP3    H2 5569   3.349   1.559   0.247
 1855TIP3   OH2 5570   0.443   4.843   3.563
 1855TIP3    H1 5571   0.495   4.877   3.491
 1855TIP3    H2 5572   0.413   4.921   3.610
 1856TIP3   OH2 5573   1.626   3.400   5.145
 1856TIP3    H1 5574   1.563   3.393   5.217
 1856TIP3    H2 5575   1.653   3.491   5.145
 1857TIP3   OH2 5576   2.455   4.059   1.947
 1857TIP3    H1 5577   2.413   3.973   1.954
 1857TIP3    H2 5578   2.455   4.092   2.037
 1858TIP3   OH2 5579   3.413   3.794   1.860
 1858TIP3    H1 5580   3.407   3.823   1.951
 1858TIP3    H2 5581   3.334   3.827   1.819
 1859TIP3   OH2 5582   0.975   4.813   3.595
 1859TIP3    H1 5583   0.945   4.786   3.508
 1859TIP3    H2 5584   0.909   4.877   3.624
 1860TIP3   OH2 5585   5.341   0.784   3.111
 1860TIP3    H1 5586   5.396   0.787   3.032
 1860TIP3    H2 5587   5.297   0.699   3.106
 1861TIP3   OH2 5588   1.609   2.010   2.580
 1861TIP3    H1 5589   1.581   1.925   2.614
 1861TIP3    H2 5590   1.652   1.990   2.498
 1862TIP3   OH2 5591   2.290   2.002   3.549
 1862TIP3    H1 5592   2.263   2.017   3.459
 1862TIP3    H2 5593   2.375   1.958   3.542
 1863TIP3   OH2 5594   1.028   0.422   0.155
 1863TIP3    H1 5595   1.070   0.349   0.111
 1863TIP3    H2 5596   1.099   0.486   0.168
 1864TIP3   OH2 5597   0.541   4.669   2.553
 1864TIP3    H1 5598   0.508   4.727   2.485
 1864TIP3    H2 5599   0.608   4.616   2.509
 1865TIP3   OH2 5600   2.721   5.957   2.642
 1865TIP3    H1 5601   2.668   6.030   2.673
 1865TIP3    H2 5602   2.747   5.911   2.722
 1866TIP3   OH2 5603   5.280   1.966   5.088
 1866TIP3    H1 5604   5.204   1.913   5.111
 1866TIP3    H2 5605   5.259   2.054   5.118
 1867TIP3   OH2 5606   0.662   2.737   2.374
 1867TIP3    H1 5607   0.714   2.735   2.454
 1867TIP3    H2 5608   0.707   2.677   2.315
 1868TIP3   OH2 5609   4.558   4.419   0.037
 1868TIP3    H1 5610   4.601   4.466  -0.035
 1868TIP3    H2 5611   4.534   4.489   0.099
 1869TIP3   OH2 5612   0.284   0.658   0.843
 1869TIP3    H1 5613   0.346   0.711   0.892
 1869TIP3    H2 5614   0.271   0.706   0.761
 1870TIP3   OH2 5615   3.180   5.763   3.619
 1870TIP3    H1 5616   3.273   5.780   3.636
 1870TIP3    H2 5617   3.144   5.848   3.595
 1871TIP3   OH2 5618   5.770   6.029   1.910
 1871TIP3    H1 5619   5.849   6.002   1.863
 1871TIP3    H2 5620   5.802   6.077   1.986
 1872TIP3   OH2 5621   1.221   1.344   4.652
 1872TIP3    H1 5622   1.180   1.273   4.702
 1872TIP3    H2 5623   1.227   1.309   4.563
 1873TIP3   OH2 5624   1.162   1.585   5.016
 1873TIP3    H1 5625   1.194   1.567   5.105
 1873TIP3    H2 5626   1.113   1.666   5.025
 1874TIP3   OH2 5627   1.414   1.307   1.776
 1874TIP3    H1 5628   1.377   1.220   1.761
 1874TIP3    H2 5629   1.504   1.290   1.803
 1875TIP3   OH2 5630   2.976   0.616   2.403
 1875TIP3    H1 5631   3.026   0.625   2.322
 1875TIP3    H2 5632   3.003   0.532   2.439
 1876TIP3   OH2 5633   2.481   5.206   0.504
 1876TIP3    H1 5634   2.453   5.119   0.530
 1876TIP3    H2 5635   2.448   5.217   0.415
 1877TIP3   OH2 5636   5.688   0.270   4.373
 1877TIP3    H1 5637   5.680   0.220   4.454
 1877TIP3    H2 5638   5.659   0.209   4.305
 1878TIP3   OH2 5639   2.094   5.969   4.307
 1878TIP3    H1 5640   2.045   6.020   4.243
 1878TIP3    H2 5641   2.156   5.918   4.255
 1879TIP3   OH2 5642   1.247   5.102   2.963
 1879TIP3    H1 5643   1.291   5.017   2.953
 1879TIP3    H2 5644   1.233   5.111   3.057
 1880TIP3   OH2 5645   5.028   4.139   3.000
 1880TIP3    H1 5646   5.092   4.068   3.001
 1880TIP3    H2 5647   4.947   4.099   3.030
 1881TIP3   OH2 5648   5.900   4.802   4.816
 1881TIP3    H1 5649   5.813   4.778   4.846
 1881TIP3    H2 5650   5.885   4.858   4.740
 1882TIP3   OH2 5651   3.976   5.475   3.180
 1882TIP3    H1 5652   3.983   5.507   3.090
 1882TIP3    H2 5653   4.065   5.449   3.203
 1883TIP3   OH2 5654   1.759   5.450   4.220
 1883TIP3    H1 5655   1.679   5.503   4.229
 1883TIP3    H2 5656   1.830   5.512   4.234
 1884TIP3   OH2 5657   1.024   1.607   1.770
 1884TIP3    H1 5658   0.968   1.607   1.848
 1884TIP3    H2 5659   1.068   1.692   1.773
 1885TIP3   OH2 5660   3.598   2.645   1.064
 1885TIP3    H1 5661   3.540   2.617   0.993
 1885TIP3    H2 5662   3.667   2.695   1.020
 1886TIP3   OH2 5663   0.599   4.894   4.272
 1886TIP3    H1 5664   0.687   4.857   4.266
 1886TIP3    H2 5665   0.581   4.899   4.366
 1887TIP3   OH2 5666   5.263   2.034   3.026
 1887TIP3    H1 5667   5.253   1.952   2.977
 1887TIP3    H2 5668   5.186   2.039   3.082
 1888TIP3   OH2 5669   0.927   5.525   3.278
 1888TIP3    H1 5670   0.865   5.563   3.216
 1888TIP3    H2 5671   0.983   5.468   3.225
 1889TIP3   OH2 5672   1.787   2.283   1.511
 1889TIP3    H1 5673   1.777   2.191   1.535
 1889TIP3    H2 5674   1.795   2.329   1.594
 1890TIP3   OH2 5675   1.925   5.270   3.930
 1890TIP3    H1 5676   1.845   5.319   3.951
 1890TIP3    H2 5677   1.894   5.187   3.895
 1891TIP3   OH2 5678   1.886   2.415   4.693
 1891TIP3    H1 5679   1.856   2.404   4.784
 1891TIP3    H2 5680   1.823   2.364   4.642
 1892TIP3   OH2 5681  -0.069   2.216   4.855
 1892TIP3    H1 5682  -0.151   2.256   4.884
 1892TIP3    H2 5683  -0.005   2.287   4.856
 1893TIP3   OH2 5684   1.496   5.492   4.764
 1893TIP3    H1 5685   1.430   5.484   4.695
 1893TIP3    H2 5686   1.491   5.408   4.811
 1894TIP3   OH2 5687   4.139   5.845   2.995
 1894TIP3    H1 5688   4.101   5.892   3.069
 1894TIP3    H2 5689   4.173   5.915   2.938
 1895TIP3   OH2 5690   5.886   0.121   0.945
 1895TIP3    H1 5691   5.880   0.041   0.998
 1895TIP3    H2 5692   5.861   0.094   0.857
 1896TIP3   OH2 5693   5.280   4.650   2.099
 1896TIP3    H1 5694   5.283   4.726   2.041
 1896TIP3    H2 5695   5.282   4.575   2.040
 1897TIP3   OH2 5696   4.055   5.681   0.179
 1897TIP3    H1 5697   4.112   5.607   0.200
 1897TIP3    H2 5698   4.106   5.733   0.116
 1898TIP3   OH2 5699   4.328   4.696   1.976
 1898TIP3    H1 5700   4.279   4.749   2.038
 1898TIP3    H2 5701   4.416   4.733   1.977
 1899TIP3   OH2 5702   0.688   1.913   1.803
 1899TIP3    H1 5703   0.619   1.956   1.753
 1899TIP3    H2 5704   0.687   1.822   1.773
 1900TIP3   OH2 5705   3.716   1.520   4.844
 1900TIP3    H1 5706   3.735   1.549   4.755
 1900TIP3    H2 5707   3.637   1.568   4.868
 1901TIP3   OH2 5708   4.441   2.156   2.977
 1901TIP3    H1 5709   4.504   2.108   3.029
 1901TIP3    H2 5710   4.417   2.232   3.031
 1902TIP3   OH2 5711   6.051   5.543   3.064
 1902TIP3    H1 5712   5.968   5.564   3.023
 1902TIP3    H2 5713   6.094   5.628   3.077
 1903TIP3   OH2 5714   6.156   2.154   2.256
 1903TIP3    H1 5715   6.173   2.229   2.198
 1903TIP3    H2 5716   6.097   2.189   2.323
 1904TIP3   OH2 5717   5.606   5.715   4.946
 1904TIP3    H1 5718   5.666   5.761   5.004
 1904TIP3    H2 5719   5.658   5.694   4.869
 1905TIP3   OH2 5720   5.680   2.243   3.557
 1905TIP3    H1 5721   5.603   2.262   3.505
 1905TIP3    H2 5722   5.706   2.154   3.531
 1906TIP3   OH2 5723   3.570   3.023   4.164
 1906TIP3    H1 5724   3.594   3.095   4.106
 1906TIP3    H2 5725   3.573   2.945   4.108
 1907TIP3   OH2 5726   3.143   1.330   2.314
 1907TIP3    H1 5727   3.145   1.424   2.297
 1907TIP3    H2 5728   3.074   1.296   2.257
 1908TIP3   OH2 5729   1.053   3.007   0.855
 1908TIP3    H1 5730   0.962   3.023   0.880
 1908TIP3    H2 5731   1.056   2.913   0.835
 1909TIP3   OH2 5732   6.207   4.404   4.184
 1909TIP3    H1 5733   6.291   4.397   4.140
 1909TIP3    H2 5734   6.228   4.425   4.275
 1910TIP3   OH2 5735   0.860   3.047   2.383
 1910TIP3    H1 5736   0.770   3.074   2.368
 1910TIP3    H2 5737   0.854   2.979   2.449
 1911TIP3   OH2 5738   6.052   1.368   3.410
 1911TIP3    H1 5739   6.041   1.274   3.414
 1911TIP3    H2 5740   6.144   1.381   3.386
 1912TIP3   OH2 5741   5.783   2.430   1.885
 1912TIP3    H1 5742   5.722   2.395   1.951
 1912TIP3    H2 5743   5.859   2.458   1.936
 1913TIP3   OH2 5744   4.059   3.503   2.902
 1913TIP3    H1 5745   4.004   3.490   2.979
 1913TIP3    H2 5746   4.016   3.572   2.852
 1914TIP3   OH2 5747   2.188   4.754   4.048
 1914TIP3    H1 5748   2.232   4.737   4.132
 1914TIP3    H2 5749   2.204   4.847   4.030
 1915TIP3   OH2 5750   0.446   3.113   0.703
 1915TIP3    H1 5751   0.464   3.118   0.797
 1915TIP3    H2 5752   0.381   3.182   0.688
 1916TIP3   OH2 5753   2.631   0.643   1.205
 1916TIP3    H1 5754   2.680   0.723   1.187
 1916TIP3    H2 5755   2.591   0.620   1.120
 1917TIP3   OH2 5756   4.946   0.955   4.438
 1917TIP3    H1 5757   4.953   0.888   4.371
 1917TIP3    H2 5758   4.934   0.906   4.520
 1918TIP3   OH2 5759   2.862   5.613   5.068
 1918TIP3    H1 5760   2.818   5.616   5.153
 1918TIP3    H2 5761   2.794   5.639   5.006
 1919TIP3   OH2 5762   5.284   0.832   0.806
 1919TIP3    H1 5763   5.367   0.813   0.762
 1919TIP3    H2 5764   5.281   0.928   0.810
 1920TIP3   OH2 5765   5.004   0.275   3.706
 1920TIP3    H1 5766   5.020   0.214   3.778
 1920TIP3    H2 5767   4.940   0.336   3.741
 1921TIP3   OH2 5768   0.173   2.295   2.325
 1921TIP3    H1 5769   0.191   2.281   2.231
 1921TIP3    H2 5770   0.152   2.388   2.332
 1922TIP3   OH2 5771   3.356   3.655   2.247
 1922TIP3    H1 5772   3.418   3.590   2.215
 1922TIP3    H2 5773   3.387   3.738   2.210
 1923TIP3   OH2 5774   5.734   3.685   0.305
 1923TIP3    H1 5775   5.756   3.622   0.237
 1923TIP3    H2 5776   5.658   3.732   0.270
 1924TIP3   OH2 5777   3.824   3.337   1.069
 1924TIP3    H1 5778   3.759   3.328   1.139
 1924TIP3    H2 5779   3.793   3.279   1.000
 1925TIP3   OH2 5780   2.693   2.900   1.985
 1925TIP3    H1 5781   2.712   2.975   2.042
 1925TIP3    H2 5782   2.664   2.831   2.045
 1926TIP3   OH2 5783   2.364   1.688   0.516
 1926TIP3    H1 5784   2.398   1.604   0.484
 1926TIP3    H2 5785   2.336   1.670   0.605
 1927TIP3   OH2 5786   1.794   1.233   5.124
 1927TIP3    H1 5787   1.729   1.186   5.072
 1927TIP3    H2 5788   1.745   1.306   5.162
 1928TIP3   OH2 5789   2.128   3.790   2.978
 1928TIP3    H1 5790   2.217   3.776   3.009
 1928TIP3    H2 5791   2.117   3.885   2.976
 1929TIP3   OH2 5792   3.018   2.955   3.736
 1929TIP3    H1 5793   3.051   2.950   3.647
 1929TIP3    H2 5794   3.000   3.048   3.750
 1930TIP3   OH2 5795   1.528   0.343   0.609
 1930TIP3    H1 5796   1.615   0.303   0.618
 1930TIP3    H2 5797   1.487   0.330   0.695
 1931TIP3   OH2 5798   1.696   4.229   4.832
 1931TIP3    H1 5799   1.749   4.309   4.835
 1931TIP3    H2 5800   1.683   4.205   4.924
 1932TIP3   OH2 5801   0.285   1.349   2.309
 1932TIP3    H1 5802   0.261   1.338   2.217
 1932TIP3    H2 5803   0.314   1.262   2.337
 1933TIP3   OH2 5804   5.635   4.066   4.985
 1933TIP3    H1 5805   5.688   3.987   4.975
 1933TIP3    H2 5806   5.604   4.086   4.897
 1934TIP3   OH2 5807   0.534   5.565   4.876
 1934TIP3    H1 5808   0.584   5.558   4.957
 1934TIP3    H2 5809   0.600   5.581   4.809
 1935TIP3   OH2 5810   2.923   0.114   0.867
 1935TIP3    H1 5811   2.997   0.075   0.915
 1935TIP3    H2 5812   2.911   0.199   0.909
 1936TIP3   OH2 5813   4.311   3.792   2.389
 1936TIP3    H1 5814   4.272   3.764   2.306
 1936TIP3    H2 5815   4.236   3.808   2.446
 1937TIP3   OH2 5816   2.141   4.568   5.036
 1937TIP3    H1 5817   2.071   4.605   5.090
 1937TIP3    H2 5818   2.189   4.510   5.096
 1938TIP3   OH2 5819   1.784   4.615   4.513
 1938TIP3    H1 5820   1.809   4.539   4.565
 1938TIP3    H2 5821   1.702   4.589   4.471
 1939TIP3   OH2 5822   2.588   1.953   1.930
 1939TIP3    H1 5823   2.541   1.899   1.994
 1939TIP3    H2 5824   2.525   2.021   1.905
 1940TIP3   OH2 5825   5.312   2.323   3.008
 1940TIP3    H1 5826   5.301   2.228   3.001
 1940TIP3    H2 5827   5.251   2.348   3.078
 1941TIP3   OH2 5828   2.422   3.718   1.345
 1941TIP3    H1 5829   2.478   3.655   1.389
 1941TIP3    H2 5830   2.478   3.795   1.331
 1942TIP3   OH2 5831   1.946   1.957   5.009
 1942TIP3    H1 5832   2.014   2.024   5.018
 1942TIP3    H2 5833   1.870   1.994   5.054
 1943TIP3   OH2 5834   6.316   2.717   2.350
 1943TIP3    H1 5835   6.261   2.653   2.306
 1943TIP3    H2 5836   6.379   2.664   2.399
 1944TIP3   OH2 5837   2.848   1.127   3.303
 1944TIP3    H1 5838   2.930   1.105   3.260
 1944TIP3    H2 5839   2.787   1.146   3.231
 1945TIP3   OH2 5840   2.438   4.529   0.910
 1945TIP3    H1 5841   2.355   4.511   0.955
 1945TIP3    H2 5842   2.419   4.604   0.853
 1946TIP3   OH2 5843   2.921   0.298   5.139
 1946TIP3    H1 5844   2.853   0.263   5.082
 1946TIP3    H2 5845   2.990   0.327   5.080
 1947TIP3   OH2 5846   1.520   3.336   4.886
 1947TIP3    H1 5847   1.533   3.343   4.981
 1947TIP3    H2 5848   1.499   3.426   4.859
 1948TIP3   OH2 5849   1.942   3.568   4.422
 1948TIP3    H1 5850   1.880   3.505   4.387
 1948TIP3    H2 5851   1.918   3.577   4.515
 1949TIP3   OH2 5852   4.368   3.824   3.271
 1949TIP3    H1 5853   4.350   3.851   3.181
 1949TIP3    H2 5854   4.283   3.820   3.313
 1950TIP3   OH2 5855   5.476   0.584   2.554
 1950TIP3    H1 5856   5.393   0.545   2.526
 1950TIP3    H2 5857   5.539   0.513   2.550
 1951TIP3   OH2 5858   2.871   2.608   0.233
 1951TIP3    H1 5859   2.881   2.515   0.214
 1951TIP3    H2 5860   2.778   2.618   0.254
 1952TIP3   OH2 5861   3.693   3.341   1.311
 1952TIP3    H1 5862   3.670   3.381   1.395
 1952TIP3    H2 5863   3.730   3.256   1.334
 1953TIP3   OH2 5864   3.451   1.663   1.471
 1953TIP3    H1 5865   3.451   1.570   1.450
 1953TIP3    H2 5866   3.363   1.682   1.502
 1954TIP3   OH2 5867   4.831   4.958   1.320
 1954TIP3    H1 5868   4.879   4.885   1.282
 1954TIP3    H2 5869   4.765   4.916   1.376
 1955TIP3   OH2 5870   6.089   0.676   0.134
 1955TIP3    H1 5871   6.043   0.636   0.207
 1955TIP3    H2 5872   6.029   0.667   0.060
 1956TIP3   OH2 5873   0.804   3.084   1.267
 1956TIP3    H1 5874   0.780   3.177   1.260
 1956TIP3    H2 5875   0.818   3.057   1.176
 1957TIP3   OH2 5876   5.552   3.200   0.658
 1957TIP3    H1 5877   5.637   3.212   0.615
 1957TIP3    H2 5878   5.557   3.113   0.697
 1958TIP3   OH2 5879   0.672   0.091   2.624
 1958TIP3    H1 5880   0.732   0.150   2.578
 1958TIP3    H2 5881   0.635   0.145   2.694
 1959TIP3   OH2 5882   0.920   1.666   4.245
 1959TIP3    H1 5883   0.941   1.636   4.334
 1959TIP3    H2 5884   0.903   1.585   4.196
 1960TIP3   OH2 5885   0.556   1.135   0.149
 1960TIP3    H1 5886   0.536   1.117   0.058
 1960TIP3    H2 5887   0.494   1.081   0.199
 1961TIP3   OH2 5888   2.494   5.872   3.436
 1961TIP3    H1 5889   2.536   5.924   3.505
 1961TIP3    H2 5890   2.477   5.935   3.366
 1962TIP3   OH2 5891   0.009   3.152   4.060
 1962TIP3    H1 5892   0.033   3.062   4.038
 1962TIP3    H2 5893   0.082   3.183   4.114
 1963TIP3   OH2 5894   3.380   4.367   0.239
 1963TIP3    H1 5895   3.454   4.313   0.265
 1963TIP3    H2 5896   3.339   4.393   0.322
 1964TIP3   OH2 5897   1.032   5.892   4.587
 1964TIP3    H1 5898   1.007   5.963   4.527
 1964TIP3    H2 5899   0.976   5.905   4.664
 1965TIP3   OH2 5900   0.769   0.699   0.332
 1965TIP3    H1 5901   0.833   0.706   0.402
 1965TIP3    H2 5902   0.768   0.605   0.310
 1966TIP3   OH2 5903   5.625   4.140   2.785
 1966TIP3    H1 5904   5.535   4.134   2.817
 1966TIP3    H2 5905   5.651   4.230   2.801
 1967TIP3   OH2 5906   5.319   1.561   2.073
 1967TIP3    H1 5907   5.297   1.473   2.104
 1967TIP3    H2 5908   5.366   1.601   2.147
 1968TIP3   OH2 5909   4.448   1.604   0.597
 1968TIP3    H1 5910   4.534   1.595   0.638
 1968TIP3    H2 5911   4.403   1.522   0.619
 1969TIP3   OH2 5912   3.768   1.751   1.665
 1969TIP3    H1 5913   3.861   1.769   1.675
 1969TIP3    H2 5914   3.750   1.767   1.572
 1970TIP3   OH2 5915   6.253   1.853   2.231
 1970TIP3    H1 5916   6.250   1.767   2.271
 1970TIP3    H2 5917   6.338   1.856   2.187
 1971TIP3   OH2 5918   4.226   3.085   2.666
 1971TIP3    H1 5919   4.297   3.132   2.710
 1971TIP3    H2 5920   4.160   3.153   2.649
 1972TIP3   OH2 5921   3.495   2.807   2.757
 1972TIP3    H1 5922   3.443   2.852   2.690
 1972TIP3    H2 5923   3.511   2.719   2.721
 1973TIP3   OH2 5924   1.273   0.562   0.162
 1973TIP3    H1 5925   1.246   0.649   0.189
 1973TIP3    H2 5926   1.343   0.577   0.098
 1974TIP3   OH2 5927   1.052   2.508   4.055
 1974TIP3    H1 5928   1.003   2.433   4.021
 1974TIP3    H2 5929   0.987   2.561   4.101
 1975TIP3   OH2 5930   5.222   4.418   1.264
 1975TIP3    H1 5931   5.315   4.408   1.288
 1975TIP3    H2 5932   5.215   4.509   1.237
 1976TIP3   OH2 5933   2.178   2.117   2.404
 1976TIP3    H1 5934   2.263   2.131   2.363
 1976TIP3    H2 5935   2.193   2.134   2.497
 1977TIP3   OH2 5936   0.614   2.255   3.255
 1977TIP3    H1 5937   0.536   2.233   3.305
 1977TIP3    H2 5938   0.581   2.287   3.171
 1978TIP3   OH2 5939   3.594   0.667   0.052
 1978TIP3    H1 5940   3.551   0.661   0.138
 1978TIP3    H2 5941   3.639   0.583   0.043
 1979TIP3   OH2 5942   5.813   3.840   5.046
 1979TIP3    H1 5943   5.807   3.762   4.990
 1979TIP3    H2 5944   5.806   3.806   5.135
 1980TIP3   OH2 5945   1.245   5.059   4.081
 1980TIP3    H1 5946   1.302   5.097   4.015
 1980TIP3    H2 5947   1.258   4.964   4.072
 1981TIP3   OH2 5948   6.215   4.517   1.579
 1981TIP3    H1 5949   6.282   4.459   1.545
 1981TIP3    H2 5950   6.195   4.482   1.666
 1982TIP3   OH2 5951   1.916   4.761   1.499
 1982TIP3    H1 5952   2.004   4.751   1.463
 1982TIP3    H2 5953   1.929   4.771   1.593
 1983TIP3   OH2 5954   6.215   5.465   2.097
 1983TIP3    H1 5955   6.256   5.444   2.013
 1983TIP3    H2 5956   6.123   5.479   2.075
 1984TIP3   OH2 5957   1.931   5.127   2.354
 1984TIP3    H1 5958   1.953   5.198   2.293
 1984TIP3    H2 5959   1.876   5.168   2.421
 1985TIP3   OH2 5960   0.931   5.598   4.903
 1985TIP3    H1 5961   0.968   5.509   4.901
 1985TIP3    H2 5962   0.998   5.650   4.948
 1986TIP3   OH2 5963   5.930   1.061   4.493
 1986TIP3    H1 5964   5.974   1.057   4.408
 1986TIP3    H2 5965   6.000   1.064   4.557
 1987TIP3   OH2 5966   0.722   2.031   3.522
 1987TIP3    H1 5967   0.695   2.105   3.577
 1987TIP3    H2 5968   0.808   2.006   3.556
 1988TIP3   OH2 5969   5.579   5.819   3.185
 1988TIP3    H1 5970   5.507   5.768   3.223
 1988TIP3    H2 5971   5.567   5.810   3.090
 1989TIP3   OH2 5972   3.839   0.373   1.618
 1989TIP3    H1 5973   3.872   0.457   1.586
 1989TIP3    H2 5974   3.775   0.345   1.552
 1990TIP3   OH2 5975   3.660   2.481   1.272
 1990TIP3    H1 5976   3.599   2.493   1.344
 1990TIP3    H2 5977   3.629   2.540   1.203
 1991TIP3   OH2 5978   3.119   1.725   3.454
 1991TIP3    H1 5979   3.084   1.636   3.452
 1991TIP3    H2 5980   3.147   1.742   3.364
 1992TIP3   OH2 5981   4.860   3.755   2.965
 1992TIP3    H1 5982   4.853   3.708   2.882
 1992TIP3    H2 5983   4.818   3.839   2.948
 1993TIP3   OH2 5984   1.924   1.128   1.263
 1993TIP3    H1 5985   1.842   1.080   1.253
 1993TIP3    H2 5986   1.939   1.132   1.357
 1994TIP3   OH2 5987   4.105   0.935   5.075
 1994TIP3    H1 5988   4.107   0.872   5.147
 1994TIP3    H2 5989   4.037   0.903   5.017
 1995TIP3   OH2 5990   0.872   3.465   2.110
 1995TIP3    H1 5991   0.797   3.461   2.051
 1995TIP3    H2 5992   0.948   3.466   2.052
 1996TIP3   OH2 5993   3.738   2.296   3.064
 1996TIP3    H1 5994   3.796   2.220   3.064
 1996TIP3    H2 5995   3.727   2.317   2.971
 1997TIP3   OH2 5996   1.111   0.585   1.569
 1997TIP3    H1 5997   1.105   0.509   1.512
 1997TIP3    H2 5998   1.159   0.554   1.646
 1998TIP3   OH2 5999   1.898   0.509   2.931
 1998TIP3    H1 6000   1.966   0.442   2.931
 1998TIP3    H2 6001   1.906   0.551   3.017
 1999TIP3   OH2 6002   0.191   2.315   2.838
 1999TIP3    H1 6003   0.182   2.226   2.804
 1999TIP3    H2 6004   0.181   2.371   2.761
 2000TIP3   OH2 6005   4.719   4.717   4.549
 2000TIP3    H1 6006   4.729   4.695   4.642
 2000TIP3    H2 6007   4.638   4.672   4.522
 2001TIP3   OH2 6008   2.534   1.614   1.080
 2001TIP3    H1 6009   2.544   1.703   1.045
 2001TIP3    H2 6010   2.480   1.625   1.157
 2002TIP3   OH2 6011   2.740   5.342   4.757
 2002TIP3    H1 6012   2.659   5.306   4.722
 2002TIP3    H2 6013   2.785   5.381   4.682
 2003TIP3   OH2 6014   4.393   1.764   2.013
 2003TIP3    H1 6015   4.369   1.689   1.960
 2003TIP3    H2 6016   4.391   1.732   2.104
 2004TIP3   OH2 6017   5.717   5.978   2.434
 2004TIP3    H1 6018   5.812   5.986   2.426
 2004TIP3    H2 6019   5.702   5.965   2.528
 2005TIP3   OH2 6020   5.599   3.978   0.392
 2005TIP3    H1 6021   5.561   3.921   0.325
 2005TIP3    H2 6022   5.529   4.038   0.416
 2006TIP3   OH2 6023   4.091   4.094   3.241
 2006TIP3    H1 6024   4.004   4.064   3.215
 2006TIP3    H2 6025   4.123   4.027   3.301
 2007TIP3   OH2 6026   4.250   5.772   0.964
 2007TIP3    H1 6027   4.170   5.772   1.016
 2007TIP3    H2 6028   4.321   5.779   1.028
 2008TIP3   OH2 6029   6.188   5.764   1.107
 2008TIP3    H1 6030   6.208   5.856   1.086
 2008TIP3    H2 6031   6.101   5.750   1.070
 2009TIP3   OH2 6032   3.849   0.641   5.122
 2009TIP3    H1 6033   3.888   0.721   5.087
 2009TIP3    H2 6034   3.786   0.614   5.056
 2010TIP3   OH2 6035   2.176   4.511   0.163
 2010TIP3    H1 6036   2.243   4.556   0.110
 2010TIP3    H2 6037   2.190   4.544   0.252
 2011TIP3   OH2 6038   2.862   3.703   2.636
 2011TIP3    H1 6039   2.823   3.664   2.557
 2011TIP3    H2 6040   2.875   3.630   2.695
 2012TIP3   OH2 6041   2.748   1.184   3.777
 2012TIP3    H1 6042   2.778   1.217   3.862
 2012TIP3    H2 6043   2.740   1.090   3.789
 2013TIP3   OH2 6044   1.498   5.147   1.241
 2013TIP3    H1 6045   1.526   5.222   1.294
 2013TIP3    H2 6046   1.574   5.088   1.241
 2014TIP3   OH2 6047   2.802   5.579   2.755
 2014TIP3    H1 6048   2.738   5.597   2.686
 2014TIP3    H2 6049   2.810   5.662   2.802
 2015TIP3   OH2 6050   2.371   3.080   1.866
 2015TIP3    H1 6051   2.280   3.074   1.837
 2015TIP3    H2 6052   2.414   3.004   1.827
 2016TIP3   OH2 6053   6.336   1.258   1.268
 2016TIP3    H1 6054   6.259   1.315   1.278
 2016TIP3    H2 6055   6.364   1.241   1.358
 2017TIP3   OH2 6056   1.892   1.653   0.776
 2017TIP3    H1 6057   1.969   1.596   0.783
 2017TIP3    H2 6058   1.878   1.662   0.682
 2018TIP3   OH2 6059   1.626   0.119   0.388
 2018TIP3    H1 6060   1.543   0.078   0.412
 2018TIP3    H2 6061   1.667   0.142   0.471
 2019TIP3   OH2 6062   0.404   2.880   4.753
 2019TIP3    H1 6063   0.416   2.785   4.756
 2019TIP3    H2 6064   0.416   2.903   4.661
 2020TIP3   OH2 6065   4.416   3.556   1.703
 2020TIP3    H1 6066   4.486   3.493   1.715
 2020TIP3    H2 6067   4.459   3.641   1.709
 2021TIP3   OH2 6068   0.847   4.626   1.290
 2021TIP3    H1 6069   0.783   4.581   1.234
 2021TIP3    H2 6070   0.932   4.595   1.259
 2022TIP3   OH2 6071   2.024   0.524   0.478
 2022TIP3    H1 6072   1.969   0.593   0.515
 2022TIP3    H2 6073   2.102   0.524   0.533
 2023TIP3   OH2 6074   3.636   5.420   5.102
 2023TIP3    H1 6075   3.703   5.390   5.041
 2023TIP3    H2 6076   3.665   5.388   5.188
 2024TIP3   OH2 6077   3.061   1.970   3.556
 2024TIP3    H1 6078   3.092   1.883   3.530
 2024TIP3    H2 6079   2.977   1.980   3.510
 2025TIP3   OH2 6080   0.359   0.709   1.988
 2025TIP3    H1 6081   0.428   0.759   1.944
 2025TIP3    H2 6082   0.352   0.748   2.075
 2026TIP3   OH2 6083   4.540   4.938   1.088
 2026TIP3    H1 6084   4.487   4.936   1.009
 2026TIP3    H2 6085   4.612   4.998   1.067
 2027TIP3   OH2 6086   4.810   5.499   4.348
 2027TIP3    H1 6087   4.802   5.550   4.429
 2027TIP3    H2 6088   4.747   5.538   4.288
 2028TIP3   OH2 6089   3.458   2.104   0.964
 2028TIP3    H1 6090   3.513   2.182   0.975
 2028TIP3    H2 6091   3.456   2.089   0.870
 2029TIP3   OH2 6092   4.571   5.324   0.480
 2029TIP3    H1 6093   4.511   5.294   0.412
 2029TIP3    H2 6094   4.538   5.411   0.505
 2030TIP3   OH2 6095   4.058   0.491   4.869
 2030TIP3    H1 6096   4.116   0.433   4.918
 2030TIP3    H2 6097   3.989   0.515   4.931
 2031TIP3   OH2 6098   0.057   3.867   1.167
 2031TIP3    H1 6099  -0.001   3.939   1.189
 2031TIP3    H2 6100   0.000   3.801   1.128
 2032TIP3   OH2 6101   3.641   1.512   1.686
 2032TIP3    H1 6102   3.654   1.607   1.694
 2032TIP3    H2 6103   3.693   1.487   1.610
 2033TIP3   OH2 6104   3.827   2.646   3.392
 2033TIP3    H1 6105   3.735   2.630   3.371
 2033TIP3    H2 6106   3.869   2.660   3.307
 2034TIP3   OH2 6107   4.858   2.513   1.351
 2034TIP3    H1 6108   4.826   2.525   1.440
 2034TIP3    H2 6109   4.856   2.419   1.336
 2035TIP3   OH2 6110   2.036   2.522   1.074
 2035TIP3    H1 6111   1.964   2.517   1.011
 2035TIP3    H2 6112   2.010   2.465   1.146
 2036TIP3   OH2 6113   4.560   5.587   4.935
 2036TIP3    H1 6114   4.556   5.491   4.932
 2036TIP3    H2 6115   4.469   5.615   4.922
 2037TIP3   OH2 6116   1.661   2.951   3.089
 2037TIP3    H1 6117   1.743   2.998   3.102
 2037TIP3    H2 6118   1.640   2.915   3.175
 2038TIP3   OH2 6119   0.518   5.752   4.320
 2038TIP3    H1 6120   0.459   5.710   4.383
 2038TIP3    H2 6121   0.595   5.777   4.373
 2039TIP3   OH2 6122   1.139   3.681   2.854
 2039TIP3    H1 6123   1.086   3.680   2.933
 2039TIP3    H2 6124   1.210   3.618   2.872
 2040TIP3   OH2 6125   1.261   3.249   0.916
 2040TIP3    H1 6126   1.347   3.266   0.957
 2040TIP3    H2 6127   1.239   3.160   0.945
 2041TIP3   OH2 6128   4.052   4.278   2.093
 2041TIP3    H1 6129   4.113   4.313   2.158
 2041TIP3    H2 6130   4.038   4.350   2.031
 2042TIP3   OH2 6131   3.373   4.004   4.918
 2042TIP3    H1 6132   3.317   4.082   4.924
 2042TIP3    H2 6133   3.440   4.027   4.854
 2043TIP3   OH2 6134   2.845   5.145   0.743
 2043TIP3    H1 6135   2.928   5.179   0.776
 2043TIP3    H2 6136   2.779   5.209   0.770
 2044TIP3   OH2 6137   2.650   3.283   0.291
 2044TIP3    H1 6138   2.741   3.254   0.279
 2044TIP3    H2 6139   2.607   3.209   0.334
 2045TIP3   OH2 6140   3.379   4.892   1.285
 2045TIP3    H1 6141   3.356   4.865   1.374
 2045TIP3    H2 6142   3.448   4.831   1.258
 2046TIP3   OH2 6143   5.690   2.071   4.949
 2046TIP3    H1 6144   5.651   2.020   4.877
 2046TIP3    H2 6145   5.672   2.162   4.926
 2047TIP3   OH2 6146   2.933   2.200   2.455
 2047TIP3    H1 6147   2.964   2.283   2.421
 2047TIP3    H2 6148   2.865   2.223   2.519
 2048TIP3   OH2 6149   3.481   6.010   3.932
 2048TIP3    H1 6150   3.497   5.929   3.981
 2048TIP3    H2 6151   3.387   6.011   3.917
 2049TIP3   OH2 6152   0.412   5.840   0.225
 2049TIP3    H1 6153   0.339   5.778   0.215
 2049TIP3    H2 6154   0.474   5.794   0.282
 2050TIP3   OH2 6155   3.300   0.334   1.329
 2050TIP3    H1 6156   3.272   0.340   1.238
 2050TIP3    H2 6157   3.335   0.421   1.349
 2051TIP3   OH2 6158   5.515   4.931   3.887
 2051TIP3    H1 6159   5.446   4.867   3.866
 2051TIP3    H2 6160   5.481   4.979   3.962
 2052TIP3   OH2 6161   1.710   3.488   3.209
 2052TIP3    H1 6162   1.657   3.528   3.278
 2052TIP3    H2 6163   1.799   3.491   3.242
 2053TIP3   OH2 6164   4.073   5.574   2.950
 2053TIP3    H1 6165   4.124   5.578   2.869
 2053TIP3    H2 6166   4.090   5.658   2.992
 2054TIP3   OH2 6167   5.408   1.311   1.498
 2054TIP3    H1 6168   5.365   1.226   1.485
 2054TIP3    H2 6169   5.375   1.341   1.583
 2055TIP3   OH2 6170   6.185   4.847   1.762
 2055TIP3    H1 6171   6.112   4.801   1.720
 2055TIP3    H2 6172   6.193   4.805   1.847
 2056TIP3   OH2 6173   3.859   3.173   1.687
 2056TIP3    H1 6174   3.815   3.125   1.617
 2056TIP3    H2 6175   3.819   3.140   1.768
 2057TIP3   OH2 6176   3.897   2.379   1.118
 2057TIP3    H1 6177   3.858   2.294   1.096
 2057TIP3    H2 6178   3.847   2.408   1.195
 2058TIP3   OH2 6179   5.731   5.475   2.370
 2058TIP3    H1 6180   5.691   5.555   2.404
 2058TIP3    H2 6181   5.820   5.477   2.403
 2059TIP3   OH2 6182   3.604   1.466   5.124
 2059TIP3    H1 6183   3.656   1.428   5.053
 2059TIP3    H2 6184   3.533   1.513   5.079
 2060TIP3   OH2 6185   2.323   4.423   4.839
 2060TIP3    H1 6186   2.230   4.413   4.855
 2060TIP3    H2 6187   2.340   4.516   4.854
 2061TIP3   OH2 6188   4.801   1.755   3.896
 2061TIP3    H1 6189   4.829   1.759   3.804
 2061TIP3    H2 6190   4.845   1.677   3.931
 2062TIP3   OH2 6191   3.218   5.513   2.747
 2062TIP3    H1 6192   3.131   5.546   2.770
 2062TIP3    H2 6193   3.201   5.433   2.697
 2063TIP3   OH2 6194   5.649   2.935   1.457
 2063TIP3    H1 6195   5.560   2.904   1.443
 2063TIP3    H2 6196   5.670   2.909   1.547
 2064TIP3   OH2 6197   3.282   2.837   0.460
 2064TIP3    H1 6198   3.266   2.905   0.394
 2064TIP3    H2 6199   3.265   2.882   0.543
 2065TIP3   OH2 6200   4.622   1.154   0.850
 2065TIP3    H1 6201   4.693   1.109   0.896
 2065TIP3    H2 6202   4.544   1.103   0.871
 2066TIP3   OH2 6203   5.597   3.152   4.279
 2066TIP3    H1 6204   5.584   3.071   4.228
 2066TIP3    H2 6205   5.649   3.208   4.222
 2067TIP3   OH2 6206   3.107   0.988   2.847
 2067TIP3    H1 6207   3.125   0.937   2.927
 2067TIP3    H2 6208   3.104   0.923   2.777
 2068TIP3   OH2 6209   4.528   3.366   0.915
 2068TIP3    H1 6210   4.554   3.394   0.828
 2068TIP3    H2 6211   4.435   3.389   0.921
 2069TIP3   OH2 6212   0.679   4.882   1.322
 2069TIP3    H1 6213   0.769   4.915   1.321
 2069TIP3    H2 6214   0.682   4.806   1.380
 2070TIP3   OH2 6215   2.705   4.824   0.347
 2070TIP3    H1 6216   2.796   4.826   0.376
 2070TIP3    H2 6217   2.655   4.794   0.423
 2071TIP3   OH2 6218   0.619   3.541   2.742
 2071TIP3    H1 6219   0.680   3.509   2.809
 2071TIP3    H2 6220   0.533   3.533   2.782
 2072TIP3   OH2 6221   2.225   5.814   3.495
 2072TIP3    H1 6222   2.188   5.900   3.513
 2072TIP3    H2 6223   2.319   5.830   3.488
 2073TIP3   OH2 6224   3.867   1.120   1.422
 2073TIP3    H1 6225   3.935   1.186   1.411
 2073TIP3    H2 6226   3.859   1.110   1.517
 2074TIP3   OH2 6227   0.850   2.850   0.153
 2074TIP3    H1 6228   0.925   2.859   0.211
 2074TIP3    H2 6229   0.877   2.896   0.073
 2075TIP3   OH2 6230   5.489   5.173   3.282
 2075TIP3    H1 6231   5.487   5.116   3.205
 2075TIP3    H2 6232   5.517   5.258   3.248
 2076TIP3   OH2 6233   1.169   1.545   1.046
 2076TIP3    H1 6234   1.264   1.544   1.054
 2076TIP3    H2 6235   1.147   1.638   1.038
 2077TIP3   OH2 6236   4.236   4.314   5.089
 2077TIP3    H1 6237   4.320   4.286   5.052
 2077TIP3    H2 6238   4.202   4.236   5.133
 2078TIP3   OH2 6239   2.986   1.940   2.580
 2078TIP3    H1 6240   2.912   1.889   2.549
 2078TIP3    H2 6241   2.979   2.023   2.533
 2079TIP3   OH2 6242   5.937   4.793   2.371
 2079TIP3    H1 6243   5.962   4.734   2.299
 2079TIP3    H2 6244   5.877   4.740   2.425
 2080TIP3   OH2 6245   3.609   2.094   1.208
 2080TIP3    H1 6246   3.597   2.031   1.279
 2080TIP3    H2 6247   3.527   2.090   1.158
 2081TIP3   OH2 6248   3.022   2.805   5.177
 2081TIP3    H1 6249   3.005   2.891   5.138
 2081TIP3    H2 6250   3.039   2.748   5.103
 2082TIP3   OH2 6251   3.378   3.353   1.997
 2082TIP3    H1 6252   3.376   3.422   1.931
 2082TIP3    H2 6253   3.459   3.368   2.045
 2083TIP3   OH2 6254   4.185   0.650   2.917
 2083TIP3    H1 6255   4.240   0.713   2.871
 2083TIP3    H2 6256   4.096   0.678   2.898
 2084TIP3   OH2 6257   3.900   4.986   0.874
 2084TIP3    H1 6258   3.851   5.018   0.950
 2084TIP3    H2 6259   3.971   4.934   0.911
 2085TIP3   OH2 6260   5.111   1.604   1.668
 2085TIP3    H1 6261   5.026   1.633   1.703
 2085TIP3    H2 6262   5.168   1.601   1.745
 2086TIP3   OH2 6263   3.715   2.809   0.868
 2086TIP3    H1 6264   3.738   2.762   0.787
 2086TIP3    H2 6265   3.796   2.854   0.893
 2087TIP3   OH2 6266   1.059   1.143   4.748
 2087TIP3    H1 6267   0.987   1.204   4.729
 2087TIP3    H2 6268   1.064   1.141   4.843
 2088TIP3   OH2 6269   2.344   4.580   1.790
 2088TIP3    H1 6270   2.329   4.669   1.756
 2088TIP3    H2 6271   2.329   4.523   1.714
 2089TIP3   OH2 6272   4.354   3.742   0.033
 2089TIP3    H1 6273   4.325   3.655   0.060
 2089TIP3    H2 6274   4.309   3.759  -0.049
 2090TIP3   OH2 6275   1.202   3.696   1.236
 2090TIP3    H1 6276   1.188   3.617   1.183
 2090TIP3    H2 6277   1.124   3.703   1.291
 2091TIP3   OH2 6278   0.267   4.256   4.719
 2091TIP3    H1 6279   0.262   4.309   4.639
 2091TIP3    H2 6280   0.215   4.304   4.783
 2092TIP3   OH2 6281   1.263   5.208   2.480
 2092TIP3    H1 6282   1.292   5.143   2.544
 2092TIP3    H2 6283   1.266   5.161   2.396
 2093TIP3   OH2 6284   2.430   1.704   1.320
 2093TIP3    H1 6285   2.520   1.699   1.352
 2093TIP3    H2 6286   2.379   1.733   1.396
 2094TIP3   OH2 6287   2.621   3.837   2.516
 2094TIP3    H1 6288   2.554   3.779   2.552
 2094TIP3    H2 6289   2.575   3.889   2.450
 2095TIP3   OH2 6290   6.167   0.109   4.452
 2095TIP3    H1 6291   6.077   0.101   4.420
 2095TIP3    H2 6292   6.170   0.195   4.495
 2096TIP3   OH2 6293   3.723   1.899   3.552
 2096TIP3    H1 6294   3.628   1.893   3.540
 2096TIP3    H2 6295   3.740   1.850   3.633
 2097TIP3   OH2 6296   4.868   5.380   4.855
 2097TIP3    H1 6297   4.862   5.347   4.945
 2097TIP3    H2 6298   4.810   5.323   4.805
 2098TIP3   OH2 6299   3.132   5.458   4.288
 2098TIP3    H1 6300   3.060   5.395   4.292
 2098TIP3    H2 6301   3.189   5.433   4.361
 2099TIP3   OH2 6302   3.393   2.995   3.828
 2099TIP3    H1 6303   3.377   3.088   3.809
 2099TIP3    H2 6304   3.355   2.949   3.753
 2100TIP3   OH2 6305   2.320   0.304   2.344
 2100TIP3    H1 6306   2.269   0.375   2.382
 2100TIP3    H2 6307   2.343   0.248   2.418
 2101TIP3   OH2 6308   0.333   5.094   3.644
 2101TIP3    H1 6309   0.328   5.180   3.601
 2101TIP3    H2 6310   0.304   5.111   3.734
 2102TIP3   OH2 6311   1.683   0.182   2.757
 2102TIP3    H1 6312   1.601   0.144   2.725
 2102TIP3    H2 6313   1.705   0.249   2.693
 2103TIP3   OH2 6314   1.932   2.832   4.354
 2103TIP3    H1 6315   1.872   2.758   4.347
 2103TIP3    H2 6316   1.942   2.863   4.264
 2104TIP3   OH2 6317   3.979   0.741   2.257
 2104TIP3    H1 6318   4.055   0.734   2.200
 2104TIP3    H2 6319   3.998   0.816   2.314
 2105TIP3   OH2 6320   5.246   3.995   0.907
 2105TIP3    H1 6321   5.258   4.079   0.951
 2105TIP3    H2 6322   5.208   3.938   0.974
 2106TIP3   OH2 6323   4.380   3.205   1.502
 2106TIP3    H1 6324   4.286   3.219   1.493
 2106TIP3    H2 6325   4.404   3.152   1.427
 2107TIP3   OH2 6326   0.110   5.457   1.608
 2107TIP3    H1 6327   0.198   5.493   1.592
 2107TIP3    H2 6328   0.058   5.488   1.534
 2108TIP3   OH2 6329   5.284   1.888   4.012
 2108TIP3    H1 6330   5.204   1.910   4.059
 2108TIP3    H2 6331   5.311   1.971   3.971
 2109TIP3   OH2 6332   2.572   0.836   2.390
 2109TIP3    H1 6333   2.517   0.788   2.451
 2109TIP3    H2 6334   2.511   0.884   2.335
 2110TIP3   OH2 6335   0.352   2.920   0.538
 2110TIP3    H1 6336   0.365   2.911   0.444
 2110TIP3    H2 6337   0.394   3.003   0.561
 2111TIP3   OH2 6338   5.174   4.030   1.817
 2111TIP3    H1 6339   5.223   4.102   1.857
 2111TIP3    H2 6340   5.103   4.013   1.879
 2112TIP3   OH2 6341   4.731   1.864   2.295
 2112TIP3    H1 6342   4.790   1.821   2.233
 2112TIP3    H2 6343   4.751   1.957   2.287
 2113TIP3   OH2 6344   2.845   3.787   4.123
 2113TIP3    H1 6345   2.860   3.692   4.126
 2113TIP3    H2 6346   2.776   3.798   4.059
 2114TIP3   OH2 6347   2.299   0.557   3.269
 2114TIP3    H1 6348   2.385   0.524   3.292
 2114TIP3    H2 6349   2.267   0.497   3.202
 2115TIP3   OH2 6350   4.133   2.085   0.828
 2115TIP3    H1 6351   4.088   2.150   0.882
 2115TIP3    H2 6352   4.226   2.108   0.835
 2116TIP3   OH2 6353   4.479   0.153   2.994
 2116TIP3    H1 6354   4.428   0.122   2.918
 2116TIP3    H2 6355   4.421   0.140   3.069
 2117TIP3   OH2 6356   1.171   2.105   3.956
 2117TIP3    H1 6357   1.090   2.134   3.998
 2117TIP3    H2 6358   1.241   2.149   4.004
 2118TIP3   OH2 6359   0.163   0.910   0.172
 2118TIP3    H1 6360   0.110   0.841   0.210
 2118TIP3    H2 6361   0.193   0.874   0.088
 2119TIP3   OH2 6362   3.034   5.328   4.620
 2119TIP3    H1 6363   2.991   5.249   4.587
 2119TIP3    H2 6364   3.024   5.323   4.715
 2120TIP3   OH2 6365   0.928   3.745   0.097
 2120TIP3    H1 6366   0.841   3.734   0.134
 2120TIP3    H2 6367   0.948   3.838   0.110
 2121TIP3   OH2 6368   2.416   1.995   4.033
 2121TIP3    H1 6369   2.464   2.039   3.963
 2121TIP3    H2 6370   2.430   2.050   4.110
 2122TIP3   OH2 6371   2.212   1.562   3.034
 2122TIP3    H1 6372   2.214   1.570   2.939
 2122TIP3    H2 6373   2.148   1.493   3.051
 2123TIP3   OH2 6374   3.506   2.693   1.855
 2123TIP3    H1 6375   3.550   2.608   1.856
 2123TIP3    H2 6376   3.502   2.719   1.947
 2124TIP3   OH2 6377   3.980   4.168   4.566
 2124TIP3    H1 6378   4.009   4.238   4.625
 2124TIP3    H2 6379   3.951   4.214   4.488
 2125TIP3   OH2 6380   3.837   2.939   4.357
 2125TIP3    H1 6381   3.758   2.992   4.364
 2125TIP3    H2 6382   3.848   2.923   4.263
 2126TIP3   OH2 6383   4.312   0.294   4.534
 2126TIP3    H1 6384   4.357   0.210   4.538
 2126TIP3    H2 6385   4.369   0.350   4.482
 2127TIP3   OH2 6386   1.361   1.588   4.281
 2127TIP3    H1 6387   1.305   1.603   4.357
 2127TIP3    H2 6388   1.320   1.638   4.210
 2128TIP3   OH2 6389   3.781   4.345   2.559
 2128TIP3    H1 6390   3.844   4.406   2.522
 2128TIP3    H2 6391   3.705   4.400   2.580
 2129TIP3   OH2 6392   0.583   1.420   1.037
 2129TIP3    H1 6393   0.678   1.436   1.036
 2129TIP3    H2 6394   0.549   1.472   0.965
 2130TIP3   OH2 6395   0.539   0.780   3.487
 2130TIP3    H1 6396   0.485   0.736   3.553
 2130TIP3    H2 6397   0.550   0.714   3.418
 2131TIP3   OH2 6398   2.463   4.637   5.151
 2131TIP3    H1 6399   2.532   4.699   5.171
 2131TIP3    H2 6400   2.472   4.568   5.217
 2132TIP3   OH2 6401   0.997   2.758   2.834
 2132TIP3    H1 6402   0.923   2.761   2.894
 2132TIP3    H2 6403   1.003   2.666   2.807
 2133TIP3   OH2 6404   5.115   2.259   2.236
 2133TIP3    H1 6405   5.076   2.309   2.165
 2133TIP3    H2 6406   5.047   2.196   2.261
 2134TIP3   OH2 6407   5.687   4.804   4.269
 2134TIP3    H1 6408   5.705   4.894   4.296
 2134TIP3    H2 6409   5.715   4.800   4.178
 2135TIP3   OH2 6410   1.597   2.595   1.173
 2135TIP3    H1 6411   1.597   2.682   1.132
 2135TIP3    H2 6412   1.527   2.547   1.129
 2136TIP3   OH2 6413   1.971   5.037   4.204
 2136TIP3    H1 6414   1.883   5.065   4.179
 2136TIP3    H2 6415   2.003   4.988   4.128
 2137TIP3   OH2 6416   1.434   5.169   2.761
 2137TIP3    H1 6417   1.388   5.247   2.730
 2137TIP3    H2 6418   1.369   5.120   2.812
 2138TIP3   OH2 6419   6.228   5.249   4.322
 2138TIP3    H1 6420   6.231   5.337   4.360
 2138TIP3    H2 6421   6.230   5.263   4.228
 2139TIP3   OH2 6422   3.683   0.596   4.498
 2139TIP3    H1 6423   3.671   0.688   4.475
 2139TIP3    H2 6424   3.669   0.549   4.417
 2140TIP3   OH2 6425   5.630   1.392   1.361
 2140TIP3    H1 6426   5.591   1.444   1.291
 2140TIP3    H2 6427   5.557   1.373   1.420
 2141TIP3   OH2 6428   4.799   0.685   4.392
 2141TIP3    H1 6429   4.723   0.716   4.441
 2141TIP3    H2 6430   4.868   0.676   4.458
 2142TIP3   OH2 6431   4.420   1.118   3.518
 2142TIP3    H1 6432   4.427   1.212   3.500
 2142TIP3    H2 6433   4.509   1.085   3.511
 2143TIP3   OH2 6434   6.252   2.822   4.417
 2143TIP3    H1 6435   6.305   2.835   4.496
 2143TIP3    H2 6436   6.213   2.736   4.428
 2144TIP3   OH2 6437   1.381   5.902   1.314
 2144TIP3    H1 6438   1.302   5.889   1.367
 2144TIP3    H2 6439   1.447   5.932   1.377
 2145TIP3   OH2 6440   0.387   5.677   4.618
 2145TIP3    H1 6441   0.452   5.612   4.590
 2145TIP3    H2 6442   0.325   5.627   4.672
 2146TIP3   OH2 6443   1.293   2.526   4.605
 2146TIP3    H1 6444   1.221   2.580   4.636
 2146TIP3    H2 6445   1.281   2.442   4.650
 2147TIP3   OH2 6446   1.650   2.734   1.419
 2147TIP3    H1 6447   1.735   2.697   1.394
 2147TIP3    H2 6448   1.602   2.743   1.336
 2148TIP3   OH2 6449   2.691   2.131   3.522
 2148TIP3    H1 6450   2.760   2.179   3.566
 2148TIP3    H2 6451   2.643   2.197   3.473
 2149TIP3   OH2 6452   3.749   0.500   2.643
 2149TIP3    H1 6453   3.670   0.537   2.682
 2149TIP3    H2 6454   3.756   0.542   2.558
 2150TIP3   OH2 6455   1.811   5.569   3.490
 2150TIP3    H1 6456   1.904   5.579   3.472
 2150TIP3    H2 6457   1.796   5.474   3.487
 2151TIP3   OH2 6458   3.287   1.704   3.703
 2151TIP3    H1 6459   3.241   1.721   3.621
 2151TIP3    H2 6460   3.332   1.786   3.723
 2152TIP3   OH2 6461   5.250   5.731   2.772
 2152TIP3    H1 6462   5.215   5.765   2.855
 2152TIP3    H2 6463   5.205   5.781   2.704
 2153TIP3   OH2 6464   5.202   0.578   2.006
 2153TIP3    H1 6465   5.169   0.577   1.916
 2153TIP3    H2 6466   5.159   0.504   2.048
 2154TIP3   OH2 6467   0.040   0.114   1.794
 2154TIP3    H1 6468   0.045   0.139   1.702
 2154TIP3    H2 6469   0.128   0.131   1.829
 2155TIP3   OH2 6470   3.826   4.075   2.174
 2155TIP3    H1 6471   3.764   4.092   2.245
 2155TIP3    H2 6472   3.886   4.149   2.176
 2156TIP3   OH2 6473   4.311   5.861   0.683
 2156TIP3    H1 6474   4.296   5.849   0.776
 2156TIP3    H2 6475   4.232   5.828   0.641
 2157TIP3   OH2 6476   6.077   4.501   2.500
 2157TIP3    H1 6477   6.037   4.487   2.414
 2157TIP3    H2 6478   6.007   4.487   2.563
 2158TIP3   OH2 6479   2.102   5.669   1.677
 2158TIP3    H1 6480   2.093   5.611   1.601
 2158TIP3    H2 6481   2.018   5.714   1.684
 2159TIP3   OH2 6482   0.690   4.903   2.965
 2159TIP3    H1 6483   0.734   4.859   3.038
 2159TIP3    H2 6484   0.688   4.838   2.895
 2160TIP3   OH2 6485   5.326   0.155   1.353
 2160TIP3    H1 6486   5.327   0.095   1.279
 2160TIP3    H2 6487   5.409   0.140   1.397
 2161TIP3   OH2 6488   0.287   4.549   2.747
 2161TIP3    H1 6489   0.195   4.534   2.726
 2161TIP3    H2 6490   0.312   4.626   2.697
 2162TIP3   OH2 6491   2.745   4.837   1.039
 2162TIP3    H1 6492   2.825   4.837   0.986
 2162TIP3    H2 6493   2.681   4.884   0.986
 2163TIP3   OH2 6494   3.815   3.935   1.938
 2163TIP3    H1 6495   3.877   4.003   1.909
 2163TIP3    H2 6496   3.791   3.961   2.027
 2164TIP3   OH2 6497   4.732   2.544   1.582
 2164TIP3    H1 6498   4.757   2.543   1.674
 2164TIP3    H2 6499   4.636   2.544   1.584
 2165TIP3   OH2 6500   1.502   4.176   4.639
 2165TIP3    H1 6501   1.501   4.237   4.566
 2165TIP3    H2 6502   1.576   4.204   4.692
 2166TIP3   OH2 6503   6.200   5.580   2.789
 2166TIP3    H1 6504   6.135   5.647   2.809
 2166TIP3    H2 6505   6.167   5.501   2.833
 2167TIP3   OH2 6506   0.085   4.252   3.681
 2167TIP3    H1 6507   0.085   4.231   3.775
 2167TIP3    H2 6508   0.170   4.222   3.650
 2168TIP3   OH2 6509   1.143   5.430   4.814
 2168TIP3    H1 6510   1.156   5.343   4.778
 2168TIP3    H2 6511   1.185   5.488   4.750
 2169TIP3   OH2 6512   4.241   3.147   4.610
 2169TIP3    H1 6513   4.165   3.090   4.622
 2169TIP3    H2 6514   4.315   3.097   4.644
 2170TIP3   OH2 6515   2.175   1.635   3.944
 2170TIP3    H1 6516   2.165   1.540   3.952
 2170TIP3    H2 6517   2.215   1.661   4.027
 2171TIP3   OH2 6518   1.337   4.428   2.476
 2171TIP3    H1 6519   1.377   4.512   2.453
 2171TIP3    H2 6520   1.318   4.387   2.392
 2172TIP3   OH2 6521   6.111   0.361   0.596
 2172TIP3    H1 6522   6.070   0.430   0.650
 2172TIP3    H2 6523   6.140   0.296   0.659
 2173TIP3   OH2 6524   1.833   2.673   3.696
 2173TIP3    H1 6525   1.887   2.597   3.678
 2173TIP3    H2 6526   1.780   2.648   3.772
 2174TIP3   OH2 6527   2.851   3.621   3.436
 2174TIP3    H1 6528   2.877   3.711   3.456
 2174TIP3    H2 6529   2.933   3.572   3.430
 2175TIP3   OH2 6530   1.859   2.329   4.968
 2175TIP3    H1 6531   1.908   2.326   5.050
 2175TIP3    H2 6532   1.829   2.239   4.955
 2176TIP3   OH2 6533   2.276   1.579   0.765
 2176TIP3    H1 6534   2.215   1.512   0.734
 2176TIP3    H2 6535   2.353   1.529   0.795
 2177TIP3   OH2 6536   5.219   2.185   4.122
 2177TIP3    H1 6537   5.285   2.224   4.179
 2177TIP3    H2 6538   5.198   2.253   4.058
 2178TIP3   OH2 6539   5.414   4.423   2.805
 2178TIP3    H1 6540   5.507   4.401   2.808
 2178TIP3    H2 6541   5.376   4.377   2.880
 2179TIP3   OH2 6542   2.399   5.802   0.693
 2179TIP3    H1 6543   2.375   5.880   0.642
 2179TIP3    H2 6544   2.489   5.783   0.667
 2180TIP3   OH2 6545   3.799   2.119   1.626
 2180TIP3    H1 6546   3.769   2.149   1.540
 2180TIP3    H2 6547   3.745   2.042   1.645
 2181TIP3   OH2 6548   4.087   3.432   0.027
 2181TIP3    H1 6549   4.131   3.476   0.100
 2181TIP3    H2 6550   3.994   3.438   0.049
 2182TIP3   OH2 6551   4.917   0.899   2.072
 2182TIP3    H1 6552   4.878   0.975   2.028
 2182TIP3    H2 6553   5.002   0.887   2.029
 2183TIP3   OH2 6554   6.245   1.768   2.630
 2183TIP3    H1 6555   6.233   1.769   2.725
 2183TIP3    H2 6556   6.270   1.857   2.608
 2184TIP3   OH2 6557   2.063   1.247   2.914
 2184TIP3    H1 6558   2.114   1.245   2.995
 2184TIP3    H2 6559   2.119   1.295   2.853
 2185TIP3   OH2 6560   4.023   0.829   4.179
 2185TIP3    H1 6561   4.086   0.859   4.113
 2185TIP3    H2 6562   4.075   0.778   4.241
 2186TIP3   OH2 6563   2.627   1.939   1.180
 2186TIP3    H1 6564   2.572   2.014   1.157
 2186TIP3    H2 6565   2.650   1.900   1.096
 2187TIP3   OH2 6566   2.247   0.196   2.105
 2187TIP3    H1 6567   2.203   0.116   2.135
 2187TIP3    H2 6568   2.280   0.237   2.185
 2188TIP3   OH2 6569   2.293   4.715   0.785
 2188TIP3    H1 6570   2.200   4.697   0.795
 2188TIP3    H2 6571   2.298   4.810   0.774
 2189TIP3   OH2 6572   3.438   1.330   0.289
 2189TIP3    H1 6573   3.402   1.241   0.289
 2189TIP3    H2 6574   3.452   1.349   0.196
 2190TIP3   OH2 6575   5.265   3.651   0.133
 2190TIP3    H1 6576   5.248   3.713   0.203
 2190TIP3    H2 6577   5.182   3.604   0.121
 2191TIP3   OH2 6578   0.669   5.262   4.680
 2191TIP3    H1 6579   0.609   5.256   4.755
 2191TIP3    H2 6580   0.744   5.209   4.705
 2192TIP3   OH2 6581   6.007   2.907   2.198
 2192TIP3    H1 6582   5.932   2.874   2.149
 2192TIP3    H2 6583   6.082   2.887   2.143
 2193TIP3   OH2 6584   6.126   5.767   4.392
 2193TIP3    H1 6585   6.095   5.769   4.302
 2193TIP3    H2 6586   6.220   5.753   4.386
 2194TIP3   OH2 6587   5.136   5.953   4.387
 2194TIP3    H1 6588   5.095   5.920   4.307
 2194TIP3    H2 6589   5.229   5.961   4.365
 2195TIP3   OH2 6590   1.495   2.636   4.766
 2195TIP3    H1 6591   1.433   2.607   4.699
 2195TIP3    H2 6592   1.564   2.680   4.717
 2196TIP3   OH2 6593   0.875   3.195   2.012
 2196TIP3    H1 6594   0.914   3.175   1.926
 2196TIP3    H2 6595   0.930   3.265   2.046
 2197TIP3   OH2 6596   2.323   0.931   0.866
 2197TIP3    H1 6597   2.324   0.952   0.773
 2197TIP3    H2 6598   2.241   0.969   0.898
 2198TIP3   OH2 6599   5.256   1.157   1.761
 2198TIP3    H1 6600   5.306   1.083   1.727
 2198TIP3    H2 6601   5.321   1.216   1.798
 2199TIP3   OH2 6602   0.679   4.904   0.452
 2199TIP3    H1 6603   0.722   4.826   0.488
 2199TIP3    H2 6604   0.634   4.943   0.527
 2200TIP3   OH2 6605   6.161   5.274   0.730
 2200TIP3    H1 6606   6.163   5.307   0.640
 2200TIP3    H2 6607   6.164   5.353   0.784
 2201TIP3   OH2 6608   1.920   5.941   4.536
 2201TIP3    H1 6609   1.947   5.853   4.564
 2201TIP3    H2 6610   1.981   5.962   4.465
 2202TIP3   OH2 6611   0.329   2.347   1.730
 2202TIP3    H1 6612   0.328   2.263   1.776
 2202TIP3    H2 6613   0.410   2.347   1.679
 2203TIP3   OH2 6614   1.500   5.569   4.177
 2203TIP3    H1 6615   1.422   5.524   4.142
 2203TIP3    H2 6616   1.488   5.566   4.272
 2204TIP3   OH2 6617   4.642   5.066   1.618
 2204TIP3    H1 6618   4.591   5.010   1.560
 2204TIP3    H2 6619   4.659   5.012   1.695
 2205TIP3   OH2 6620   5.632   0.283   0.110
 2205TIP3    H1 6621   5.587   0.342   0.049
 2205TIP3    H2 6622   5.601   0.196   0.086
 2206TIP3   OH2 6623   5.244   4.589   2.971
 2206TIP3    H1 6624   5.206   4.503   2.951
 2206TIP3    H2 6625   5.267   4.583   3.063
 2207TIP3   OH2 6626   2.762   0.149   4.253
 2207TIP3    H1 6627   2.740   0.220   4.192
 2207TIP3    H2 6628   2.680   0.134   4.301
 2208TIP3   OH2 6629   4.998   1.298   1.740
 2208TIP3    H1 6630   4.988   1.362   1.811
 2208TIP3    H2 6631   5.089   1.271   1.744
 2209TIP3   OH2 6632   3.073   1.676   5.133
 2209TIP3    H1 6633   3.016   1.630   5.194
 2209TIP3    H2 6634   3.022   1.753   5.107
 2210TIP3   OH2 6635   6.049   4.165   1.379
 2210TIP3    H1 6636   6.046   4.085   1.433
 2210TIP3    H2 6637   6.013   4.233   1.436
 2211TIP3   OH2 6638   2.822   1.844   1.864
 2211TIP3    H1 6639   2.754   1.908   1.886
 2211TIP3    H2 6640   2.786   1.796   1.789
 2212TIP3   OH2 6641   5.742   4.369   0.856
 2212TIP3    H1 6642   5.750   4.413   0.941
 2212TIP3    H2 6643   5.803   4.295   0.862
 2213TIP3   OH2 6644   3.250   4.243   4.544
 2213TIP3    H1 6645   3.243   4.189   4.465
 2213TIP3    H2 6646   3.160   4.273   4.560
 2214TIP3   OH2 6647   2.289   2.073   3.216
 2214TIP3    H1 6648   2.337   1.991   3.219
 2214TIP3    H2 6649   2.302   2.106   3.127
 2215TIP3   OH2 6650   2.813   5.930   1.273
 2215TIP3    H1 6651   2.797   5.865   1.204
 2215TIP3    H2 6652   2.863   5.883   1.339
 2216TIP3   OH2 6653   1.516   1.785   2.713
 2216TIP3    H1 6654   1.519   1.781   2.809
 2216TIP3    H2 6655   1.564   1.707   2.685
 2217TIP3   OH2 6656   5.921   2.017   4.080
 2217TIP3    H1 6657   5.897   2.051   4.167
 2217TIP3    H2 6658   5.876   2.075   4.019
 2218TIP3   OH2 6659   5.387   4.756   3.653
 2218TIP3    H1 6660   5.316   4.795   3.602
 2218TIP3    H2 6661   5.351   4.747   3.741
 2219TIP3   OH2 6662   2.271   0.730   4.404
 2219TIP3    H1 6663   2.309   0.815   4.383
 2219TIP3    H2 6664   2.344   0.678   4.437
 2220TIP3   OH2 6665   2.737   3.534   4.983
 2220TIP3    H1 6666   2.720   3.464   4.920
 2220TIP3    H2 6667   2.813   3.503   5.033
 2221TIP3   OH2 6668   1.745   0.063   2.423
 2221TIP3    H1 6669   1.812   0.117   2.465
 2221TIP3    H2 6670   1.746  -0.020   2.472
 2222TIP3   OH2 6671   5.443   2.967   0.495
 2222TIP3    H1 6672   5.442   2.873   0.478
 2222TIP3    H2 6673   5.424   2.974   0.589
 2223TIP3   OH2 6674   4.407   5.148   1.211
 2223TIP3    H1 6675   4.478   5.211   1.202
 2223TIP3    H2 6676   4.442   5.067   1.173
 2224TIP3   OH2 6677   5.621   2.614   4.999
 2224TIP3    H1 6678   5.610   2.708   5.015
 2224TIP3    H2 6679   5.674   2.610   4.919
 2225TIP3   OH2 6680   4.997   1.669   2.799
 2225TIP3    H1 6681   5.037   1.611   2.864
 2225TIP3    H2 6682   5.022   1.631   2.715
 2226TIP3   OH2 6683   4.609   1.479   1.242
 2226TIP3    H1 6684   4.649   1.549   1.294
 2226TIP3    H2 6685   4.681   1.446   1.188
 2227TIP3   OH2 6686   2.866   4.270   1.151
 2227TIP3    H1 6687   2.827   4.352   1.122
 2227TIP3    H2 6688   2.959   4.280   1.133
 2228TIP3   OH2 6689   4.852   0.984   2.862
 2228TIP3    H1 6690   4.804   1.016   2.786
 2228TIP3    H2 6691   4.792   1.000   2.936
 2229TIP3   OH2 6692   1.341   4.318   1.089
 2229TIP3    H1 6693   1.393   4.395   1.110
 2229TIP3    H2 6694   1.352   4.307   0.994
 2230TIP3   OH2 6695   2.575   4.431   1.381
 2230TIP3    H1 6696   2.571   4.386   1.296
 2230TIP3    H2 6697   2.587   4.523   1.359
 2231TIP3   OH2 6698   3.572   5.370   4.670
 2231TIP3    H1 6699   3.525   5.325   4.599
 2231TIP3    H2 6700   3.509   5.433   4.704
 2232TIP3   OH2 6701   2.168   3.188   2.243
 2232TIP3    H1 6702   2.100   3.204   2.177
 2232TIP3    H2 6703   2.244   3.160   2.193
 2233TIP3   OH2 6704   0.370   3.128   2.858
 2233TIP3    H1 6705   0.377   3.059   2.924
 2233TIP3    H2 6706   0.305   3.189   2.894
 2234TIP3   OH2 6707   6.240   3.664   1.690
 2234TIP3    H1 6708   6.202   3.711   1.764
 2234TIP3    H2 6709   6.249   3.731   1.622
 2235TIP3   OH2 6710   3.265   2.038   1.897
 2235TIP3    H1 6711   3.286   2.132   1.891
 2235TIP3    H2 6712   3.180   2.035   1.940
 2236TIP3   OH2 6713   5.839   2.613   0.898
 2236TIP3    H1 6714   5.888   2.575   0.971
 2236TIP3    H2 6715   5.844   2.707   0.912
 2237TIP3   OH2 6716   4.490   3.083   2.377
 2237TIP3    H1 6717   4.554   3.114   2.313
 2237TIP3    H2 6718   4.538   3.078   2.459
 2238TIP3   OH2 6719   0.969   4.601   4.871
 2238TIP3    H1 6720   0.925   4.587   4.955
 2238TIP3    H2 6721   0.903   4.579   4.805
 2239TIP3   OH2 6722   3.617   4.065   4.314
 2239TIP3    H1 6723   3.557   3.992   4.330
 2239TIP3    H2 6724   3.688   4.026   4.263
 2240TIP3   OH2 6725   3.015   2.762   3.266
 2240TIP3    H1 6726   3.019   2.712   3.185
 2240TIP3    H2 6727   2.955   2.834   3.247
 2241TIP3   OH2 6728   2.248   3.757   0.572
 2241TIP3    H1 6729   2.322   3.702   0.549
 2241TIP3    H2 6730   2.244   3.755   0.667
 2242TIP3   OH2 6731   4.052   2.835   1.682
 2242TIP3    H1 6732   4.095   2.750   1.674
 2242TIP3    H2 6733   4.020   2.837   1.772
 2243TIP3   OH2 6734   1.057   2.564   1.004
 2243TIP3    H1 6735   1.133   2.513   0.976
 2243TIP3    H2 6736   0.989   2.498   1.021
 2244TIP3   OH2 6737   3.905   3.744   0.513
 2244TIP3    H1 6738   3.900   3.838   0.494
 2244TIP3    H2 6739   3.918   3.703   0.428
 2245TIP3   OH2 6740   2.831   0.858   1.451
 2245TIP3    H1 6741   2.856   0.772   1.484
 2245TIP3    H2 6742   2.861   0.919   1.518
 2246TIP3   OH2 6743   0.213   3.532   2.023
 2246TIP3    H1 6744   0.182   3.482   1.948
 2246TIP3    H2 6745   0.215   3.469   2.095
 2247TIP3   OH2 6746   1.655   0.331   1.218
 2247TIP3    H1 6747   1.596   0.258   1.234
 2247TIP3    H2 6748   1.624   0.400   1.277
 2248TIP3   OH2 6749   0.552   1.809   4.806
 2248TIP3    H1 6750   0.466   1.843   4.781
 2248TIP3    H2 6751   0.537   1.765   4.889
 2249TIP3   OH2 6752   4.152   0.675   4.411
 2249TIP3    H1 6753   4.080   0.613   4.401
 2249TIP3    H2 6754   4.155   0.693   4.505
 2250TIP3   OH2 6755   4.539   1.110   1.533
 2250TIP3    H1 6756   4.606   1.054   1.573
 2250TIP3    H2 6757   4.476   1.048   1.496
 2251TIP3   OH2 6758   5.146   3.675   3.235
 2251TIP3    H1 6759   5.143   3.745   3.300
 2251TIP3    H2 6760   5.207   3.611   3.273
 2252TIP3   OH2 6761   1.653   3.377   0.779
 2252TIP3    H1 6762   1.729   3.432   0.794
 2252TIP3    H2 6763   1.637   3.333   0.862
 2253TIP3   OH2 6764   1.390   1.252   1.342
 2253TIP3    H1 6765   1.455   1.192   1.378
 2253TIP3    H2 6766   1.306   1.221   1.375
 2254TIP3   OH2 6767   1.417   3.784   2.090
 2254TIP3    H1 6768   1.510   3.767   2.080
 2254TIP3    H2 6769   1.391   3.735   2.168
 2255TIP3   OH2 6770   2.371   5.160   3.291
 2255TIP3    H1 6771   2.329   5.238   3.327
 2255TIP3    H2 6772   2.441   5.193   3.235
 2256TIP3   OH2 6773   0.552   2.299   4.004
 2256TIP3    H1 6774   0.528   2.214   4.041
 2256TIP3    H2 6775   0.522   2.363   4.068
 2257TIP3   OH2 6776   0.151   2.875   1.123
 2257TIP3    H1 6777   0.203   2.829   1.057
 2257TIP3    H2 6778   0.124   2.957   1.080
 2258TIP3   OH2 6779   4.138   3.838   4.036
 2258TIP3    H1 6780   4.189   3.805   4.109
 2258TIP3    H2 6781   4.188   3.914   4.004
 2259TIP3   OH2 6782   2.322   3.134   4.512
 2259TIP3    H1 6783   2.387   3.186   4.465
 2259TIP3    H2 6784   2.306   3.058   4.455
 2260TIP3   OH2 6785   0.299   4.476   3.988
 2260TIP3    H1 6786   0.352   4.530   3.930
 2260TIP3    H2 6787   0.217   4.524   3.997
 2261TIP3   OH2 6788   5.117   0.753   3.668
 2261TIP3    H1 6789   5.090   0.801   3.747
 2261TIP3    H2 6790   5.036   0.716   3.634
 2262TIP3   OH2 6791   5.033   3.406   4.117
 2262TIP3    H1 6792   4.983   3.327   4.138
 2262TIP3    H2 6793   4.992   3.440   4.037
 2263TIP3   OH2 6794   1.819   4.275   0.977
 2263TIP3    H1 6795   1.838   4.188   0.943
 2263TIP3    H2 6796   1.881   4.333   0.932
 2264TIP3   OH2 6797   3.458   3.999   3.972
 2264TIP3    H1 6798   3.430   4.091   3.970
 2264TIP3    H2 6799   3.377   3.949   3.960
 2265TIP3   OH2 6800   3.774   3.709   2.133
 2265TIP3    H1 6801   3.780   3.745   2.045
 2265TIP3    H2 6802   3.722   3.772   2.182
 2266TIP3   OH2 6803   2.399   5.761   1.784
 2266TIP3    H1 6804   2.459   5.712   1.728
 2266TIP3    H2 6805   2.335   5.697   1.813
 2267TIP3   OH2 6806   4.143   2.937   0.035
 2267TIP3    H1 6807   4.165   2.996   0.106
 2267TIP3    H2 6808   4.196   2.859   0.051
 2268TIP3   OH2 6809   1.494   1.858   4.868
 2268TIP3    H1 6810   1.464   1.885   4.955
 2268TIP3    H2 6811   1.557   1.788   4.885
 2269TIP3   OH2 6812   3.716   2.979   3.220
 2269TIP3    H1 6813   3.645   2.927   3.184
 2269TIP3    H2 6814   3.674   3.059   3.252
 2270TIP3   OH2 6815   4.468   5.093   4.559
 2270TIP3    H1 6816   4.506   5.178   4.537
 2270TIP3    H2 6817   4.495   5.077   4.650
 2271TIP3   OH2 6818   0.157   1.385  -0.001
 2271TIP3    H1 6819   0.196   1.315  -0.054
 2271TIP3    H2 6820   0.226   1.408   0.062
 2272TIP3   OH2 6821   3.006   5.701   4.798
 2272TIP3    H1 6822   3.054   5.778   4.826
 2272TIP3    H2 6823   2.994   5.649   4.877
 2273TIP3   OH2 6824   4.047   3.380   0.407
 2273TIP3    H1 6825   4.068   3.464   0.366
 2273TIP3    H2 6826   4.105   3.375   0.483
 2274TIP3   OH2 6827   5.848   3.256   4.112
 2274TIP3    H1 6828   5.943   3.250   4.121
 2274TIP3    H2 6829   5.826   3.340   4.151
 2275TIP3   OH2 6830   0.689   1.438   1.520
 2275TIP3    H1 6831   0.757   1.380   1.553
 2275TIP3    H2 6832   0.720   1.464   1.432
 2276TIP3   OH2 6833   4.861   4.899   0.848
 2276TIP3    H1 6834   4.830   4.813   0.876
 2276TIP3    H2 6835   4.830   4.959   0.917
 2277TIP3   OH2 6836   5.390   2.269   1.214
 2277TIP3    H1 6837   5.370   2.325   1.139
 2277TIP3    H2 6838   5.476   2.299   1.243
 2278TIP3   OH2 6839   1.525   5.504   1.358
 2278TIP3    H1 6840   1.552   5.432   1.415
 2278TIP3    H2 6841   1.602   5.522   1.304
 2279TIP3   OH2 6842   0.091   2.026   2.750
 2279TIP3    H1 6843   0.146   2.011   2.827
 2279TIP3    H2 6844   0.149   2.013   2.675
 2280TIP3   OH2 6845   1.480   4.286   0.277
 2280TIP3    H1 6846   1.426   4.353   0.318
 2280TIP3    H2 6847   1.561   4.284   0.328
 2281TIP3   OH2 6848   0.306   1.959   3.783
 2281TIP3    H1 6849   0.280   1.867   3.796
 2281TIP3    H2 6850   0.384   1.954   3.728
 2282TIP3   OH2 6851   3.140   4.585   5.100
 2282TIP3    H1 6852   3.116   4.550   5.014
 2282TIP3    H2 6853   3.164   4.677   5.082
 2283TIP3   OH2 6854   1.629   2.535   4.987
 2283TIP3    H1 6855   1.679   2.464   4.946
 2283TIP3    H2 6856   1.570   2.566   4.919
 2284TIP3   OH2 6857   2.870   1.678   1.656
 2284TIP3    H1 6858   2.902   1.590   1.676
 2284TIP3    H2 6859   2.941   1.736   1.683
 2285TIP3   OH2 6860   1.706   2.253   4.095
 2285TIP3    H1 6861   1.745   2.337   4.117
 2285TIP3    H2 6862   1.646   2.234   4.167
 2286TIP3   OH2 6863   0.751   4.154   3.129
 2286TIP3    H1 6864   0.711   4.145   3.043
 2286TIP3    H2 6865   0.845   4.148   3.113
 2287TIP3   OH2 6866   1.808   5.301   1.262
 2287TIP3    H1 6867   1.789   5.311   1.169
 2287TIP3    H2 6868   1.903   5.307   1.267
 2288TIP3   OH2 6869   0.453   0.049   4.976
 2288TIP3    H1 6870   0.445  -0.045   4.993
 2288TIP3    H2 6871   0.510   0.081   5.046
 2289TIP3   OH2 6872   3.033   2.706   4.904
 2289TIP3    H1 6873   3.001   2.620   4.932
 2289TIP3    H2 6874   3.031   2.703   4.808
 2290TIP3   OH2 6875   2.192   1.701   1.184
 2290TIP3    H1 6876   2.211   1.748   1.103
 2290TIP3    H2 6877   2.277   1.688   1.225
 2291TIP3   OH2 6878   5.851   2.017   4.381
 2291TIP3    H1 6879   5.829   2.080   4.449
 2291TIP3    H2 6880   5.807   1.937   4.407
 2292TIP3   OH2 6881   3.514   2.895   2.381
 2292TIP3    H1 6882   3.574   2.886   2.456
 2292TIP3    H2 6883   3.541   2.825   2.321
 2293TIP3   OH2 6884   1.406   2.957   4.679
 2293TIP3    H1 6885   1.340   3.016   4.642
 2293TIP3    H2 6886   1.484   2.973   4.627
 2294TIP3   OH2 6887   1.375   3.634   3.534
 2294TIP3    H1 6888   1.324   3.698   3.485
 2294TIP3    H2 6889   1.465   3.646   3.501
 2295TIP3   OH2 6890   2.820   5.284   5.013
 2295TIP3    H1 6891   2.838   5.377   5.024
 2295TIP3    H2 6892   2.780   5.277   4.927
 2296TIP3   OH2 6893   3.598   4.017   2.602
 2296TIP3    H1 6894   3.678   4.046   2.559
 2296TIP3    H2 6895   3.528   4.064   2.556
 2297TIP3   OH2 6896   0.448   2.563   4.786
 2297TIP3    H1 6897   0.478   2.515   4.708
 2297TIP3    H2 6898   0.364   2.522   4.808
 2298TIP3   OH2 6899   5.087   2.061   2.645
 2298TIP3    H1 6900   5.063   2.136   2.698
 2298TIP3    H2 6901   5.015   2.053   2.581
 2299TIP3   OH2 6902   3.584   4.010   3.700
 2299TIP3    H1 6903   3.528   3.990   3.774
 2299TIP3    H2 6904   3.633   3.929   3.684
 2300TIP3   OH2 6905   4.370   1.267   4.369
 2300TIP3    H1 6906   4.396   1.190   4.420
 2300TIP3    H2 6907   4.280   1.285   4.397
 2301TIP3   OH2 6908   0.290   0.221   3.948
 2301TIP3    H1 6909   0.240   0.296   3.914
 2301TIP3    H2 6910   0.227   0.173   4.001
 2302TIP3   OH2 6911   4.532   2.550   2.900
 2302TIP3    H1 6912   4.484   2.625   2.935
 2302TIP3    H2 6913   4.605   2.589   2.850
 2303TIP3   OH2 6914   1.881   3.308   4.007
 2303TIP3    H1 6915   1.934   3.230   4.025
 2303TIP3    H2 6916   1.791   3.276   4.001
 2304TIP3   OH2 6917  -0.014   0.323   3.562
 2304TIP3    H1 6918  -0.069   0.380   3.508
 2304TIP3    H2 6919   0.074   0.356   3.549
 2305TIP3   OH2 6920   2.205   1.296   0.841
 2305TIP3    H1 6921   2.120   1.286   0.883
 2305TIP3    H2 6922   2.261   1.337   0.907
 2306TIP3   OH2 6923   1.863   2.074   0.453
 2306TIP3    H1 6924   1.903   2.018   0.519
 2306TIP3    H2 6925   1.936   2.124   0.416
 2307TIP3   OH2 6926   3.978   2.842   0.922
 2307TIP3    H1 6927   4.064   2.813   0.891
 2307TIP3    H2 6928   3.992   2.933   0.950
 2308TIP3   OH2 6929   5.211   4.839   2.315
 2308TIP3    H1 6930   5.290   4.795   2.346
 2308TIP3    H2 6931   5.154   4.768   2.285
 2309TIP3   OH2 6932   3.150   4.279   3.407
 2309TIP3    H1 6933   3.214   4.285   3.477
 2309TIP3    H2 6934   3.202   4.265   3.327
 2310TIP3   OH2 6935   2.023   1.874   3.901
 2310TIP3    H1 6936   2.067   1.793   3.926
 2310TIP3    H2 6937   2.092   1.925   3.856
 2311TIP3   OH2 6938   1.385   1.894   1.620
 2311TIP3    H1 6939   1.372   1.906   1.526
 2311TIP3    H2 6940   1.440   1.817   1.627
 2312TIP3   OH2 6941   0.297   2.799   4.476
 2312TIP3    H1 6942   0.241   2.749   4.535
 2312TIP3    H2 6943   0.237   2.842   4.415
 2313TIP3   OH2 6944   3.579   4.343   0.832
 2313TIP3    H1 6945   3.667   4.381   0.829
 2313TIP3    H2 6946   3.573   4.304   0.920
 2314TIP3   OH2 6947   5.860   4.765   0.596
 2314TIP3    H1 6948   5.874   4.842   0.541
 2314TIP3    H2 6949   5.910   4.782   0.676
 2315TIP3   OH2 6950   3.159   5.800   0.267
 2315TIP3    H1 6951   3.215   5.863   0.312
 2315TIP3    H2 6952   3.071   5.816   0.302
 2316TIP3   OH2 6953   1.246   0.495   4.311
 2316TIP3    H1 6954   1.257   0.536   4.396
 2316TIP3    H2 6955   1.277   0.560   4.248
 2317TIP3   OH2 6956   6.019   4.612   3.767
 2317TIP3    H1 6957   6.073   4.532   3.764
 2317TIP3    H2 6958   6.083   4.683   3.771
 2318TIP3   OH2 6959   5.444   1.700   2.302
 2318TIP3    H1 6960   5.396   1.779   2.277
 2318TIP3    H2 6961   5.496   1.726   2.378
 2319TIP3   OH2 6962   1.068   5.671   3.937
 2319TIP3    H1 6963   1.106   5.667   4.025
 2319TIP3    H2 6964   1.032   5.760   3.931
 2320TIP3   OH2 6965   4.625   0.960   2.306
 2320TIP3    H1 6966   4.612   0.928   2.217
 2320TIP3    H2 6967   4.715   0.992   2.308
 2321TIP3   OH2 6968   0.522   0.464   3.533
 2321TIP3    H1 6969   0.515   0.371   3.554
 2321TIP3    H2 6970   0.532   0.466   3.437
 2322TIP3   OH2 6971   4.314   3.374   3.015
 2322TIP3    H1 6972   4.247   3.422   2.967
 2322TIP3    H2 6973   4.268   3.296   3.049
 2323TIP3   OH2 6974   1.001   5.137   2.880
 2323TIP3    H1 6975   1.085   5.123   2.923
 2323TIP3    H2 6976   1.003   5.080   2.803
 2324TIP3   OH2 6977   4.233   2.230   4.770
 2324TIP3    H1 6978   4.273   2.205   4.853
 2324TIP3    H2 6979   4.165   2.292   4.793
 2325TIP3   OH2 6980   5.661   2.205   1.583
 2325TIP3    H1 6981   5.654   2.122   1.536
 2325TIP3    H2 6982   5.603   2.265   1.536
 2326TIP3   OH2 6983   1.244   4.280   3.668
 2326TIP3    H1 6984   1.258   4.364   3.712
 2326TIP3    H2 6985   1.317   4.271   3.608
 2327TIP3   OH2 6986   2.732   4.722   1.796
 2327TIP3    H1 6987   2.650   4.672   1.790
 2327TIP3    H2 6988   2.742   4.742   1.889
 2328TIP3   OH2 6989   5.338   3.225   5.138
 2328TIP3    H1 6990   5.319   3.193   5.050
 2328TIP3    H2 6991   5.387   3.306   5.123
 2329TIP3   OH2 6992   4.997   0.831   2.496
 2329TIP3    H1 6993   4.950   0.759   2.452
 2329TIP3    H2 6994   5.043   0.789   2.568
 2330TIP3   OH2 6995   0.118   0.477   2.772
 2330TIP3    H1 6996   0.198   0.465   2.823
 2330TIP3    H2 6997   0.048   0.473   2.838
 2331TIP3   OH2 6998   2.076   0.005   2.285
 2331TIP3    H1 6999   2.039  -0.071   2.240
 2331TIP3    H2 7000   2.018   0.078   2.262
 2332TIP3   OH2 7001   3.982   3.763   1.778
 2332TIP3    H1 7002   3.908   3.816   1.807
 2332TIP3    H2 7003   3.985   3.776   1.683
 2333TIP3   OH2 7004   5.563   2.065   3.085
 2333TIP3    H1 7005   5.470   2.085   3.072
 2333TIP3    H2 7006   5.609   2.123   3.024
 2334TIP3   OH2 7007   4.132   4.559   4.988
 2334TIP3    H1 7008   4.143   4.465   5.002
 2334TIP3    H2 7009   4.039   4.575   5.008
 2335TIP3   OH2 7010   5.544   2.882   5.090
 2335TIP3    H1 7011   5.589   2.937   5.155
 2335TIP3    H2 7012   5.457   2.868   5.127
 2336TIP3   OH2 7013   2.443   5.368   0.767
 2336TIP3    H1 7014   2.372   5.429   0.787
 2336TIP3    H2 7015   2.419   5.330   0.682
 2337TIP3   OH2 7016   3.095   0.151   2.204
 2337TIP3    H1 7017   3.131   0.137   2.116
 2337TIP3    H2 7018   3.031   0.221   2.193
 2338TIP3   OH2 7019   6.340   1.376   2.452
 2338TIP3    H1 7020   6.293   1.314   2.508
 2338TIP3    H2 7021   6.367   1.323   2.376
 2339TIP3   OH2 7022   3.820   4.134   0.704
 2339TIP3    H1 7023   3.887   4.072   0.675
 2339TIP3    H2 7024   3.737   4.091   0.683
 2340TIP3   OH2 7025   5.293   5.874   4.133
 2340TIP3    H1 7026   5.332   5.953   4.098
 2340TIP3    H2 7027   5.231   5.846   4.066
 2341TIP3   OH2 7028   1.667   4.305   3.716
 2341TIP3    H1 7029   1.600   4.271   3.658
 2341TIP3    H2 7030   1.676   4.238   3.784
 2342TIP3   OH2 7031   1.112   0.241   4.586
 2342TIP3    H1 7032   1.116   0.162   4.639
 2342TIP3    H2 7033   1.194   0.288   4.605
 2343TIP3   OH2 7034   4.214   4.686   4.083
 2343TIP3    H1 7035   4.216   4.676   3.988
 2343TIP3    H2 7036   4.268   4.614   4.116
 2344TIP3   OH2 7037   3.738   0.691   1.341
 2344TIP3    H1 7038   3.669   0.667   1.403
 2344TIP3    H2 7039   3.717   0.642   1.261
 2345TIP3   OH2 7040   1.693   3.830   2.738
 2345TIP3    H1 7041   1.627   3.763   2.726
 2345TIP3    H2 7042   1.741   3.832   2.656
 2346TIP3   OH2 7043   5.164   1.617   3.065
 2346TIP3    H1 7044   5.251   1.637   3.033
 2346TIP3    H2 7045   5.178   1.563   3.142
 2347TIP3   OH2 7046   5.734   0.826   2.639
 2347TIP3    H1 7047   5.649   0.781   2.643
 2347TIP3    H2 7048   5.784   0.787   2.711
 2348TIP3   OH2 7049   0.144   3.554   3.074
 2348TIP3    H1 7050   0.130   3.648   3.064
 2348TIP3    H2 7051   0.237   3.545   3.096
 2349TIP3   OH2 7052   0.689   5.912   4.096
 2349TIP3    H1 7053   0.669   5.996   4.136
 2349TIP3    H2 7054   0.612   5.858   4.113
 2350TIP3   OH2 7055   2.496   1.818   3.226
 2350TIP3    H1 7056   2.565   1.753   3.222
 2350TIP3    H2 7057   2.416   1.768   3.240
 2351TIP3   OH2 7058   3.335   0.297   0.514
 2351TIP3    H1 7059   3.273   0.273   0.583
 2351TIP3    H2 7060   3.320   0.390   0.498
 2352TIP3   OH2 7061   1.002   2.991   4.554
 2352TIP3    H1 7062   0.926   2.933   4.541
 2352TIP3    H2 7063   0.988   3.062   4.491
 2353TIP3   OH2 7064   1.761   3.422   0.519
 2353TIP3    H1 7065   1.708   3.345   0.499
 2353TIP3    H2 7066   1.723   3.456   0.600
 2354TIP3   OH2 7067   2.523   1.726   2.348
 2354TIP3    H1 7068   2.600   1.756   2.397
 2354TIP3    H2 7069   2.550   1.731   2.256
 2355TIP3   OH2 7070   5.067   4.801   0.691
 2355TIP3    H1 7071   5.022   4.849   0.761
 2355TIP3    H2 7072   5.149   4.848   0.678
 2356TIP3   OH2 7073   1.219   0.574   4.611
 2356TIP3    H1 7074   1.220   0.580   4.707
 2356TIP3    H2 7075   1.139   0.620   4.585
 2357TIP3   OH2 7076   5.396   2.424   5.067
 2357TIP3    H1 7077   5.332   2.439   4.998
 2357TIP3    H2 7078   5.481   2.442   5.026
 2358TIP3   OH2 7079   5.966   4.196   2.463
 2358TIP3    H1 7080   6.057   4.199   2.491
 2358TIP3    H2 7081   5.964   4.129   2.394
 2359TIP3   OH2 7082   4.800   3.905   0.794
 2359TIP3    H1 7083   4.749   3.960   0.854
 2359TIP3    H2 7084   4.879   3.956   0.777
 2360TIP3   OH2 7085   2.808   0.712   4.526
 2360TIP3    H1 7086   2.861   0.663   4.464
 2360TIP3    H2 7087   2.831   0.804   4.510
 2361TIP3   OH2 7088   0.437   3.650   1.953
 2361TIP3    H1 7089   0.352   3.618   1.982
 2361TIP3    H2 7090   0.422   3.682   1.864
 2362TIP3   OH2 7091   2.401   1.146   3.002
 2362TIP3    H1 7092   2.316   1.148   3.046
 2362TIP3    H2 7093   2.422   1.053   2.994
 2363TIP3   OH2 7094   1.232   2.564   3.844
 2363TIP3    H1 7095   1.297   2.494   3.837
 2363TIP3    H2 7096   1.167   2.529   3.905
 2364TIP3   OH2 7097   3.574   1.240   2.104
 2364TIP3    H1 7098   3.497   1.220   2.158
 2364TIP3    H2 7099   3.624   1.158   2.104
 2365TIP3   OH2 7100   6.135   1.747   4.941
 2365TIP3    H1 7101   6.210   1.800   4.915
 2365TIP3    H2 7102   6.066   1.771   4.880
 2366TIP3   OH2 7103   3.771   1.723   2.993
 2366TIP3    H1 7104   3.792   1.813   2.967
 2366TIP3    H2 7105   3.722   1.687   2.918
 2367TIP3   OH2 7106   0.564   0.941   1.958
 2367TIP3    H1 7107   0.543   1.015   2.015
 2367TIP3    H2 7108   0.659   0.947   1.945
 2368TIP3   OH2 7109   5.886   1.795   4.799
 2368TIP3    H1 7110   5.820   1.734   4.834
 2368TIP3    H2 7111   5.872   1.875   4.849
 2369TIP3   OH2 7112   0.447   3.243   1.890
 2369TIP3    H1 7113   0.395   3.164   1.903
 2369TIP3    H2 7114   0.393   3.299   1.834
 2370TIP3   OH2 7115   0.775   4.578   4.637
 2370TIP3    H1 7116   0.706   4.512   4.648
 2370TIP3    H2 7117   0.828   4.546   4.564
 2371TIP3   OH2 7118   2.633   0.950   4.032
 2371TIP3    H1 7119   2.548   0.908   4.016
 2371TIP3    H2 7120   2.670   0.961   3.945
 2372TIP3   OH2 7121   1.213   2.644   4.254
 2372TIP3    H1 7122   1.211   2.587   4.330
 2372TIP3    H2 7123   1.162   2.598   4.188
 2373TIP3   OH2 7124   2.363   1.377   1.968
 2373TIP3    H1 7125   2.401   1.298   1.929
 2373TIP3    H2 7126   2.439   1.427   1.998
 2374TIP3   OH2 7127   4.948   3.486   3.876
 2374TIP3    H1 7128   5.030   3.464   3.832
 2374TIP3    H2 7129   4.881   3.474   3.809
 2375TIP3   OH2 7130   3.947   1.857   2.251
 2375TIP3    H1 7131   3.885   1.812   2.194
 2375TIP3    H2 7132   3.985   1.788   2.305
 2376TIP3   OH2 7133   1.508   2.268   2.571
 2376TIP3    H1 7134   1.519   2.176   2.545
 2376TIP3    H2 7135   1.511   2.266   2.666
 2377TIP3   OH2 7136   5.511   5.292   3.794
 2377TIP3    H1 7137   5.515   5.247   3.709
 2377TIP3    H2 7138   5.575   5.246   3.848
 2378TIP3   OH2 7139   3.882   1.055   3.415
 2378TIP3    H1 7140   3.882   1.110   3.337
 2378TIP3    H2 7141   3.955   0.994   3.401
 2379TIP3   OH2 7142   4.082   0.357   0.206
 2379TIP3    H1 7143   4.144   0.352   0.133
 2379TIP3    H2 7144   4.119   0.422   0.265
 2380TIP3   OH2 7145   3.730   0.150   4.694
 2380TIP3    H1 7146   3.778   0.165   4.612
 2380TIP3    H2 7147   3.736   0.233   4.741
 2381TIP3   OH2 7148   0.257   2.612   2.389
 2381TIP3    H1 7149   0.313   2.689   2.399
 2381TIP3    H2 7150   0.242   2.606   2.294
 2382TIP3   OH2 7151   0.823   5.152   1.140
 2382TIP3    H1 7152   0.865   5.235   1.121
 2382TIP3    H2 7153   0.731   5.164   1.117
 2383TIP3   OH2 7154   3.014   0.904   4.764
 2383TIP3    H1 7155   3.053   0.895   4.851
 2383TIP3    H2 7156   2.930   0.946   4.781
 2384TIP3   OH2 7157   2.886   0.484   1.209
 2384TIP3    H1 7158   2.791   0.495   1.211
 2384TIP3    H2 7159   2.904   0.426   1.283
 2385TIP3   OH2 7160   3.771   1.178   1.141
 2385TIP3    H1 7161   3.775   1.212   1.230
 2385TIP3    H2 7162   3.791   1.253   1.085
 2386TIP3   OH2 7163   1.220   0.241   3.146
 2386TIP3    H1 7164   1.217   0.212   3.055
 2386TIP3    H2 7165   1.236   0.335   3.141
 2387TIP3   OH2 7166   6.009   1.181   5.023
 2387TIP3    H1 7167   5.965   1.209   5.104
 2387TIP3    H2 7168   6.023   1.263   4.975
 2388TIP3   OH2 7169   0.151   1.447   4.303
 2388TIP3    H1 7170   0.230   1.416   4.258
 2388TIP3    H2 7171   0.184   1.507   4.369
 2389TIP3   OH2 7172   4.956   3.273   0.936
 2389TIP3    H1 7173   5.004   3.298   1.015
 2389TIP3    H2 7174   4.941   3.356   0.890
 2390TIP3   OH2 7175   5.031   2.383   0.160
 2390TIP3    H1 7176   5.033   2.428   0.245
 2390TIP3    H2 7177   5.122   2.362   0.142
 2391TIP3   OH2 7178   0.584   3.551   0.436
 2391TIP3    H1 7179   0.544   3.470   0.467
 2391TIP3    H2 7180   0.542   3.568   0.352
 2392TIP3   OH2 7181   4.764   0.401   1.996
 2392TIP3    H1 7182   4.803   0.444   1.920
 2392TIP3    H2 7183   4.798   0.450   2.071
 2393TIP3   OH2 7184   6.029   3.873   0.536
 2393TIP3    H1 7185   6.062   3.879   0.626
 2393TIP3    H2 7186   6.103   3.840   0.486
 2394TIP3   OH2 7187   3.996   0.958   0.347
 2394TIP3    H1 7188   3.952   1.042   0.364
 2394TIP3    H2 7189   4.087   0.983   0.326
 2395TIP3   OH2 7190   2.397   2.568   0.290
 2395TIP3    H1 7191   2.328   2.614   0.339
 2395TIP3    H2 7192   2.350   2.519   0.223
 2396TIP3   OH2 7193   1.951   2.910   3.634
 2396TIP3    H1 7194   2.032   2.877   3.596
 2396TIP3    H2 7195   1.900   2.831   3.654
 2397TIP3   OH2 7196   1.355   5.971   2.153
 2397TIP3    H1 7197   1.414   5.897   2.165
 2397TIP3    H2 7198   1.349   6.012   2.239
 2398TIP3   OH2 7199   4.426   1.896   3.706
 2398TIP3    H1 7200   4.430   1.979   3.658
 2398TIP3    H2 7201   4.493   1.841   3.666
 2399TIP3   OH2 7202   2.194   1.457   4.269
 2399TIP3    H1 7203   2.116   1.465   4.325
 2399TIP3    H2 7204   2.265   1.491   4.323
 2400TIP3   OH2 7205   3.565   1.813   4.512
 2400TIP3    H1 7206   3.509   1.863   4.452
 2400TIP3    H2 7207   3.597   1.878   4.574
 2401TIP3   OH2 7208   2.058   3.135   4.273
 2401TIP3    H1 7209   2.115   3.211   4.287
 2401TIP3    H2 7210   2.019   3.118   4.358
 2402TIP3   OH2 7211   0.532   3.880   1.409
 2402TIP3    H1 7212   0.447   3.911   1.379
 2402TIP3    H2 7213   0.570   3.955   1.455
 2403TIP3   OH2 7214   2.944   5.244   1.622
 2403TIP3    H1 7215   2.938   5.171   1.683
 2403TIP3    H2 7216   3.036   5.249   1.599
 2404TIP3   OH2 7217   2.298   2.239   4.122
 2404TIP3    H1 7218   2.302   2.276   4.034
 2404TIP3    H2 7219   2.219   2.184   4.122
 2405TIP3   OH2 7220   4.393   0.283   3.990
 2405TIP3    H1 7221   4.313   0.247   4.027
 2405TIP3    H2 7222   4.456   0.212   3.994
 2406TIP3   OH2 7223   2.365   5.598   2.282
 2406TIP3    H1 7224   2.409   5.677   2.250
 2406TIP3    H2 7225   2.436   5.542   2.312
 2407TIP3   OH2 7226   4.278   0.090   2.805
 2407TIP3    H1 7227   4.263   0.063   2.715
 2407TIP3    H2 7228   4.265   0.185   2.805
 2408TIP3   OH2 7229   5.483   4.497   3.561
 2408TIP3    H1 7230   5.431   4.575   3.581
 2408TIP3    H2 7231   5.559   4.531   3.512
 2409TIP3   OH2 7232   1.630   0.040   1.055
 2409TIP3    H1 7233   1.550   0.089   1.076
 2409TIP3    H2 7234   1.616   0.007   0.967
 2410TIP3   OH2 7235   3.220   3.090   0.360
 2410TIP3    H1 7236   3.137   3.071   0.317
 2410TIP3    H2 7237   3.197   3.147   0.433
 2411TIP3   OH2 7238   4.730   5.769   2.911
 2411TIP3    H1 7239   4.779   5.707   2.857
 2411TIP3    H2 7240   4.719   5.725   2.995
 2412TIP3   OH2 7241   5.485   5.716   4.540
 2412TIP3    H1 7242   5.489   5.798   4.491
 2412TIP3    H2 7243   5.464   5.743   4.630
 2413TIP3   OH2 7244   2.549   4.036   3.017
 2413TIP3    H1 7245   2.603   4.096   2.965
 2413TIP3    H2 7246   2.479   4.091   3.051
 2414TIP3   OH2 7247   2.903   5.151   0.474
 2414TIP3    H1 7248   2.983   5.123   0.519
 2414TIP3    H2 7249   2.836   5.150   0.541
 2415TIP3   OH2 7250   3.735   5.471   4.432
 2415TIP3    H1 7251   3.703   5.411   4.500
 2415TIP3    H2 7252   3.674   5.545   4.436
 2416TIP3   OH2 7253   6.130   1.252   2.184
 2416TIP3    H1 7254   6.054   1.232   2.239
 2416TIP3    H2 7255   6.204   1.213   2.230
 2417TIP3   OH2 7256   1.057   2.514   4.778
 2417TIP3    H1 7257   1.075   2.606   4.799
 2417TIP3    H2 7258   1.034   2.474   4.862
 2418TIP3   OH2 7259   3.576   3.282   0.146
 2418TIP3    H1 7260   3.502   3.305   0.090
 2418TIP3    H2 7261   3.544   3.211   0.202
 2419TIP3   OH2 7262   2.212   4.887   2.382
 2419TIP3    H1 7263   2.256   4.940   2.448
 2419TIP3    H2 7264   2.217   4.939   2.302
 2420TIP3   OH2 7265   1.676   3.888   0.610
 2420TIP3    H1 7266   1.719   3.806   0.634
 2420TIP3    H2 7267   1.670   3.885   0.515
 2421TIP3   OH2 7268   0.325   4.817   4.561
 2421TIP3    H1 7269   0.330   4.910   4.543
 2421TIP3    H2 7270   0.406   4.780   4.526
 2422TIP3   OH2 7271   5.356   4.394   0.563
 2422TIP3    H1 7272   5.443   4.392   0.603
 2422TIP3    H2 7273   5.368   4.442   0.481
 2423TIP3   OH2 7274   5.804   1.406   1.014
 2423TIP3    H1 7275   5.868   1.420   0.944
 2423TIP3    H2 7276   5.795   1.310   1.020
 2424TIP3   OH2 7277   0.901   4.412   0.488
 2424TIP3    H1 7278   0.973   4.383   0.432
 2424TIP3    H2 7279   0.903   4.351   0.562
 2425TIP3   OH2 7280   3.781   5.866   1.064
 2425TIP3    H1 7281   3.793   5.839   0.972
 2425TIP3    H2 7282   3.860   5.834   1.108
 2426TIP3   OH2 7283   1.965   0.473   1.357
 2426TIP3    H1 7284   1.923   0.404   1.307
 2426TIP3    H2 7285   2.056   0.444   1.368
 2427TIP3   OH2 7286   1.198   3.248   1.302
 2427TIP3    H1 7287   1.135   3.300   1.354
 2427TIP3    H2 7288   1.283   3.272   1.337
 2428TIP3   OH2 7289   3.564   1.906   1.438
 2428TIP3    H1 7290   3.655   1.880   1.421
 2428TIP3    H2 7291   3.517   1.823   1.443
 2429TIP3   OH2 7292   5.486   4.992   0.852
 2429TIP3    H1 7293   5.574   5.026   0.835
 2429TIP3    H2 7294   5.492   4.899   0.831
 2430TIP3   OH2 7295   0.767   2.283   2.464
 2430TIP3    H1 7296   0.847   2.240   2.433
 2430TIP3    H2 7297   0.785   2.306   2.555
 2431TIP3   OH2 7298   2.159   2.073   3.773
 2431TIP3    H1 7299   2.204   2.058   3.690
 2431TIP3    H2 7300   2.215   2.135   3.819
 2432TIP3   OH2 7301   2.315   0.904   2.276
 2432TIP3    H1 7302   2.303   0.890   2.182
 2432TIP3    H2 7303   2.246   0.967   2.299
 2433TIP3   OH2 7304   3.444   1.302   4.681
 2433TIP3    H1 7305   3.352   1.293   4.706
 2433TIP3    H2 7306   3.449   1.387   4.637
 2434TIP3   OH2 7307   0.246   1.066   1.212
 2434TIP3    H1 7308   0.244   1.098   1.303
 2434TIP3    H2 7309   0.328   1.017   1.206
 2435TIP3   OH2 7310   2.439   0.864   2.686
 2435TIP3    H1 7311   2.383   0.939   2.665
 2435TIP3    H2 7312   2.402   0.792   2.634
 2436TIP3   OH2 7313   4.221   4.732   4.539
 2436TIP3    H1 7314   4.288   4.664   4.548
 2436TIP3    H2 7315   4.166   4.722   4.616
 2437TIP3   OH2 7316   0.668   1.533   0.748
 2437TIP3    H1 7317   0.578   1.558   0.765
 2437TIP3    H2 7318   0.721   1.599   0.794
 2438TIP3   OH2 7319   2.235   5.894   3.114
 2438TIP3    H1 7320   2.247   5.872   3.022
 2438TIP3    H2 7321   2.217   5.809   3.156
 2439TIP3   OH2 7322   1.481   2.233   1.401
 2439TIP3    H1 7323   1.534   2.214   1.478
 2439TIP3    H2 7324   1.461   2.326   1.408
 2440TIP3   OH2 7325   1.648   3.585   3.788
 2440TIP3    H1 7326   1.578   3.604   3.850
 2440TIP3    H2 7327   1.644   3.491   3.774
 2441TIP3   OH2 7328   0.787   3.287   3.284
 2441TIP3    H1 7329   0.863   3.235   3.309
 2441TIP3    H2 7330   0.730   3.226   3.236
 2442TIP3   OH2 7331   2.286   3.313   2.452
 2442TIP3    H1 7332   2.372   3.348   2.430
 2442TIP3    H2 7333   2.273   3.240   2.391
 2443TIP3   OH2 7334   2.847   2.193   1.917
 2443TIP3    H1 7335   2.923   2.135   1.916
 2443TIP3    H2 7336   2.829   2.210   1.824
 2444TIP3   OH2 7337   5.086   1.835   1.916
 2444TIP3    H1 7338   5.116   1.893   1.846
 2444TIP3    H2 7339   5.154   1.769   1.922
 2445TIP3   OH2 7340   6.029   3.146   1.886
 2445TIP3    H1 7341   6.108   3.109   1.848
 2445TIP3    H2 7342   6.059   3.223   1.934
 2446TIP3   OH2 7343   0.470   1.375   1.691
 2446TIP3    H1 7344   0.552   1.389   1.644
 2446TIP3    H2 7345   0.480   1.289   1.732
 2447TIP3   OH2 7346   2.005   1.123   2.163
 2447TIP3    H1 7347   2.065   1.107   2.236
 2447TIP3    H2 7348   2.019   1.049   2.104
 2448TIP3   OH2 7349   4.151   3.174   0.176
 2448TIP3    H1 7350   4.121   3.262   0.200
 2448TIP3    H2 7351   4.247   3.180   0.178
 2449TIP3   OH2 7352   0.385   5.689   3.393
 2449TIP3    H1 7353   0.476   5.666   3.411
 2449TIP3    H2 7354   0.334   5.637   3.456
 2450TIP3   OH2 7355   5.043   1.286  -0.041
 2450TIP3    H1 7356   4.950   1.302  -0.056
 2450TIP3    H2 7357   5.064   1.337   0.038
 2451TIP3   OH2 7358   4.045   4.787   2.356
 2451TIP3    H1 7359   4.092   4.863   2.391
 2451TIP3    H2 7360   4.075   4.781   2.266
 2452TIP3   OH2 7361   3.436   1.970   4.330
 2452TIP3    H1 7362   3.361   2.029   4.337
 2452TIP3    H2 7363   3.512   2.026   4.339
 2453TIP3   OH2 7364   5.018   4.092   0.759
 2453TIP3    H1 7365   5.050   4.178   0.734
 2453TIP3    H2 7366   5.094   4.048   0.796
 2454TIP3   OH2 7367   1.367   4.971   0.701
 2454TIP3    H1 7368   1.335   4.954   0.790
 2454TIP3    H2 7369   1.379   4.884   0.663
 2455TIP3   OH2 7370   1.704   2.529   3.920
 2455TIP3    H1 7371   1.620   2.524   3.966
 2455TIP3    H2 7372   1.769   2.536   3.990
 2456TIP3   OH2 7373   4.140   2.763   0.356
 2456TIP3    H1 7374   4.166   2.798   0.441
 2456TIP3    H2 7375   4.074   2.697   0.377
 2457TIP3   OH2 7376   0.850   1.069   4.412
 2457TIP3    H1 7377   0.942   1.062   4.385
 2457TIP3    H2 7378   0.822   0.979   4.428
 2458TIP3   OH2 7379   2.874   0.820   0.257
 2458TIP3    H1 7380   2.928   0.770   0.320
 2458TIP3    H2 7381   2.897   0.783   0.172
 2459TIP3   OH2 7382   5.599   4.640   2.155
 2459TIP3    H1 7383   5.593   4.547   2.178
 2459TIP3    H2 7384   5.531   4.653   2.089
 2460TIP3   OH2 7385   1.001   0.561   4.817
 2460TIP3    H1 7386   0.979   0.572   4.909
 2460TIP3    H2 7387   0.931   0.506   4.782
 2461TIP3   OH2 7388   5.364   3.676   3.939
 2461TIP3    H1 7389   5.457   3.697   3.926
 2461TIP3    H2 7390   5.329   3.753   3.985
 2462TIP3   OH2 7391   0.302   1.414   4.617
 2462TIP3    H1 7392   0.249   1.351   4.568
 2462TIP3    H2 7393   0.362   1.449   4.552
 2463TIP3   OH2 7394   1.816   1.360   3.862
 2463TIP3    H1 7395   1.755   1.304   3.910
 2463TIP3    H2 7396   1.898   1.354   3.911
 2464TIP3   OH2 7397   4.684   4.872   2.090
 2464TIP3    H1 7398   4.663   4.807   2.157
 2464TIP3    H2 7399   4.779   4.867   2.081
 2465TIP3   OH2 7400   3.294   2.568   0.158
 2465TIP3    H1 7401   3.325   2.518   0.084
 2465TIP3    H2 7402   3.337   2.653   0.150
 2466TIP3   OH2 7403   6.260   1.871   0.275
 2466TIP3    H1 7404   6.223   1.911   0.196
 2466TIP3    H2 7405   6.299   1.944   0.322
 2467TIP3   OH2 7406   3.009   4.161   2.290
 2467TIP3    H1 7407   2.920   4.131   2.276
 2467TIP3    H2 7408   3.064   4.097   2.244
 2468TIP3   OH2 7409   5.043   2.257   1.178
 2468TIP3    H1 7410   5.115   2.229   1.234
 2468TIP3    H2 7411   5.028   2.183   1.119
 2469TIP3   OH2 7412   4.102   0.955   1.077
 2469TIP3    H1 7413   4.041   0.974   1.006
 2469TIP3    H2 7414   4.046   0.941   1.154
 2470TIP3   OH2 7415   1.339   0.777   3.143
 2470TIP3    H1 7416   1.346   0.869   3.121
 2470TIP3    H2 7417   1.277   0.741   3.080
 2471TIP3   OH2 7418   5.219   5.474   2.382
 2471TIP3    H1 7419   5.249   5.507   2.467
 2471TIP3    H2 7420   5.188   5.552   2.336
 2472TIP3   OH2 7421   3.373   3.856   4.657
 2472TIP3    H1 7422   3.370   3.890   4.746
 2472TIP3    H2 7423   3.302   3.901   4.611
 2473TIP3   OH2 7424   3.949   0.770   3.161
 2473TIP3    H1 7425   3.920   0.697   3.106
 2473TIP3    H2 7426   3.996   0.729   3.233
 2474TIP3   OH2 7427   6.249   0.400   4.462
 2474TIP3    H1 7428   6.211   0.482   4.434
 2474TIP3    H2 7429   6.338   0.401   4.427
 2475TIP3   OH2 7430   1.201   3.026   4.356
 2475TIP3    H1 7431   1.142   2.960   4.319
 2475TIP3    H2 7432   1.183   3.024   4.450
 2476TIP3   OH2 7433   0.427   5.669   3.098
 2476TIP3    H1 7434   0.363   5.622   3.044
 2476TIP3    H2 7435   0.381   5.686   3.181
 2477TIP3   OH2 7436   5.437   1.403   0.356
 2477TIP3    H1 7437   5.479   1.443   0.432
 2477TIP3    H2 7438   5.453   1.310   0.365
 2478TIP3   OH2 7439   2.069   1.490   3.350
 2478TIP3    H1 7440   2.036   1.477   3.261
 2478TIP3    H2 7441   1.992   1.482   3.406
 2479TIP3   OH2 7442   5.756   1.742   1.859
 2479TIP3    H1 7443   5.791   1.680   1.924
 2479TIP3    H2 7444   5.681   1.783   1.903
 2480TIP3   OH2 7445   5.520   5.731   1.534
 2480TIP3    H1 7446   5.513   5.701   1.443
 2480TIP3    H2 7447   5.580   5.805   1.531
 2481TIP3   OH2 7448   5.715   4.645   3.767
 2481TIP3    H1 7449   5.701   4.702   3.842
 2481TIP3    H2 7450   5.797   4.599   3.787
 2482TIP3   OH2 7451   2.629   3.889   2.228
 2482TIP3    H1 7452   2.549   3.872   2.179
 2482TIP3    H2 7453   2.614   3.974   2.270
 2483TIP3   OH2 7454   3.781   3.046   1.914
 2483TIP3    H1 7455   3.849   2.987   1.947
 2483TIP3    H2 7456   3.712   3.044   1.981
 2484TIP3   OH2 7457   3.536   2.301   1.597
 2484TIP3    H1 7458   3.618   2.280   1.553
 2484TIP3    H2 7459   3.506   2.218   1.634
 2485TIP3   OH2 7460   1.094   0.167   2.377
 2485TIP3    H1 7461   1.185   0.186   2.352
 2485TIP3    H2 7462   1.096   0.076   2.405
 2486TIP3   OH2 7463   2.909   3.727   0.703
 2486TIP3    H1 7464   2.881   3.761   0.618
 2486TIP3    H2 7465   2.915   3.632   0.690
 2487TIP3   OH2 7466   5.794   4.568   2.534
 2487TIP3    H1 7467   5.712   4.609   2.562
 2487TIP3    H2 7468   5.808   4.497   2.595
 2488TIP3   OH2 7469   3.744   5.823   3.674
 2488TIP3    H1 7470   3.825   5.777   3.697
 2488TIP3    H2 7471   3.739   5.895   3.737
 2489TIP3   OH2 7472   1.998   0.248   4.551
 2489TIP3    H1 7473   1.926   0.265   4.612
 2489TIP3    H2 7474   2.041   0.333   4.542
 2490TIP3   OH2 7475   3.347   3.513   4.326
 2490TIP3    H1 7476   3.424   3.545   4.279
 2490TIP3    H2 7477   3.276   3.519   4.262
 2491TIP3   OH2 7478   0.206   0.247   2.164
 2491TIP3    H1 7479   0.225   0.252   2.070
 2491TIP3    H2 7480   0.200   0.154   2.182
 2492TIP3   OH2 7481   5.780   0.798   3.217
 2492TIP3    H1 7482   5.780   0.847   3.134
 2492TIP3    H2 7483   5.688   0.792   3.241
 2493TIP3   OH2 7484   0.195   4.351   0.925
 2493TIP3    H1 7485   0.280   4.395   0.924
 2493TIP3    H2 7486   0.198   4.292   0.850
 2494TIP3   OH2 7487   3.191   2.010   0.871
 2494TIP3    H1 7488   3.253   1.953   0.825
 2494TIP3    H2 7489   3.247   2.071   0.919
 2495TIP3   OH2 7490   4.811   1.640   3.315
 2495TIP3    H1 7491   4.847   1.711   3.262
 2495TIP3    H2 7492   4.717   1.655   3.315
 2496TIP3   OH2 7493   0.451   3.251   2.599
 2496TIP3    H1 7494   0.401   3.305   2.538
 2496TIP3    H2 7495   0.395   3.245   2.676
 2497TIP3   OH2 7496   6.113   2.696   1.222
 2497TIP3    H1 7497   6.067   2.775   1.197
 2497TIP3    H2 7498   6.051   2.625   1.201
 2498TIP3   OH2 7499   2.684   5.832   0.269
 2498TIP3    H1 7500   2.647   5.897   0.329
 2498TIP3    H2 7501   2.666   5.748   0.311
 2499TIP3   OH2 7502   3.811   1.332   3.698
 2499TIP3    H1 7503   3.864   1.273   3.752
 2499TIP3    H2 7504   3.876   1.383   3.649
 2500TIP3   OH2 7505   2.000   3.233   2.049
 2500TIP3    H1 7506   2.024   3.180   1.973
 2500TIP3    H2 7507   1.904   3.233   2.049
 2501TIP3   OH2 7508   4.631   4.194   1.848
 2501TIP3    H1 7509   4.665   4.270   1.894
 2501TIP3    H2 7510   4.548   4.174   1.892
 2502TIP3   OH2 7511   4.777   1.972   2.683
 2502TIP3    H1 7512   4.786   2.022   2.602
 2502TIP3    H2 7513   4.791   2.036   2.753
 2503TIP3   OH2 7514   1.369   2.416   2.163
 2503TIP3    H1 7515   1.446   2.396   2.110
 2503TIP3    H2 7516   1.372   2.511   2.175
 2504TIP3   OH2 7517   2.128   4.955   5.101
 2504TIP3    H1 7518   2.193   5.020   5.076
 2504TIP3    H2 7519   2.063   5.004   5.151
 2505TIP3   OH2 7520   4.990   1.103   1.089
 2505TIP3    H1 7521   5.012   1.126   1.179
 2505TIP3    H2 7522   4.986   1.007   1.089
 2506TIP3   OH2 7523   2.687   3.328   3.641
 2506TIP3    H1 7524   2.609   3.376   3.614
 2506TIP3    H2 7525   2.713   3.279   3.563
 2507TIP3   OH2 7526   1.670   4.469   2.369
 2507TIP3    H1 7527   1.587   4.470   2.321
 2507TIP3    H2 7528   1.723   4.537   2.327
 2508TIP3   OH2 7529   1.863   2.932   0.924
 2508TIP3    H1 7530   1.900   3.004   0.976
 2508TIP3    H2 7531   1.771   2.930   0.950
 2509TIP3   OH2 7532   0.267   2.811   3.653
 2509TIP3    H1 7533   0.283   2.724   3.690
 2509TIP3    H2 7534   0.349   2.835   3.610
 2510TIP3   OH2 7535   5.375   4.145   0.444
 2510TIP3    H1 7536   5.374   4.234   0.480
 2510TIP3    H2 7537   5.296   4.104   0.478
 2511TIP3   OH2 7538   4.421   2.111   0.862
 2511TIP3    H1 7539   4.492   2.071   0.812
 2511TIP3    H2 7540   4.462   2.139   0.944
 2512TIP3   OH2 7541   4.426   1.206   5.141
 2512TIP3    H1 7542   4.392   1.232   5.227
 2512TIP3    H2 7543   4.347   1.186   5.090
 2513TIP3   OH2 7544   5.231   0.478   4.878
 2513TIP3    H1 7545   5.216   0.572   4.872
 2513TIP3    H2 7546   5.323   0.466   4.854
 2514TIP3   OH2 7547   5.257   1.909   0.720
 2514TIP3    H1 7548   5.189   1.874   0.662
 2514TIP3    H2 7549   5.254   1.853   0.797
 2515TIP3   OH2 7550   5.975   3.469   0.151
 2515TIP3    H1 7551   6.031   3.506   0.219
 2515TIP3    H2 7552   5.988   3.527   0.076
 2516TIP3   OH2 7553   6.222   1.115   0.880
 2516TIP3    H1 7554   6.241   1.048   0.946
 2516TIP3    H2 7555   6.186   1.188   0.929
 2517TIP3   OH2 7556   3.899   3.138   3.369
 2517TIP3    H1 7557   3.870   3.048   3.383
 2517TIP3    H2 7558   3.986   3.142   3.407
 2518TIP3   OH2 7559   4.528   4.160   0.756
 2518TIP3    H1 7560   4.605   4.171   0.811
 2518TIP3    H2 7561   4.464   4.116   0.813
 2519TIP3   OH2 7562   1.439   1.017   3.796
 2519TIP3    H1 7563   1.455   1.075   3.870
 2519TIP3    H2 7564   1.506   0.948   3.805
 2520TIP3   OH2 7565   6.333   5.617   3.713
 2520TIP3    H1 7566   6.337   5.548   3.779
 2520TIP3    H2 7567   6.240   5.630   3.698
 2521TIP3   OH2 7568   3.933   1.662   5.058
 2521TIP3    H1 7569   3.979   1.578   5.062
 2521TIP3    H2 7570   3.891   1.661   4.972
 2522TIP3   OH2 7571   1.525   0.476   1.037
 2522TIP3    H1 7572   1.586   0.417   1.080
 2522TIP3    H2 7573   1.439   0.453   1.072
 2523TIP3   OH2 7574   1.197   0.335   4.899
 2523TIP3    H1 7575   1.274   0.325   4.843
 2523TIP3    H2 7576   1.159   0.420   4.873
 2524TIP3   OH2 7577   2.372   1.521   4.479
 2524TIP3    H1 7578   2.438   1.590   4.472
 2524TIP3    H2 7579   2.328   1.539   4.563
 2525TIP3   OH2 7580   1.351   0.341   1.482
 2525TIP3    H1 7581   1.280   0.277   1.480
 2525TIP3    H2 7582   1.384   0.343   1.392
 2526TIP3   OH2 7583   4.353   5.061   3.329
 2526TIP3    H1 7584   4.340   5.149   3.365
 2526TIP3    H2 7585   4.420   5.022   3.384
 2527TIP3   OH2 7586   5.089   3.928   0.074
 2527TIP3    H1 7587   5.036   3.876   0.134
 2527TIP3    H2 7588   5.150   3.975   0.131
 2528TIP3   OH2 7589   5.723   2.399   4.398
 2528TIP3    H1 7590   5.686   2.326   4.350
 2528TIP3    H2 7591   5.787   2.359   4.457
 2529TIP3   OH2 7592   5.284   1.881   4.340
 2529TIP3    H1 7593   5.220   1.849   4.276
 2529TIP3    H2 7594   5.366   1.885   4.291
 2530TIP3   OH2 7595   5.815   3.635   4.149
 2530TIP3    H1 7596   5.745   3.616   4.087
 2530TIP3    H2 7597   5.788   3.592   4.230
 2531TIP3   OH2 7598   4.695   1.452   3.038
 2531TIP3    H1 7599   4.775   1.443   2.985
 2531TIP3    H2 7600   4.707   1.390   3.109
 2532TIP3   OH2 7601   5.093   0.701   2.718
 2532TIP3    H1 7602   5.126   0.757   2.788
 2532TIP3    H2 7603   5.148   0.622   2.723
 2533TIP3   OH2 7604   4.753   3.991   2.865
 2533TIP3    H1 7605   4.752   3.985   2.770
 2533TIP3    H2 7606   4.712   4.075   2.885
 2534TIP3   OH2 7607   0.564   4.388   4.702
 2534TIP3    H1 7608   0.480   4.411   4.743
 2534TIP3    H2 7609   0.569   4.293   4.710
 2535TIP3   OH2 7610   0.588   2.095   4.368
 2535TIP3    H1 7611   0.646   2.171   4.366
 2535TIP3    H2 7612   0.645   2.022   4.391
 2536TIP3   OH2 7613   5.512   3.390   3.264
 2536TIP3    H1 7614   5.595   3.382   3.311
 2536TIP3    H2 7615   5.532   3.365   3.174
 2537TIP3   OH2 7616   2.597   1.918   4.420
 2537TIP3    H1 7617   2.590   1.911   4.325
 2537TIP3    H2 7618   2.534   1.987   4.444
 2538TIP3   OH2 7619   5.210   4.180   5.106
 2538TIP3    H1 7620   5.251   4.094   5.097
 2538TIP3    H2 7621   5.204   4.194   5.200
 2539TIP3   OH2 7622   5.376   2.411   3.835
 2539TIP3    H1 7623   5.318   2.470   3.883
 2539TIP3    H2 7624   5.327   2.387   3.757
 2540TIP3   OH2 7625   0.751   4.081   2.465
 2540TIP3    H1 7626   0.801   4.001   2.482
 2540TIP3    H2 7627   0.694   4.059   2.391
 2541TIP3   OH2 7628   1.633   1.827   4.621
 2541TIP3    H1 7629   1.596   1.800   4.705
 2541TIP3    H2 7630   1.572   1.892   4.587
 2542TIP3   OH2 7631   0.605   0.218   0.608
 2542TIP3    H1 7632   0.683   0.162   0.609
 2542TIP3    H2 7633   0.535   0.161   0.639
 2543TIP3   OH2 7634   5.861   3.123   1.421
 2543TIP3    H1 7635   5.923   3.057   1.452
 2543TIP3    H2 7636   5.775   3.088   1.445
 2544TIP3   OH2 7637   4.488   0.607   0.422
 2544TIP3    H1 7638   4.482   0.538   0.356
 2544TIP3    H2 7639   4.441   0.681   0.384
 2545TIP3   OH2 7640   4.946   2.826   0.338
 2545TIP3    H1 7641   4.916   2.799   0.251
 2545TIP3    H2 7642   4.873   2.806   0.396
 2546TIP3   OH2 7643   0.740   2.464   1.711
 2546TIP3    H1 7644   0.754   2.377   1.673
 2546TIP3    H2 7645   0.798   2.521   1.661
 2547TIP3   OH2 7646   4.938   5.532   3.454
 2547TIP3    H1 7647   4.879   5.578   3.393
 2547TIP3    H2 7648   4.882   5.507   3.527
 2548TIP3   OH2 7649   3.202   4.132   2.983
 2548TIP3    H1 7650   3.197   4.061   3.047
 2548TIP3    H2 7651   3.291   4.126   2.947
 2549TIP3   OH2 7652   1.880   3.072   3.206
 2549TIP3    H1 7653   1.901   3.092   3.297
 2549TIP3    H2 7654   1.965   3.072   3.162
 2550TIP3   OH2 7655   4.783   3.625   2.574
 2550TIP3    H1 7656   4.864   3.666   2.605
 2550TIP3    H2 7657   4.807   3.581   2.493
 2551TIP3   OH2 7658   6.176   3.946   3.971
 2551TIP3    H1 7659   6.150   3.900   3.891
 2551TIP3    H2 7660   6.269   3.965   3.959
 2552TIP3   OH2 7661   4.010   2.107   3.393
 2552TIP3    H1 7662   3.965   2.034   3.351
 2552TIP3    H2 7663   3.949   2.138   3.459
 2553TIP3   OH2 7664   5.181   1.281   4.015
 2553TIP3    H1 7665   5.255   1.297   3.957
 2553TIP3    H2 7666   5.215   1.302   4.103
 2554TIP3   OH2 7667   0.817   5.960   2.028
 2554TIP3    H1 7668   0.772   5.899   2.087
 2554TIP3    H2 7669   0.910   5.948   2.048
 2555TIP3   OH2 7670   1.201   3.655   0.601
 2555TIP3    H1 7671   1.235   3.580   0.649
 2555TIP3    H2 7672   1.110   3.634   0.585
 2556TIP3   OH2 7673   3.172   3.615   4.862
 2556TIP3    H1 7674   3.257   3.573   4.869
 2556TIP3    H2 7675   3.130   3.573   4.787
 2557TIP3   OH2 7676   2.298   0.591   4.703
 2557TIP3    H1 7677   2.368   0.602   4.639
 2557TIP3    H2 7678   2.238   0.529   4.662
 2558TIP3   OH2 7679   4.723   2.820   1.194
 2558TIP3    H1 7680   4.743   2.900   1.242
 2558TIP3    H2 7681   4.807   2.794   1.155
 2559TIP3   OH2 7682   4.228   5.944   4.710
 2559TIP3    H1 7683   4.242   5.976   4.799
 2559TIP3    H2 7684   4.219   6.022   4.656
 2560TIP3   OH2 7685   2.431   2.946   4.296
 2560TIP3    H1 7686   2.469   2.898   4.222
 2560TIP3    H2 7687   2.346   2.905   4.309
 2561TIP3   OH2 7688   5.772   4.929   1.475
 2561TIP3    H1 7689   5.863   4.937   1.502
 2561TIP3    H2 7690   5.762   4.837   1.451
 2562TIP3   OH2 7691   3.631   3.003   3.539
 2562TIP3    H1 7692   3.616   2.947   3.463
 2562TIP3    H2 7693   3.559   3.066   3.537
 2563TIP3   OH2 7694   4.697   0.675   1.717
 2563TIP3    H1 7695   4.774   0.621   1.737
 2563TIP3    H2 7696   4.725   0.731   1.645
 2564TIP3   OH2 7697   5.577   3.326   2.510
 2564TIP3    H1 7698   5.658   3.289   2.545
 2564TIP3    H2 7699   5.590   3.421   2.515
 2565TIP3   OH2 7700   3.982   0.093   4.810
 2565TIP3    H1 7701   3.902   0.142   4.794
 2565TIP3    H2 7702   3.993   0.040   4.731
 2566TIP3   OH2 7703   0.482   5.084   4.501
 2566TIP3    H1 7704   0.575   5.071   4.517
 2566TIP3    H2 7705   0.471   5.178   4.491
 2567TIP3   OH2 7706   4.799   0.769   3.100
 2567TIP3    H1 7707   4.789   0.678   3.074
 2567TIP3    H2 7708   4.872   0.802   3.048
 2568TIP3   OH2 7709   6.073   0.942   2.624
 2568TIP3    H1 7710   6.025   0.943   2.706
 2568TIP3    H2 7711   6.165   0.945   2.649
 2569TIP3   OH2 7712   5.895   4.349   2.691
 2569TIP3    H1 7713   5.908   4.312   2.603
 2569TIP3    H2 7714   5.957   4.302   2.746
 2570TIP3   OH2 7715   0.933   3.569   1.166
 2570TIP3    H1 7716   0.861   3.567   1.103
 2570TIP3    H2 7717   1.006   3.527   1.120
 2571TIP3   OH2 7718   4.875   3.476   2.354
 2571TIP3    H1 7719   4.908   3.500   2.267
 2571TIP3    H2 7720   4.940   3.414   2.388
 2572TIP3   OH2 7721   4.384   4.992   0.866
 2572TIP3    H1 7722   4.352   5.081   0.853
 2572TIP3    H2 7723   4.429   4.970   0.784
 2573TIP3   OH2 7724   5.159   2.964   3.176
 2573TIP3    H1 7725   5.083   2.964   3.235
 2573TIP3    H2 7726   5.228   2.921   3.226
 2574TIP3   OH2 7727   5.517   2.542   3.014
 2574TIP3    H1 7728   5.474   2.462   3.044
 2574TIP3    H2 7729   5.596   2.549   3.068
 2575TIP3   OH2 7730   0.958   0.610   5.100
 2575TIP3    H1 7731   0.991   0.620   5.189
 2575TIP3    H2 7732   0.914   0.693   5.080
 2576TIP3   OH2 7733   0.080   4.598   4.113
 2576TIP3    H1 7734   0.019   4.660   4.073
 2576TIP3    H2 7735   0.110   4.642   4.193
 2577TIP3   OH2 7736   3.086   3.649   2.446
 2577TIP3    H1 7737   3.053   3.716   2.506
 2577TIP3    H2 7738   3.021   3.579   2.449
 2578TIP3   OH2 7739   1.265   0.408   0.440
 2578TIP3    H1 7740   1.352   0.377   0.465
 2578TIP3    H2 7741   1.282   0.483   0.382
 2579TIP3   OH2 7742   3.600   1.203   1.521
 2579TIP3    H1 7743   3.571   1.279   1.572
 2579TIP3    H2 7744   3.687   1.226   1.490
 2580TIP3   OH2 7745   0.897   3.248   4.857
 2580TIP3    H1 7746   0.973   3.287   4.814
 2580TIP3    H2 7747   0.922   3.157   4.872
 2581TIP3   OH2 7748   3.553   0.127   2.425
 2581TIP3    H1 7749   3.489   0.156   2.491
 2581TIP3    H2 7750   3.590   0.047   2.462
 2582TIP3   OH2 7751   2.281   4.111   4.311
 2582TIP3    H1 7752   2.195   4.096   4.349
 2582TIP3    H2 7753   2.281   4.204   4.288
 2583TIP3   OH2 7754   1.696   5.628   4.440
 2583TIP3    H1 7755   1.724   5.557   4.498
 2583TIP3    H2 7756   1.601   5.635   4.454
 2584TIP3   OH2 7757   4.518   0.865   2.086
 2584TIP3    H1 7758   4.486   0.776   2.099
 2584TIP3    H2 7759   4.536   0.871   1.992
 2585TIP3   OH2 7760   3.273   2.117   2.502
 2585TIP3    H1 7761   3.209   2.108   2.432
 2585TIP3    H2 7762   3.310   2.029   2.512
 2586TIP3   OH2 7763   5.820   3.333   2.122
 2586TIP3    H1 7764   5.775   3.417   2.113
 2586TIP3    H2 7765   5.752   3.273   2.155
 2587TIP3   OH2 7766   5.988   0.032   2.471
 2587TIP3    H1 7767   5.983   0.099   2.402
 2587TIP3    H2 7768   5.982  -0.051   2.424
 2588TIP3   OH2 7769   0.787   5.815   5.019
 2588TIP3    H1 7770   0.854   5.855   5.073
 2588TIP3    H2 7771   0.819   5.725   5.005
 2589TIP3   OH2 7772   5.634   2.902   4.158
 2589TIP3    H1 7773   5.682   2.862   4.230
 2589TIP3    H2 7774   5.701   2.919   4.091
 2590TIP3   OH2 7775   0.350   0.255   2.449
 2590TIP3    H1 7776   0.311   0.168   2.438
 2590TIP3    H2 7777   0.276   0.311   2.472
 2591TIP3   OH2 7778   2.510   0.123   1.987
 2591TIP3    H1 7779   2.565   0.131   2.065
 2591TIP3    H2 7780   2.422   0.146   2.016
 2592TIP3   OH2 7781   5.927   4.477   3.379
 2592TIP3    H1 7782   5.966   4.562   3.397
 2592TIP3    H2 7783   5.859   4.495   3.314
 2593TIP3   OH2 7784   0.315   5.359   0.305
 2593TIP3    H1 7785   0.319   5.420   0.379
 2593TIP3    H2 7786   0.240   5.303   0.324
 2594TIP3   OH2 7787   2.019   4.122   4.453
 2594TIP3    H1 7788   2.074   4.184   4.502
 2594TIP3    H2 7789   1.961   4.084   4.519
 2595TIP3   OH2 7790   1.840   3.789   4.202
 2595TIP3    H1 7791   1.926   3.756   4.174
 2595TIP3    H2 7792   1.787   3.711   4.215
 2596TIP3   OH2 7793   6.104   3.178   4.161
 2596TIP3    H1 7794   6.117   3.197   4.254
 2596TIP3    H2 7795   6.192   3.162   4.128
 2597TIP3   OH2 7796   4.007   1.142   4.167
 2597TIP3    H1 7797   3.925   1.103   4.198
 2597TIP3    H2 7798   4.013   1.115   4.076
 2598TIP3   OH2 7799   0.400   0.816   1.402
 2598TIP3    H1 7800   0.415   0.722   1.389
 2598TIP3    H2 7801   0.397   0.827   1.497
 2599TIP3   OH2 7802   2.510   3.653   0.464
 2599TIP3    H1 7803   2.596   3.611   0.469
 2599TIP3    H2 7804   2.528   3.745   0.481
 2600TIP3   OH2 7805   2.257   1.713   3.335
 2600TIP3    H1 7806   2.199   1.652   3.379
 2600TIP3    H2 7807   2.209   1.740   3.257
 2601TIP3   OH2 7808   5.627   5.823   1.785
 2601TIP3    H1 7809   5.575   5.806   1.707
 2601TIP3    H2 7810   5.624   5.741   1.834
 2602TIP3   OH2 7811   1.251   4.001   2.941
 2602TIP3    H1 7812   1.286   3.992   2.852
 2602TIP3    H2 7813   1.324   4.035   2.992
 2603TIP3   OH2 7814   0.068   1.862   1.793
 2603TIP3    H1 7815   0.148   1.871   1.846
 2603TIP3    H2 7816   0.014   1.800   1.841
 2604TIP3   OH2 7817   2.031   3.330   4.902
 2604TIP3    H1 7818   2.056   3.330   4.810
 2604TIP3    H2 7819   1.945   3.288   4.903
 2605TIP3   OH2 7820   0.747   4.699   3.440
 2605TIP3    H1 7821   0.720   4.608   3.453
 2605TIP3    H2 7822   0.739   4.713   3.346
 2606TIP3   OH2 7823   1.704   3.987   4.095
 2606TIP3    H1 7824   1.752   4.016   4.018
 2606TIP3    H2 7825   1.752   3.910   4.127
 2607TIP3   OH2 7826   2.684   0.616   1.684
 2607TIP3    H1 7827   2.617   0.680   1.708
 2607TIP3    H2 7828   2.739   0.609   1.762
 2608TIP3   OH2 7829   4.557   5.328   5.189
 2608TIP3    H1 7830   4.537   5.315   5.096
 2608TIP3    H2 7831   4.473   5.351   5.229
 2609TIP3   OH2 7832   5.273   3.404   1.614
 2609TIP3    H1 7833   5.312   3.461   1.680
 2609TIP3    H2 7834   5.345   3.347   1.586
 2610TIP3   OH2 7835   2.592   0.784   2.051
 2610TIP3    H1 7836   2.553   0.700   2.075
 2610TIP3    H2 7837   2.667   0.793   2.111
 2611TIP3   OH2 7838   0.444   2.350   3.007
 2611TIP3    H1 7839   0.453   2.436   3.047
 2611TIP3    H2 7840   0.350   2.343   2.986
 2612TIP3   OH2 7841   2.831   0.710   2.986
 2612TIP3    H1 7842   2.904   0.649   2.972
 2612TIP3    H2 7843   2.789   0.678   3.066
 2613TIP3   OH2 7844   2.091   2.816   4.092
 2613TIP3    H1 7845   2.107   2.764   4.171
 2613TIP3    H2 7846   2.098   2.754   4.020
 2614TIP3   OH2 7847   5.294   1.277   2.169
 2614TIP3    H1 7848   5.281   1.257   2.262
 2614TIP3    H2 7849   5.330   1.197   2.132
 2615TIP3   OH2 7850   2.791   1.400   2.811
 2615TIP3    H1 7851   2.879   1.379   2.842
 2615TIP3    H2 7852   2.743   1.428   2.889
 2616TIP3   OH2 7853   1.347   1.916   1.355
 2616TIP3    H1 7854   1.381   1.892   1.268
 2616TIP3    H2 7855   1.379   2.005   1.369
 2617TIP3   OH2 7856   0.018   0.203   1.158
 2617TIP3    H1 7857  -0.031   0.167   1.232
 2617TIP3    H2 7858  -0.045   0.255   1.109
 2618TIP3   OH2 7859   4.149   4.374   2.769
 2618TIP3    H1 7860   4.080   4.332   2.820
 2618TIP3    H2 7861   4.105   4.443   2.720
 2619TIP3   OH2 7862   1.944   5.814   1.896
 2619TIP3    H1 7863   1.896   5.834   1.976
 2619TIP3    H2 7864   2.012   5.753   1.923
 2620TIP3   OH2 7865   1.972   3.047   1.513
 2620TIP3    H1 7866   1.882   3.047   1.481
 2620TIP3    H2 7867   1.980   3.128   1.563
 2621TIP3   OH2 7868   2.428   0.979   4.296
 2621TIP3    H1 7869   2.392   1.053   4.346
 2621TIP3    H2 7870   2.522   0.994   4.296
 2622TIP3   OH2 7871   5.727   2.421   2.633
 2622TIP3    H1 7872   5.649   2.382   2.671
 2622TIP3    H2 7873   5.772   2.462   2.707
 2623TIP3   OH2 7874   1.488   5.861   2.520
 2623TIP3    H1 7875   1.536   5.837   2.599
 2623TIP3    H2 7876   1.404   5.816   2.529
 2624TIP3   OH2 7877   1.320   5.093   4.573
 2624TIP3    H1 7878   1.260   5.070   4.645
 2624TIP3    H2 7879   1.312   5.020   4.511
 2625TIP3   OH2 7880   0.853   3.970   4.445
 2625TIP3    H1 7881   0.822   4.042   4.500
 2625TIP3    H2 7882   0.888   4.014   4.367
 2626TIP3   OH2 7883   6.264   4.645   1.102
 2626TIP3    H1 7884   6.291   4.554   1.108
 2626TIP3    H2 7885   6.184   4.650   1.156
 2627TIP3   OH2 7886   4.863   5.360   1.072
 2627TIP3    H1 7887   4.891   5.446   1.102
 2627TIP3    H2 7888   4.847   5.371   0.978
 2628TIP3   OH2 7889   3.088   1.388   2.831
 2628TIP3    H1 7890   3.090   1.475   2.870
 2628TIP3    H2 7891   3.145   1.394   2.755
 2629TIP3   OH2 7892   2.494   2.359   0.459
 2629TIP3    H1 7893   2.470   2.437   0.410
 2629TIP3    H2 7894   2.563   2.389   0.519
 2630TIP3   OH2 7895   0.631   1.197   1.191
 2630TIP3    H1 7896   0.609   1.280   1.148
 2630TIP3    H2 7897   0.715   1.173   1.153
 2631TIP3   OH2 7898   2.908   0.650   0.034
 2631TIP3    H1 7899   3.000   0.634   0.052
 2631TIP3    H2 7900   2.868   0.563   0.031
 2632TIP3   OH2 7901   1.992   0.479   4.740
 2632TIP3    H1 7902   1.949   0.490   4.656
 2632TIP3    H2 7903   1.935   0.419   4.789
 2633TIP3   OH2 7904   1.548   5.926   0.544
 2633TIP3    H1 7905   1.468   5.964   0.582
 2633TIP3    H2 7906   1.601   5.901   0.619
 2634TIP3   OH2 7907   6.126   0.961   1.535
 2634TIP3    H1 7908   6.040   0.989   1.564
 2634TIP3    H2 7909   6.145   1.017   1.459
 2635TIP3   OH2 7910   6.050   5.817   2.820
 2635TIP3    H1 7911   6.120   5.876   2.792
 2635TIP3    H2 7912   6.000   5.868   2.883
 2636TIP3   OH2 7913   5.122   4.007   0.515
 2636TIP3    H1 7914   5.100   4.062   0.590
 2636TIP3    H2 7915   5.037   3.975   0.484
 2637TIP3   OH2 7916   5.259   3.411   3.311
 2637TIP3    H1 7917   5.231   3.355   3.239
 2637TIP3    H2 7918   5.354   3.412   3.307
 2638TIP3   OH2 7919   0.034   1.423   0.814
 2638TIP3    H1 7920   0.093   1.423   0.889
 2638TIP3    H2 7921  -0.054   1.420   0.853
 2639TIP3   OH2 7922   5.440   5.388   3.050
 2639TIP3    H1 7923   5.519   5.432   3.081
 2639TIP3    H2 7924   5.472   5.308   3.008
 2640TIP3   OH2 7925   1.221   1.332   0.684
 2640TIP3    H1 7926   1.208   1.279   0.762
 2640TIP3    H2 7927   1.185   1.418   0.706
 2641TIP3   OH2 7928   1.804   2.664   3.154
 2641TIP3    H1 7929   1.771   2.637   3.240
 2641TIP3    H2 7930   1.886   2.710   3.174
 2642TIP3   OH2 7931   4.624   5.832   0.409
 2642TIP3    H1 7932   4.689   5.766   0.385
 2642TIP3    H2 7933   4.566   5.788   0.471
 2643TIP3   OH2 7934   5.755   0.294   3.222
 2643TIP3    H1 7935   5.744   0.359   3.292
 2643TIP3    H2 7936   5.834   0.320   3.176
 2644TIP3   OH2 7937   1.021   4.386   3.200
 2644TIP3    H1 7938   1.046   4.317   3.139
 2644TIP3    H2 7939   1.103   4.411   3.243
 2645TIP3   OH2 7940   6.221   1.622   2.388
 2645TIP3    H1 7941   6.259   1.538   2.414
 2645TIP3    H2 7942   6.211   1.670   2.470
 2646TIP3   OH2 7943   2.700   3.627   3.020
 2646TIP3    H1 7944   2.793   3.611   3.005
 2646TIP3    H2 7945   2.690   3.624   3.115
 2647TIP3   OH2 7946   1.654   2.296   4.623
 2647TIP3    H1 7947   1.597   2.239   4.572
 2647TIP3    H2 7948   1.633   2.276   4.715
 2648TIP3   OH2 7949   6.206   2.777   2.986
 2648TIP3    H1 7950   6.137   2.818   2.934
 2648TIP3    H2 7951   6.168   2.766   3.073
 2649TIP3   OH2 7952   2.561   2.207   1.125
 2649TIP3    H1 7953   2.473   2.245   1.129
 2649TIP3    H2 7954   2.588   2.218   1.034
 2650TIP3   OH2 7955   3.797   0.245   0.970
 2650TIP3    H1 7956   3.823   0.236   0.878
 2650TIP3    H2 7957   3.842   0.173   1.015
 2651TIP3   OH2 7958   6.177   0.084   3.483
 2651TIP3    H1 7959   6.096   0.132   3.497
 2651TIP3    H2 7960   6.244   0.135   3.530
 2652TIP3   OH2 7961   5.294   4.297   4.504
 2652TIP3    H1 7962   5.319   4.204   4.499
 2652TIP3    H2 7963   5.377   4.344   4.514
 2653TIP3   OH2 7964   0.250   1.069   2.120
 2653TIP3    H1 7965   0.203   1.063   2.203
 2653TIP3    H2 7966   0.339   1.094   2.144
 2654TIP3   OH2 7967   4.777   5.047   4.418
 2654TIP3    H1 7968   4.700   4.992   4.403
 2654TIP3    H2 7969   4.782   5.056   4.513
 2655TIP3   OH2 7970   5.148   3.619   1.940
 2655TIP3    H1 7971   5.223   3.610   1.881
 2655TIP3    H2 7972   5.179   3.680   2.008
 2656TIP3   OH2 7973   4.637   5.766   3.531
 2656TIP3    H1 7974   4.622   5.673   3.511
 2656TIP3    H2 7975   4.566   5.789   3.590
 2657TIP3   OH2 7976   1.439   3.667   0.044
 2657TIP3    H1 7977   1.425   3.746  -0.008
 2657TIP3    H2 7978   1.357   3.654   0.092
 2658TIP3   OH2 7979   4.392   4.012   3.658
 2658TIP3    H1 7980   4.366   3.920   3.665
 2658TIP3    H2 7981   4.439   4.018   3.576
 2659TIP3   OH2 7982   0.771   0.140   4.585
 2659TIP3    H1 7983   0.797   0.081   4.656
 2659TIP3    H2 7984   0.833   0.124   4.515
 2660TIP3   OH2 7985   2.954   4.821   3.714
 2660TIP3    H1 7986   2.998   4.884   3.771
 2660TIP3    H2 7987   2.861   4.845   3.718
 2661TIP3   OH2 7988   1.064   4.977   2.650
 2661TIP3    H1 7989   0.989   4.919   2.662
 2661TIP3    H2 7990   1.107   4.943   2.571
 2662TIP3   OH2 7991   1.333   0.110   0.710
 2662TIP3    H1 7992   1.295   0.198   0.720
 2662TIP3    H2 7993   1.322   0.070   0.797
 2663TIP3   OH2 7994   0.559   4.414   5.098
 2663TIP3    H1 7995   0.508   4.360   5.037
 2663TIP3    H2 7996   0.525   4.391   5.184
 2664TIP3   OH2 7997   2.839   3.174   4.354
 2664TIP3    H1 7998   2.860   3.214   4.270
 2664TIP3    H2 7999   2.898   3.218   4.416
 2665TIP3   OH2 8000   2.980   1.845   0.934
 2665TIP3    H1 8001   2.985   1.868   1.027
 2665TIP3    H2 8002   3.058   1.886   0.896
 2666TIP3   OH2 8003   1.272   0.955   0.525
 2666TIP3    H1 8004   1.320   0.903   0.460
 2666TIP3    H2 8005   1.268   0.899   0.602
 2667TIP3   OH2 8006   5.014   5.590   1.137
 2667TIP3    H1 8007   4.944   5.644   1.100
 2667TIP3    H2 8008   5.069   5.651   1.185
 2668TIP3   OH2 8009   1.846   2.723   0.738
 2668TIP3    H1 8010   1.815   2.803   0.780
 2668TIP3    H2 8011   1.942   2.729   0.743
 2669TIP3   OH2 8012   5.124   3.174   0.706
 2669TIP3    H1 8013   5.078   3.161   0.624
 2669TIP3    H2 8014   5.055   3.183   0.772
 2670TIP3   OH2 8015   2.436   5.443   3.632
 2670TIP3    H1 8016   2.358   5.416   3.584
 2670TIP3    H2 8017   2.414   5.528   3.669
 2671TIP3   OH2 8018   1.474   1.261   1.038
 2671TIP3    H1 8019   1.419   1.202   0.988
 2671TIP3    H2 8020   1.457   1.238   1.129
 2672TIP3   OH2 8021   0.734   1.723   3.654
 2672TIP3    H1 8022   0.801   1.766   3.601
 2672TIP3    H2 8023   0.777   1.707   3.738
 2673TIP3   OH2 8024   4.980   4.608   0.527
 2673TIP3    H1 8025   5.027   4.633   0.447
 2673TIP3    H2 8026   5.010   4.669   0.593
 2674TIP3   OH2 8027   1.891   2.836   4.844
 2674TIP3    H1 8028   1.938   2.919   4.859
 2674TIP3    H2 8029   1.877   2.800   4.931
 2675TIP3   OH2 8030   5.056   1.342   0.261
 2675TIP3    H1 8031   5.082   1.433   0.276
 2675TIP3    H2 8032   5.007   1.319   0.340
 2676TIP3   OH2 8033   3.579   2.634   3.240
 2676TIP3    H1 8034   3.604   2.672   3.156
 2676TIP3    H2 8035   3.490   2.602   3.227
 2677TIP3   OH2 8036   1.978   3.243   2.465
 2677TIP3    H1 8037   2.062   3.255   2.421
 2677TIP3    H2 8038   1.957   3.329   2.501
 2678TIP3   OH2 8039   3.561   5.745   2.721
 2678TIP3    H1 8040   3.495   5.713   2.660
 2678TIP3    H2 8041   3.513   5.761   2.802
 2679TIP3   OH2 8042   3.950   5.958   0.526
 2679TIP3    H1 8043   3.883   5.993   0.468
 2679TIP3    H2 8044   3.973   6.031   0.584
 2680TIP3   OH2 8045  -0.009   2.853   1.331
 2680TIP3    H1 8046   0.028   2.883   1.248
 2680TIP3    H2 8047  -0.095   2.894   1.336
 2681TIP3   OH2 8048   1.041   2.249   0.785
 2681TIP3    H1 8049   0.956   2.255   0.830
 2681TIP3    H2 8050   1.030   2.301   0.706
 2682TIP3   OH2 8051   2.461   5.717   5.175
 2682TIP3    H1 8052   2.477   5.784   5.107
 2682TIP3    H2 8053   2.406   5.652   5.131
 2683TIP3   OH2 8054   4.682   3.750   4.251
 2683TIP3    H1 8055   4.682   3.844   4.271
 2683TIP3    H2 8056   4.723   3.744   4.165
 2684TIP3   OH2 8057   3.769   1.218   2.782
 2684TIP3    H1 8058   3.818   1.262   2.850
 2684TIP3    H2 8059   3.689   1.188   2.825
 2685TIP3   OH2 8060   6.328   1.964   4.818
 2685TIP3    H1 8061   6.363   1.964   4.729
 2685TIP3    H2 8062   6.307   2.055   4.837
 2686TIP3   OH2 8063   3.040   3.198   0.139
 2686TIP3    H1 8064   3.113   3.149   0.100
 2686TIP3    H2 8065   2.998   3.241   0.065
 2687TIP3   OH2 8066   5.194   2.076   3.752
 2687TIP3    H1 8067   5.131   2.145   3.771
 2687TIP3    H2 8068   5.159   1.999   3.795
 2688TIP3   OH2 8069   4.561   1.637   4.064
 2688TIP3    H1 8070   4.600   1.689   3.994
 2688TIP3    H2 8071   4.633   1.582   4.096
 2689TIP3   OH2 8072   1.251   5.865   4.403
 2689TIP3    H1 8073   1.156   5.871   4.411
 2689TIP3    H2 8074   1.285   5.904   4.484
 2690TIP3   OH2 8075   4.796   5.073   1.076
 2690TIP3    H1 8076   4.820   5.028   1.157
 2690TIP3    H2 8077   4.853   5.149   1.073
 2691TIP3   OH2 8078   2.457   3.759   4.278
 2691TIP3    H1 8079   2.425   3.699   4.345
 2691TIP3    H2 8080   2.466   3.705   4.199
 2692TIP3   OH2 8081   2.748   1.715   3.585
 2692TIP3    H1 8082   2.788   1.687   3.502
 2692TIP3    H2 8083   2.668   1.761   3.559
 2693TIP3   OH2 8084   1.060   1.552   0.788
 2693TIP3    H1 8085   1.111   1.565   0.869
 2693TIP3    H2 8086   0.969   1.563   0.816
 2694TIP3   OH2 8087   4.568   2.435   0.138
 2694TIP3    H1 8088   4.560   2.373   0.066
 2694TIP3    H2 8089   4.479   2.466   0.153
 2695TIP3   OH2 8090   4.710   2.208   4.814
 2695TIP3    H1 8091   4.719   2.225   4.720
 2695TIP3    H2 8092   4.640   2.143   4.819
 2696TIP3   OH2 8093   2.276   5.343   1.948
 2696TIP3    H1 8094   2.284   5.357   2.042
 2696TIP3    H2 8095   2.201   5.285   1.938
 2697TIP3   OH2 8096   0.206   4.716   1.944
 2697TIP3    H1 8097   0.280   4.765   1.908
 2697TIP3    H2 8098   0.140   4.783   1.963
 2698TIP3   OH2 8099   1.825   4.658   2.231
 2698TIP3    H1 8100   1.858   4.687   2.146
 2698TIP3    H2 8101   1.828   4.737   2.285
 2699TIP3   OH2 8102   0.166   1.117   0.771
 2699TIP3    H1 8103   0.078   1.155   0.774
 2699TIP3    H2 8104   0.216   1.167   0.836
 2700TIP3   OH2 8105   5.160   3.420   3.018
 2700TIP3    H1 8106   5.186   3.329   3.031
 2700TIP3    H2 8107   5.241   3.470   3.030
 2701TIP3   OH2 8108   6.054   1.858   4.562
 2701TIP3    H1 8109   6.034   1.799   4.489
 2701TIP3    H2 8110   5.981   1.847   4.623
 2702TIP3   OH2 8111   3.526   5.229   2.476
 2702TIP3    H1 8112   3.498   5.242   2.567
 2702TIP3    H2 8113   3.554   5.316   2.448
 2703TIP3   OH2 8114   0.981   0.612   3.455
 2703TIP3    H1 8115   0.975   0.567   3.371
 2703TIP3    H2 8116   1.024   0.549   3.513
 2704TIP3   OH2 8117   3.507   1.885   4.035
 2704TIP3    H1 8118   3.545   1.946   4.099
 2704TIP3    H2 8119   3.511   1.931   3.952
 2705TIP3   OH2 8120   1.899   2.707   2.468
 2705TIP3    H1 8121   1.823   2.650   2.452
 2705TIP3    H2 8122   1.888   2.778   2.405
 2706TIP3   OH2 8123   0.019   3.483   4.860
 2706TIP3    H1 8124   0.070   3.410   4.894
 2706TIP3    H2 8125   0.080   3.529   4.801
 2707TIP3   OH2 8126   4.700   0.322   4.800
 2707TIP3    H1 8127   4.794   0.312   4.781
 2707TIP3    H2 8128   4.657   0.286   4.723
 2708TIP3   OH2 8129   5.107   1.966   4.643
 2708TIP3    H1 8130   5.199   1.982   4.621
 2708TIP3    H2 8131   5.066   2.052   4.638
 2709TIP3   OH2 8132   0.486   2.991   4.194
 2709TIP3    H1 8133   0.549   3.062   4.209
 2709TIP3    H2 8134   0.407   3.020   4.239
 2710TIP3   OH2 8135   6.083   4.250   3.681
 2710TIP3    H1 8136   5.992   4.274   3.661
 2710TIP3    H2 8137   6.102   4.297   3.762
 2711TIP3   OH2 8138   3.325   5.418   2.236
 2711TIP3    H1 8139   3.388   5.366   2.186
 2711TIP3    H2 8140   3.377   5.488   2.275
 2712TIP3   OH2 8141   1.330   0.978   2.907
 2712TIP3    H1 8142   1.352   0.908   2.846
 2712TIP3    H2 8143   1.408   1.034   2.909
 2713TIP3   OH2 8144   3.775   1.214   0.662
 2713TIP3    H1 8145   3.681   1.234   0.655
 2713TIP3    H2 8146   3.819   1.296   0.639
 2714TIP3   OH2 8147   3.160   4.517   4.397
 2714TIP3    H1 8148   3.100   4.448   4.426
 2714TIP3    H2 8149   3.231   4.516   4.462
 2715TIP3   OH2 8150   5.709   4.685   2.926
 2715TIP3    H1 8151   5.628   4.737   2.924
 2715TIP3    H2 8152   5.762   4.723   2.856
 2716TIP3   OH2 8153   2.288   5.765   3.894
 2716TIP3    H1 8154   2.218   5.799   3.838
 2716TIP3    H2 8155   2.286   5.821   3.972
 2717TIP3   OH2 8156   5.908   0.217   0.498
 2717TIP3    H1 8157   5.962   0.273   0.554
 2717TIP3    H2 8158   5.913   0.259   0.412
 2718TIP3   OH2 8159   1.708   1.203   2.198
 2718TIP3    H1 8160   1.648   1.143   2.154
 2718TIP3    H2 8161   1.724   1.163   2.284
 2719TIP3   OH2 8162   1.535   4.854   2.182
 2719TIP3    H1 8163   1.483   4.913   2.127
 2719TIP3    H2 8164   1.626   4.874   2.160
 2720TIP3   OH2 8165   4.416   5.288   1.453
 2720TIP3    H1 8166   4.407   5.230   1.377
 2720TIP3    H2 8167   4.494   5.340   1.433
 2721TIP3   OH2 8168   4.270   4.245   4.043
 2721TIP3    H1 8169   4.314   4.161   4.041
 2721TIP3    H2 8170   4.244   4.261   3.952
 2722TIP3   OH2 8171   3.934   0.685   3.803
 2722TIP3    H1 8172   3.862   0.622   3.796
 2722TIP3    H2 8173   3.908   0.745   3.872
 2723TIP3   OH2 8174   3.621   2.353   0.954
 2723TIP3    H1 8175   3.551   2.393   0.902
 2723TIP3    H2 8176   3.653   2.424   1.009
 2724TIP3   OH2 8177   2.935   2.544   2.778
 2724TIP3    H1 8178   2.892   2.542   2.692
 2724TIP3    H2 8179   2.974   2.631   2.783
 2725TIP3   OH2 8180   0.140   4.572   5.138
 2725TIP3    H1 8181   0.059   4.540   5.178
 2725TIP3    H2 8182   0.147   4.663   5.165
 2726TIP3   OH2 8183   3.467   3.622   4.992
 2726TIP3    H1 8184   3.538   3.685   5.007
 2726TIP3    H2 8185   3.403   3.643   5.060
 2727TIP3   OH2 8186   1.234   2.792   3.995
 2727TIP3    H1 8187   1.244   2.708   3.950
 2727TIP3    H2 8188   1.249   2.772   4.087
 2728TIP3   OH2 8189   0.421   3.556   0.191
 2728TIP3    H1 8190   0.389   3.646   0.195
 2728TIP3    H2 8191   0.346   3.503   0.215
 2729TIP3   OH2 8192   6.242   3.731   0.079
 2729TIP3    H1 8193   6.283   3.650   0.050
 2729TIP3    H2 8194   6.290   3.756   0.158
 2730TIP3   OH2 8195   4.174   2.272   1.021
 2730TIP3    H1 8196   4.209   2.197   1.070
 2730TIP3    H2 8197   4.202   2.348   1.072
 2731TIP3   OH2 8198   2.574   3.185   4.361
 2731TIP3    H1 8199   2.665   3.194   4.333
 2731TIP3    H2 8200   2.541   3.110   4.313
 2732TIP3   OH2 8201   4.216   0.261   2.429
 2732TIP3    H1 8202   4.222   0.323   2.502
 2732TIP3    H2 8203   4.307   0.235   2.414
 2733TIP3   OH2 8204   1.630   4.949   1.064
 2733TIP3    H1 8205   1.610   4.858   1.043
 2733TIP3    H2 8206   1.632   4.993   0.979
 2734TIP3   OH2 8207   2.209   4.161   2.498
 2734TIP3    H1 8208   2.125   4.168   2.543
 2734TIP3    H2 8209   2.218   4.244   2.452
 2735TIP3   OH2 8210   3.083   4.668   0.252
 2735TIP3    H1 8211   3.038   4.700   0.330
 2735TIP3    H2 8212   3.018   4.677   0.182
 2736TIP3   OH2 8213   4.268   2.118   0.558
 2736TIP3    H1 8214   4.205   2.089   0.624
 2736TIP3    H2 8215   4.353   2.111   0.601
 2737TIP3   OH2 8216   1.493   3.296   4.434
 2737TIP3    H1 8217   1.411   3.263   4.471
 2737TIP3    H2 8218   1.493   3.263   4.344
 2738TIP3   OH2 8219   5.061   2.442   0.433
 2738TIP3    H1 8220   5.030   2.373   0.491
 2738TIP3    H2 8221   5.066   2.520   0.488
 2739TIP3   OH2 8222   4.674   4.234   2.953
 2739TIP3    H1 8223   4.634   4.317   2.979
 2739TIP3    H2 8224   4.728   4.208   3.027
 2740TIP3   OH2 8225   4.560   1.994   4.506
 2740TIP3    H1 8226   4.524   1.957   4.425
 2740TIP3    H2 8227   4.614   1.923   4.542
 2741TIP3   OH2 8228   4.403   3.991   4.011
 2741TIP3    H1 8229   4.484   3.966   3.967
 2741TIP3    H2 8230   4.419   3.971   4.104
 2742TIP3   OH2 8231   3.721   4.426   4.106
 2742TIP3    H1 8232   3.713   4.372   4.028
 2742TIP3    H2 8233   3.807   4.467   4.099
 2743TIP3   OH2 8234   2.967   0.671   0.748
 2743TIP3    H1 8235   2.965   0.576   0.743
 2743TIP3    H2 8236   2.958   0.691   0.841
 2744TIP3   OH2 8237   1.829   4.506   0.285
 2744TIP3    H1 8238   1.871   4.482   0.202
 2744TIP3    H2 8239   1.793   4.593   0.269
 2745TIP3   OH2 8240   2.116   0.977   1.052
 2745TIP3    H1 8241   2.096   1.055   1.103
 2745TIP3    H2 8242   2.100   0.904   1.113
 2746TIP3   OH2 8243   2.717   2.250   0.846
 2746TIP3    H1 8244   2.650   2.187   0.819
 2746TIP3    H2 8245   2.800   2.210   0.818
 2747TIP3   OH2 8246   1.510   0.552   3.921
 2747TIP3    H1 8247   1.557   0.632   3.946
 2747TIP3    H2 8248   1.423   0.582   3.896
 2748TIP3   OH2 8249   5.788   0.951   3.865
 2748TIP3    H1 8250   5.780   1.044   3.842
 2748TIP3    H2 8251   5.881   0.940   3.886
 2749TIP3   OH2 8252   2.898   0.860   4.131
 2749TIP3    H1 8253   2.955   0.877   4.205
 2749TIP3    H2 8254   2.811   0.886   4.160
 2750TIP3   OH2 8255   5.322   2.497   2.203
 2750TIP3    H1 8256   5.323   2.544   2.120
 2750TIP3    H2 8257   5.408   2.455   2.209
 2751TIP3   OH2 8258   3.040   4.438   2.329
 2751TIP3    H1 8259   3.121   4.415   2.374
 2751TIP3    H2 8260   3.004   4.355   2.298
 2752TIP3   OH2 8261   6.006   4.652   2.153
 2752TIP3    H1 8262   5.969   4.564   2.149
 2752TIP3    H2 8263   5.950   4.705   2.096
 2753TIP3   OH2 8264  -0.023   0.375   2.233
 2753TIP3    H1 8265   0.044   0.327   2.183
 2753TIP3    H2 8266   0.013   0.379   2.322
 2754TIP3   OH2 8267   6.083   2.219   3.914
 2754TIP3    H1 8268   6.101   2.313   3.916
 2754TIP3    H2 8269   6.091   2.191   4.006
 2755TIP3   OH2 8270   0.974   1.351   1.341
 2755TIP3    H1 8271   1.040   1.396   1.395
 2755TIP3    H2 8272   0.917   1.421   1.310
 2756TIP3   OH2 8273   5.717   5.413   4.161
 2756TIP3    H1 8274   5.721   5.465   4.080
 2756TIP3    H2 8275   5.800   5.432   4.205
 2757TIP3   OH2 8276   6.159   4.991   1.310
 2757TIP3    H1 8277   6.121   4.990   1.398
 2757TIP3    H2 8278   6.193   4.902   1.299
 2758TIP3   OH2 8279   3.045   2.997   1.072
 2758TIP3    H1 8280   3.127   3.027   1.110
 2758TIP3    H2 8281   2.978   3.050   1.115
 2759TIP3   OH2 8282   1.143   4.052   3.741
 2759TIP3    H1 8283   1.177   4.136   3.771
 2759TIP3    H2 8284   1.119   4.067   3.650
 2760TIP3   OH2 8285   4.884   1.457   2.168
 2760TIP3    H1 8286   4.870   1.470   2.262
 2760TIP3    H2 8287   4.796   1.456   2.130
 2761TIP3   OH2 8288   3.020   3.306   4.166
 2761TIP3    H1 8289   3.051   3.338   4.250
 2761TIP3    H2 8290   3.090   3.249   4.134
 2762TIP3   OH2 8291   0.301   4.323   1.379
 2762TIP3    H1 8292   0.314   4.307   1.472
 2762TIP3    H2 8293   0.357   4.258   1.335
 2763TIP3   OH2 8294   3.105   1.486   1.203
 2763TIP3    H1 8295   3.086   1.549   1.273
 2763TIP3    H2 8296   3.156   1.536   1.139
 2764TIP3   OH2 8297   6.246   4.283   4.521
 2764TIP3    H1 8298   6.239   4.303   4.615
 2764TIP3    H2 8299   6.337   4.254   4.510
 2765TIP3   OH2 8300   2.387   3.024   2.158
 2765TIP3    H1 8301   2.469   3.071   2.176
 2765TIP3    H2 8302   2.406   2.972   2.079
 2766TIP3   OH2 8303   5.510   5.333   1.400
 2766TIP3    H1 8304   5.415   5.347   1.405
 2766TIP3    H2 8305   5.539   5.391   1.330
 2767TIP3   OH2 8306   5.409   2.998   3.309
 2767TIP3    H1 8307   5.448   2.941   3.243
 2767TIP3    H2 8308   5.481   3.018   3.368
 2768TIP3   OH2 8309   5.758   0.426   4.698
 2768TIP3    H1 8310   5.728   0.474   4.621
 2768TIP3    H2 8311   5.853   0.422   4.689
 2769TIP3   OH2 8312   3.864   5.611   4.971
 2769TIP3    H1 8313   3.797   5.585   5.034
 2769TIP3    H2 8314   3.847   5.557   4.894
 2770TIP3   OH2 8315   6.206   5.527   0.457
 2770TIP3    H1 8316   6.118   5.558   0.434
 2770TIP3    H2 8317   6.257   5.538   0.377
 2771TIP3   OH2 8318   2.121   0.337   2.831
 2771TIP3    H1 8319   2.081   0.250   2.828
 2771TIP3    H2 8320   2.124   0.365   2.740
 2772TIP3   OH2 8321   1.683   1.208   1.801
 2772TIP3    H1 8322   1.743   1.273   1.837
 2772TIP3    H2 8323   1.682   1.226   1.706
 2773TIP3   OH2 8324   5.257   5.393   1.106
 2773TIP3    H1 8325   5.271   5.407   1.200
 2773TIP3    H2 8326   5.191   5.324   1.102
 2774TIP3   OH2 8327   3.471   1.108   1.838
 2774TIP3    H1 8328   3.435   1.172   1.777
 2774TIP3    H2 8329   3.525   1.159   1.897
 2775TIP3   OH2 8330   3.940   3.892   2.335
 2775TIP3    H1 8331   3.999   3.842   2.278
 2775TIP3    H2 8332   3.881   3.937   2.274
 2776TIP3   OH2 8333   3.182   0.714   3.972
 2776TIP3    H1 8334   3.147   0.654   3.907
 2776TIP3    H2 8335   3.128   0.793   3.964
 2777TIP3   OH2 8336   3.325   5.960   4.414
 2777TIP3    H1 8337   3.419   5.942   4.405
 2777TIP3    H2 8338   3.283   5.876   4.395
 2778TIP3   OH2 8339   1.188   5.068   4.933
 2778TIP3    H1 8340   1.093   5.068   4.940
 2778TIP3    H2 8341   1.215   5.153   4.965
 2779TIP3   OH2 8342   2.749   0.994   2.990
 2779TIP3    H1 8343   2.778   0.906   2.965
 2779TIP3    H2 8344   2.813   1.053   2.953
 2780TIP3   OH2 8345   2.249   4.718   4.347
 2780TIP3    H1 8346   2.175   4.751   4.399
 2780TIP3    H2 8347   2.327   4.751   4.393
 2781TIP3   OH2 8348   5.275   4.131   0.178
 2781TIP3    H1 8349   5.244   4.218   0.154
 2781TIP3    H2 8350   5.318   4.142   0.263
 2782TIP3   OH2 8351   0.571   0.228   1.992
 2782TIP3    H1 8352   0.577   0.209   2.086
 2782TIP3    H2 8353   0.654   0.198   1.956
 2783TIP3   OH2 8354   1.229   0.661   1.301
 2783TIP3    H1 8355   1.297   0.724   1.279
 2783TIP3    H2 8356   1.216   0.671   1.395
 2784TIP3   OH2 8357   0.749   5.576   4.330
 2784TIP3    H1 8358   0.697   5.656   4.338
 2784TIP3    H2 8359   0.798   5.571   4.412
 2785TIP3   OH2 8360   0.343   0.456   2.921
 2785TIP3    H1 8361   0.379   0.406   2.848
 2785TIP3    H2 8362   0.419   0.487   2.969
 2786TIP3   OH2 8363   0.314   1.923   0.179
 2786TIP3    H1 8364   0.241   1.953   0.234
 2786TIP3    H2 8365   0.342   2.002   0.132
 2787TIP3   OH2 8366   3.027   2.613   1.966
 2787TIP3    H1 8367   2.974   2.609   1.887
 2787TIP3    H2 8368   3.113   2.582   1.940
 2788TIP3   OH2 8369   1.284   2.414   2.588
 2788TIP3    H1 8370   1.262   2.360   2.664
 2788TIP3    H2 8371   1.352   2.364   2.542
 2789TIP3   OH2 8372   5.872   3.909   4.631
 2789TIP3    H1 8373   5.865   3.945   4.543
 2789TIP3    H2 8374   5.921   3.976   4.680
 2790TIP3   OH2 8375   3.362   5.959   2.932
 2790TIP3    H1 8376   3.456   5.969   2.948
 2790TIP3    H2 8377   3.322   5.960   3.019
 2791TIP3   OH2 8378   3.523   2.615   4.487
 2791TIP3    H1 8379   3.572   2.693   4.513
 2791TIP3    H2 8380   3.518   2.621   4.391
 2792TIP3   OH2 8381   5.397   4.371   1.766
 2792TIP3    H1 8382   5.356   4.456   1.751
 2792TIP3    H2 8383   5.363   4.343   1.851
 2793TIP3   OH2 8384   4.902   3.821   5.056
 2793TIP3    H1 8385   4.983   3.834   5.008
 2793TIP3    H2 8386   4.926   3.762   5.128
 2794TIP3   OH2 8387   1.351   5.896   1.807
 2794TIP3    H1 8388   1.367   5.830   1.874
 2794TIP3    H2 8389   1.255   5.904   1.805
 2795TIP3   OH2 8390   4.212   2.251   0.286
 2795TIP3    H1 8391   4.260   2.191   0.228
 2795TIP3    H2 8392   4.229   2.218   0.374
 2796TIP3   OH2 8393   5.831   4.033   0.109
 2796TIP3    H1 8394   5.882   3.962   0.150
 2796TIP3    H2 8395   5.799   4.085   0.182
 2797TIP3   OH2 8396   0.020   2.413   4.089
 2797TIP3    H1 8397  -0.072   2.386   4.085
 2797TIP3    H2 8398   0.066   2.337   4.124
 2798TIP3   OH2 8399   0.587   0.275   3.264
 2798TIP3    H1 8400   0.632   0.337   3.207
 2798TIP3    H2 8401   0.626   0.190   3.243
 2799TIP3   OH2 8402   0.876   4.984   3.349
 2799TIP3    H1 8403   0.792   5.011   3.384
 2799TIP3    H2 8404   0.901   5.053   3.288
 2800TIP3   OH2 8405   2.236   1.556   4.737
 2800TIP3    H1 8406   2.257   1.608   4.815
 2800TIP3    H2 8407   2.196   1.476   4.771
 2801TIP3   OH2 8408   5.723   5.501   3.404
 2801TIP3    H1 8409   5.690   5.485   3.316
 2801TIP3    H2 8410   5.649   5.539   3.451
 2802TIP3   OH2 8411   2.436   2.735   4.528
 2802TIP3    H1 8412   2.389   2.813   4.557
 2802TIP3    H2 8413   2.527   2.763   4.521
 2803TIP3   OH2 8414   2.124   2.063   4.675
 2803TIP3    H1 8415   2.030   2.055   4.693
 2803TIP3    H2 8416   2.129   2.111   4.592
 2804TIP3   OH2 8417   3.627   4.145   4.948
 2804TIP3    H1 8418   3.574   4.198   4.888
 2804TIP3    H2 8419   3.715   4.181   4.941
 2805TIP3   OH2 8420   4.474   3.843   1.698
 2805TIP3    H1 8421   4.436   3.881   1.777
 2805TIP3    H2 8422   4.554   3.894   1.684
 2806TIP3   OH2 8423   4.825   3.770   1.271
 2806TIP3    H1 8424   4.780   3.853   1.254
 2806TIP3    H2 8425   4.863   3.780   1.358
 2807TIP3   OH2 8426   5.685   4.762   0.996
 2807TIP3    H1 8427   5.746   4.689   1.010
 2807TIP3    H2 8428   5.713   4.829   1.058
 2808TIP3   OH2 8429   1.365   4.041   2.338
 2808TIP3    H1 8430   1.410   3.957   2.346
 2808TIP3    H2 8431   1.275   4.023   2.368
 2809TIP3   OH2 8432   4.901   1.743   2.124
 2809TIP3    H1 8433   4.900   1.649   2.140
 2809TIP3    H2 8434   4.962   1.755   2.051
 2810TIP3   OH2 8435   5.651   5.294   5.258
 2810TIP3    H1 8436   5.591   5.270   5.188
 2810TIP3    H2 8437   5.666   5.388   5.246
 2811TIP3   OH2 8438   2.065   4.871   1.065
 2811TIP3    H1 8439   2.068   4.787   1.018
 2811TIP3    H2 8440   1.984   4.868   1.115
 2812TIP3   OH2 8441   5.479   3.621   1.299
 2812TIP3    H1 8442   5.559   3.625   1.246
 2812TIP3    H2 8443   5.496   3.679   1.373
 2813TIP3   OH2 8444   0.474   0.456   4.747
 2813TIP3    H1 8445   0.430   0.371   4.746
 2813TIP3    H2 8446   0.552   0.441   4.801
 2814TIP3   OH2 8447   2.870   5.371   1.104
 2814TIP3    H1 8448   2.947   5.316   1.120
 2814TIP3    H2 8449   2.820   5.367   1.186
 2815TIP3   OH2 8450   4.650   1.302   4.274
 2815TIP3    H1 8451   4.568   1.263   4.303
 2815TIP3    H2 8452   4.718   1.248   4.315
 2816TIP3   OH2 8453   4.015   1.355   1.917
 2816TIP3    H1 8454   3.998   1.297   1.991
 2816TIP3    H2 8455   3.943   1.337   1.856
 2817TIP3   OH2 8456   6.056   5.565   1.745
 2817TIP3    H1 8457   5.970   5.532   1.717
 2817TIP3    H2 8458   6.118   5.514   1.693
 2818TIP3   OH2 8459   2.987   2.071   1.710
 2818TIP3    H1 8460   3.047   2.144   1.725
 2818TIP3    H2 8461   3.035   1.995   1.744
 2819TIP3   OH2 8462   3.674   1.940   4.728
 2819TIP3    H1 8463   3.766   1.913   4.723
 2819TIP3    H2 8464   3.661   1.966   4.819
 2820TIP3   OH2 8465   2.371   2.115   2.948
 2820TIP3    H1 8466   2.344   2.064   2.872
 2820TIP3    H2 8467   2.342   2.204   2.928
 2821TIP3   OH2 8468   4.595   3.824   3.106
 2821TIP3    H1 8469   4.556   3.737   3.117
 2821TIP3    H2 8470   4.555   3.858   3.027
 2822TIP3   OH2 8471   0.397   5.819   1.020
 2822TIP3    H1 8472   0.359   5.733   1.005
 2822TIP3    H2 8473   0.461   5.806   1.089
 2823TIP3   OH2 8474   4.172   4.991   4.937
 2823TIP3    H1 8475   4.115   4.941   4.878
 2823TIP3    H2 8476   4.202   4.926   5.002
 2824TIP3   OH2 8477   4.505   1.764   4.306
 2824TIP3    H1 8478   4.433   1.729   4.359
 2824TIP3    H2 8479   4.525   1.694   4.243
 2825TIP3   OH2 8480   3.776   2.599   2.915
 2825TIP3    H1 8481   3.830   2.534   2.870
 2825TIP3    H2 8482   3.835   2.640   2.978
 2826TIP3   OH2 8483   4.160   5.366   1.800
 2826TIP3    H1 8484   4.225   5.296   1.792
 2826TIP3    H2 8485   4.136   5.387   1.709
 2827TIP3   OH2 8486   2.437   0.810   1.696
 2827TIP3    H1 8487   2.411   0.902   1.694
 2827TIP3    H2 8488   2.462   0.790   1.606
 2828TIP3   OH2 8489   0.528   4.322   4.050
 2828TIP3    H1 8490   0.452   4.377   4.035
 2828TIP3    H2 8491   0.575   4.323   3.966
 2829TIP3   OH2 8492   5.361   5.435   0.707
 2829TIP3    H1 8493   5.391   5.345   0.696
 2829TIP3    H2 8494   5.300   5.449   0.634
 2830TIP3   OH2 8495   2.452   3.734   4.661
 2830TIP3    H1 8496   2.394   3.806   4.637
 2830TIP3    H2 8497   2.419   3.704   4.746
 2831TIP3   OH2 8498   2.689   2.515   1.291
 2831TIP3    H1 8499   2.700   2.499   1.197
 2831TIP3    H2 8500   2.614   2.460   1.315
 2832TIP3   OH2 8501   3.103   1.990   2.822
 2832TIP3    H1 8502   3.049   1.973   2.744
 2832TIP3    H2 8503   3.155   1.911   2.832
 2833TIP3   OH2 8504   0.356   2.948   3.088
 2833TIP3    H1 8505   0.273   2.929   3.045
 2833TIP3    H2 8506   0.336   3.016   3.152
 2834TIP3   OH2 8507   2.800   1.425   1.338
 2834TIP3    H1 8508   2.777   1.387   1.253
 2834TIP3    H2 8509   2.751   1.507   1.342
 2835TIP3   OH2 8510   0.562   0.496   2.233
 2835TIP3    H1 8511   0.482   0.526   2.190
 2835TIP3    H2 8512   0.549   0.402   2.244
 2836TIP3   OH2 8513   4.280   5.530   0.833
 2836TIP3    H1 8514   4.278   5.620   0.864
 2836TIP3    H2 8515   4.373   5.508   0.827
 2837TIP3   OH2 8516   2.522   2.130   3.798
 2837TIP3    H1 8517   2.482   2.111   3.714
 2837TIP3    H2 8518   2.484   2.214   3.825
 2838TIP3   OH2 8519   2.273   0.887   4.943
 2838TIP3    H1 8520   2.311   0.964   4.902
 2838TIP3    H2 8521   2.229   0.841   4.871
 2839TIP3   OH2 8522   6.264   4.353   3.483
 2839TIP3    H1 8523   6.329   4.339   3.552
 2839TIP3    H2 8524   6.180   4.342   3.527
 2840TIP3   OH2 8525   4.656   4.164   2.247
 2840TIP3    H1 8526   4.582   4.122   2.202
 2840TIP3    H2 8527   4.653   4.130   2.336
 2841TIP3   OH2 8528   6.207   1.536   0.246
 2841TIP3    H1 8529   6.161   1.506   0.325
 2841TIP3    H2 8530   6.172   1.481   0.176
 2842TIP3   OH2 8531   4.819   3.394   4.744
 2842TIP3    H1 8532   4.877   3.382   4.669
 2842TIP3    H2 8533   4.817   3.489   4.758
 2843TIP3   OH2 8534   1.006   2.986   4.928
 2843TIP3    H1 8535   1.100   2.976   4.913
 2843TIP3    H2 8536   0.995   2.967   5.021
 2844TIP3   OH2 8537   1.315   2.209   2.329
 2844TIP3    H1 8538   1.403   2.175   2.346
 2844TIP3    H2 8539   1.329   2.283   2.271
 2845TIP3   OH2 8540   1.977   3.819   0.188
 2845TIP3    H1 8541   1.899   3.864   0.155
 2845TIP3    H2 8542   1.982   3.845   0.280
 2846TIP3   OH2 8543   5.867   2.934   1.911
 2846TIP3    H1 8544   5.935   3.001   1.906
 2846TIP3    H2 8545   5.804   2.968   1.974
 2847TIP3   OH2 8546   3.811   0.695   0.844
 2847TIP3    H1 8547   3.766   0.652   0.772
 2847TIP3    H2 8548   3.805   0.788   0.825
 2848TIP3   OH2 8549   2.847   3.156   1.188
 2848TIP3    H1 8550   2.814   3.133   1.275
 2848TIP3    H2 8551   2.886   3.242   1.200
 2849TIP3   OH2 8552   5.392   0.918   3.958
 2849TIP3    H1 8553   5.380   0.839   3.905
 2849TIP3    H2 8554   5.391   0.989   3.894
 2850TIP3   OH2 8555   0.368   2.094   1.822
 2850TIP3    H1 8556   0.383   2.021   1.881
 2850TIP3    H2 8557   0.396   2.062   1.736
 2851TIP3   OH2 8558   2.510   5.471   2.828
 2851TIP3    H1 8559   2.597   5.454   2.791
 2851TIP3    H2 8560   2.509   5.420   2.909
 2852TIP3   OH2 8561   5.514   0.437   1.541
 2852TIP3    H1 8562   5.565   0.433   1.622
 2852TIP3    H2 8563   5.539   0.359   1.492
 2853TIP3   OH2 8564   2.253   1.682   2.353
 2853TIP3    H1 8565   2.345   1.703   2.336
 2853TIP3    H2 8566   2.227   1.624   2.281
 2854TIP3   OH2 8567   3.562   3.089   1.106
 2854TIP3    H1 8568   3.631   3.060   1.166
 2854TIP3    H2 8569   3.501   3.015   1.102
 2855TIP3   OH2 8570   3.690   2.019   3.274
 2855TIP3    H1 8571   3.697   1.959   3.348
 2855TIP3    H2 8572   3.635   2.090   3.307
 2856TIP3   OH2 8573   3.426   3.149   2.300
 2856TIP3    H1 8574   3.453   3.064   2.334
 2856TIP3    H2 8575   3.353   3.129   2.241
 2857TIP3   OH2 8576   1.974   3.111   1.095
 2857TIP3    H1 8577   2.028   3.132   1.171
 2857TIP3    H2 8578   1.982   3.187   1.037
 2858TIP3   OH2 8579   0.211   1.624   2.583
 2858TIP3    H1 8580   0.244   1.572   2.510
 2858TIP3    H2 8581   0.202   1.712   2.548
 2859TIP3   OH2 8582   0.305   0.109   3.365
 2859TIP3    H1 8583   0.388   0.127   3.321
 2859TIP3    H2 8584   0.313   0.150   3.451
 2860TIP3   OH2 8585   5.783   2.839   4.390
 2860TIP3    H1 8586   5.822   2.753   4.375
 2860TIP3    H2 8587   5.856   2.901   4.382
 2861TIP3   OH2 8588   0.974   0.459   3.229
 2861TIP3    H1 8589   0.891   0.459   3.181
 2861TIP3    H2 8590   1.041   0.464   3.160
 2862TIP3   OH2 8591   3.654   3.257   2.347
 2862TIP3    H1 8592   3.650   3.337   2.401
 2862TIP3    H2 8593   3.562   3.236   2.330
 2863TIP3   OH2 8594   6.329   3.673   4.312
 2863TIP3    H1 8595   6.336   3.626   4.395
 2863TIP3    H2 8596   6.257   3.631   4.266
 2864TIP3   OH2 8597   0.248   3.776   2.857
 2864TIP3    H1 8598   0.311   3.839   2.822
 2864TIP3    H2 8599   0.232   3.806   2.947
 2865TIP3   OH2 8600   5.734   3.134   4.528
 2865TIP3    H1 8601   5.727   3.112   4.435
 2865TIP3    H2 8602   5.680   3.213   4.537
 2866TIP3   OH2 8603   5.283   1.300   0.795
 2866TIP3    H1 8604   5.259   1.321   0.704
 2866TIP3    H2 8605   5.378   1.311   0.797
 2867TIP3   OH2 8606   0.771   2.848   4.773
 2867TIP3    H1 8607   0.828   2.881   4.843
 2867TIP3    H2 8608   0.731   2.926   4.736
 2868TIP3   OH2 8609   4.456   0.531   4.772
 2868TIP3    H1 8610   4.498   0.446   4.781
 2868TIP3    H2 8611   4.444   0.562   4.862
 2869TIP3   OH2 8612   5.226   2.945   4.495
 2869TIP3    H1 8613   5.265   2.909   4.416
 2869TIP3    H2 8614   5.155   3.001   4.464
 2870TIP3   OH2 8615   5.734   0.553   4.988
 2870TIP3    H1 8616   5.683   0.586   5.062
 2870TIP3    H2 8617   5.671   0.505   4.935
 2871TIP3   OH2 8618   3.190   4.846   5.078
 2871TIP3    H1 8619   3.216   4.885   4.995
 2871TIP3    H2 8620   3.177   4.921   5.136
 2872TIP3   OH2 8621   5.241   2.338   3.569
 2872TIP3    H1 8622   5.170   2.274   3.574
 2872TIP3    H2 8623   5.302   2.300   3.506
 2873TIP3   OH2 8624   0.380   5.122   4.229
 2873TIP3    H1 8625   0.453   5.114   4.289
 2873TIP3    H2 8626   0.348   5.032   4.218
 2874TIP3   OH2 8627   0.531   3.824   2.723
 2874TIP3    H1 8628   0.489   3.804   2.639
 2874TIP3    H2 8629   0.597   3.756   2.734
 2875TIP3   OH2 8630   5.289   2.857   2.881
 2875TIP3    H1 8631   5.253   2.803   2.951
 2875TIP3    H2 8632   5.370   2.813   2.856
 2876TIP3   OH2 8633   0.245   0.986   3.628
 2876TIP3    H1 8634   0.333   0.993   3.591
 2876TIP3    H2 8635   0.246   1.043   3.705
 2877TIP3   OH2 8636   4.487   0.425   3.791
 2877TIP3    H1 8637   4.459   0.362   3.858
 2877TIP3    H2 8638   4.440   0.398   3.712
 2878TIP3   OH2 8639   0.324   4.035   0.310
 2878TIP3    H1 8640   0.229   4.042   0.310
 2878TIP3    H2 8641   0.351   4.082   0.390
 2879TIP3   OH2 8642   3.002   0.797   2.671
 2879TIP3    H1 8643   2.927   0.856   2.676
 2879TIP3    H2 8644   3.001   0.765   2.581
 2880TIP3   OH2 8645   2.941   2.619   1.446
 2880TIP3    H1 8646   2.854   2.580   1.436
 2880TIP3    H2 8647   2.944   2.689   1.380
 2881TIP3   OH2 8648   1.858   5.909   2.434
 2881TIP3    H1 8649   1.895   5.826   2.466
 2881TIP3    H2 8650   1.837   5.891   2.342
 2882TIP3   OH2 8651   0.753   3.346   1.303
 2882TIP3    H1 8652   0.727   3.397   1.226
 2882TIP3    H2 8653   0.673   3.335   1.353
 2883TIP3   OH2 8654   1.854   3.697   2.949
 2883TIP3    H1 8655   1.938   3.739   2.935
 2883TIP3    H2 8656   1.793   3.744   2.893
 2884TIP3   OH2 8657   2.827   2.403   1.660
 2884TIP3    H1 8658   2.741   2.379   1.625
 2884TIP3    H2 8659   2.887   2.339   1.622
 2885TIP3   OH2 8660   2.018   3.061   3.994
 2885TIP3    H1 8661   2.052   2.973   4.013
 2885TIP3    H2 8662   1.951   3.075   4.060
 2886TIP3   OH2 8663   3.261   3.881   0.542
 2886TIP3    H1 8664   3.174   3.919   0.535
 2886TIP3    H2 8665   3.250   3.789   0.517
 2887TIP3   OH2 8666   1.914   4.461   0.694
 2887TIP3    H1 8667   1.944   4.473   0.604
 2887TIP3    H2 8668   1.852   4.388   0.689
 2888TIP3   OH2 8669   1.271   5.425   4.138
 2888TIP3    H1 8670   1.239   5.445   4.050
 2888TIP3    H2 8671   1.206   5.465   4.197
 2889TIP3   OH2 8672   1.959   0.077   2.781
 2889TIP3    H1 8673   1.978   0.124   2.700
 2889TIP3    H2 8674   1.869   0.102   2.802
 2890TIP3   OH2 8675   2.621   4.194   1.553
 2890TIP3    H1 8676   2.620   4.264   1.488
 2890TIP3    H2 8677   2.607   4.238   1.637
 2891TIP3   OH2 8678   4.074   0.529   4.094
 2891TIP3    H1 8679   4.090   0.498   4.183
 2891TIP3    H2 8680   3.982   0.511   4.078
 2892TIP3   OH2 8681   0.238   5.041   0.381
 2892TIP3    H1 8682   0.278   4.989   0.311
 2892TIP3    H2 8683   0.205   4.977   0.444
 2893TIP3   OH2 8684   2.243   0.948   1.427
 2893TIP3    H1 8685   2.325   0.899   1.434
 2893TIP3    H2 8686   2.269   1.036   1.403
 2894TIP3   OH2 8687   5.886   1.840   3.159
 2894TIP3    H1 8688   5.796   1.811   3.176
 2894TIP3    H2 8689   5.939   1.788   3.220
 2895TIP3   OH2 8690   5.555   0.881   3.360
 2895TIP3    H1 8691   5.593   0.833   3.433
 2895TIP3    H2 8692   5.460   0.871   3.372
 2896TIP3   OH2 8693   6.079   2.613   4.152
 2896TIP3    H1 8694   6.018   2.639   4.221
 2896TIP3    H2 8695   6.124   2.536   4.187
 2897TIP3   OH2 8696   5.830   3.714   2.005
 2897TIP3    H1 8697   5.813   3.667   2.087
 2897TIP3    H2 8698   5.892   3.783   2.030
 2898TIP3   OH2 8699   5.790   1.963   0.319
 2898TIP3    H1 8700   5.703   1.955   0.360
 2898TIP3    H2 8701   5.826   2.044   0.357
 2899TIP3   OH2 8702   6.283   0.383   5.012
 2899TIP3    H1 8703   6.272   0.462   5.064
 2899TIP3    H2 8704   6.355   0.403   4.952
 2900TIP3   OH2 8705   6.168   3.320   0.465
 2900TIP3    H1 8706   6.118   3.396   0.497
 2900TIP3    H2 8707   6.152   3.252   0.531
 2901TIP3   OH2 8708   2.289   5.370   3.039
 2901TIP3    H1 8709   2.372   5.325   3.022
 2901TIP3    H2 8710   2.233   5.342   2.966
 2902TIP3   OH2 8711   5.776   1.248   4.783
 2902TIP3    H1 8712   5.696   1.198   4.802
 2902TIP3    H2 8713   5.845   1.199   4.826
 2903TIP3   OH2 8714   3.946   4.730   1.139
 2903TIP3    H1 8715   3.860   4.716   1.100
 2903TIP3    H2 8716   4.001   4.759   1.066
 2904TIP3   OH2 8717   4.982   0.713   4.623
 2904TIP3    H1 8718   5.055   0.660   4.655
 2904TIP3    H2 8719   4.916   0.708   4.692
 2905TIP3   OH2 8720   0.798   4.780   3.182
 2905TIP3    H1 8721   0.866   4.742   3.127
 2905TIP3    H2 8722   0.843   4.847   3.234
 2906TIP3   OH2 8723   0.969   1.913   4.702
 2906TIP3    H1 8724   0.932   1.982   4.757
 2906TIP3    H2 8725   1.060   1.938   4.690
 2907TIP3   OH2 8726   1.531   1.848   0.862
 2907TIP3    H1 8727   1.489   1.877   0.943
 2907TIP3    H2 8728   1.623   1.836   0.886
 2908TIP3   OH2 8729   1.315   4.208   0.808
 2908TIP3    H1 8730   1.314   4.146   0.881
 2908TIP3    H2 8731   1.357   4.161   0.736
 2909TIP3   OH2 8732   2.755   3.015   5.010
 2909TIP3    H1 8733   2.711   2.946   4.962
 2909TIP3    H2 8734   2.685   3.075   5.035
 2910TIP3   OH2 8735   0.425   4.940   1.456
 2910TIP3    H1 8736   0.488   4.954   1.385
 2910TIP3    H2 8737   0.352   4.894   1.414
 2911TIP3   OH2 8738   4.150   5.851   0.382
 2911TIP3    H1 8739   4.116   5.809   0.303
 2911TIP3    H2 8740   4.077   5.903   0.414
 2912TIP3   OH2 8741   4.776   2.238   1.246
 2912TIP3    H1 8742   4.863   2.255   1.210
 2912TIP3    H2 8743   4.791   2.175   1.317
 2913TIP3   OH2 8744   3.193   5.496   3.547
 2913TIP3    H1 8745   3.099   5.479   3.553
 2913TIP3    H2 8746   3.202   5.589   3.569
 2914TIP3   OH2 8747   3.352   5.600   3.823
 2914TIP3    H1 8748   3.367   5.530   3.886
 2914TIP3    H2 8749   3.285   5.566   3.764
 2915TIP3   OH2 8750   6.165   0.134   5.075
 2915TIP3    H1 8751   6.097   0.135   5.142
 2915TIP3    H2 8752   6.200   0.223   5.075
 2916TIP3   OH2 8753   0.424   0.739   4.316
 2916TIP3    H1 8754   0.507   0.706   4.282
 2916TIP3    H2 8755   0.404   0.682   4.391
 2917TIP3   OH2 8756   2.659   3.809   0.999
 2917TIP3    H1 8757   2.740   3.769   1.030
 2917TIP3    H2 8758   2.627   3.750   0.931
 2918TIP3   OH2 8759   0.203   3.395   0.233
 2918TIP3    H1 8760   0.163   3.353   0.309
 2918TIP3    H2 8761   0.145   3.375   0.160
 2919TIP3   OH2 8762   0.656   2.506   4.266
 2919TIP3    H1 8763   0.579   2.502   4.210
 2919TIP3    H2 8764   0.650   2.592   4.308
 2920TIP3   OH2 8765   3.865   3.257   2.175
 2920TIP3    H1 8766   3.910   3.341   2.184
 2920TIP3    H2 8767   3.802   3.256   2.248
 2921TIP3   OH2 8768   2.920   5.643   1.854
 2921TIP3    H1 8769   2.839   5.632   1.903
 2921TIP3    H2 8770   2.899   5.615   1.765
 2922TIP3   OH2 8771   2.743   3.426   0.987
 2922TIP3    H1 8772   2.680   3.499   0.993
 2922TIP3    H2 8773   2.809   3.447   1.053
 2923TIP3   OH2 8774   4.053   0.364   4.613
 2923TIP3    H1 8775   4.055   0.402   4.701
 2923TIP3    H2 8776   4.144   0.341   4.595
 2924TIP3   OH2 8777   3.136   4.658   0.532
 2924TIP3    H1 8778   3.171   4.593   0.471
 2924TIP3    H2 8779   3.098   4.607   0.603
 2925TIP3   OH2 8780   4.901   1.920   1.657
 2925TIP3    H1 8781   4.862   1.968   1.731
 2925TIP3    H2 8782   4.828   1.871   1.619
 2926TIP3   OH2 8783   0.854   2.333   3.959
 2926TIP3    H1 8784   0.868   2.248   3.916
 2926TIP3    H2 8785   0.760   2.337   3.974
 2927TIP3   OH2 8786   3.966   3.859   0.770
 2927TIP3    H1 8787   3.955   3.826   0.681
 2927TIP3    H2 8788   3.892   3.823   0.819
 2928TIP3   OH2 8789   2.142   2.142   1.042
 2928TIP3    H1 8790   2.156   2.123   0.949
 2928TIP3    H2 8791   2.183   2.227   1.055
 2929TIP3   OH2 8792   1.561   3.074   3.807
 2929TIP3    H1 8793   1.653   3.077   3.783
 2929TIP3    H2 8794   1.537   2.981   3.799
 2930TIP3   OH2 8795   0.378   4.947   1.730
 2930TIP3    H1 8796   0.440   4.937   1.658
 2930TIP3    H2 8797   0.302   4.894   1.705
 2931TIP3   OH2 8798   4.540   2.898   3.079
 2931TIP3    H1 8799   4.624   2.852   3.087
 2931TIP3    H2 8800   4.532   2.917   2.985
 2932TIP3   OH2 8801   5.808   2.550   4.789
 2932TIP3    H1 8802   5.866   2.621   4.763
 2932TIP3    H2 8803   5.857   2.503   4.857
 2933TIP3   OH2 8804   0.537   0.682   3.953
 2933TIP3    H1 8805   0.446   0.670   3.981
 2933TIP3    H2 8806   0.585   0.694   4.035
 2934TIP3   OH2 8807   4.857   5.159   0.234
 2934TIP3    H1 8808   4.820   5.226   0.176
 2934TIP3    H2 8809   4.832   5.187   0.322
 2935TIP3   OH2 8810   2.187   1.779   1.920
 2935TIP3    H1 8811   2.109   1.775   1.975
 2935TIP3    H2 8812   2.164   1.842   1.851
 2936TIP3   OH2 8813   4.350   4.046   0.277
 2936TIP3    H1 8814   4.407   4.081   0.208
 2936TIP3    H2 8815   4.392   4.073   0.359
 2937TIP3   OH2 8816   3.085   1.273   4.925
 2937TIP3    H1 8817   3.176   1.260   4.953
 2937TIP3    H2 8818   3.035   1.206   4.972
 2938TIP3   OH2 8819   0.504   0.608   3.269
 2938TIP3    H1 8820   0.528   0.586   3.179
 2938TIP3    H2 8821   0.419   0.652   3.262
 2939TIP3   OH2 8822   0.809   3.268   0.095
 2939TIP3    H1 8823   0.787   3.337   0.032
 2939TIP3    H2 8824   0.874   3.214   0.049
 2940TIP3   OH2 8825   1.612   5.725   2.003
 2940TIP3    H1 8826   1.577   5.753   1.919
 2940TIP3    H2 8827   1.536   5.719   2.060
 2941TIP3   OH2 8828   1.562   2.965   0.715
 2941TIP3    H1 8829   1.527   2.911   0.785
 2941TIP3    H2 8830   1.536   2.921   0.634
 2942TIP3   OH2 8831   2.437   1.415   4.125
 2942TIP3    H1 8832   2.352   1.460   4.125
 2942TIP3    H2 8833   2.418   1.329   4.087
 2943TIP3   OH2 8834   1.482   0.694   0.825
 2943TIP3    H1 8835   1.496   0.659   0.913
 2943TIP3    H2 8836   1.387   0.706   0.818
 2944TIP3   OH2 8837   0.042   1.048   4.803
 2944TIP3    H1 8838   0.089   0.966   4.786
 2944TIP3    H2 8839  -0.043   1.021   4.837
 2945TIP3   OH2 8840   6.022   1.962   0.941
 2945TIP3    H1 8841   6.086   1.974   0.871
 2945TIP3    H2 8842   5.948   2.017   0.916
 2946TIP3   OH2 8843   0.054   5.307   3.039
 2946TIP3    H1 8844   0.098   5.338   3.118
 2946TIP3    H2 8845   0.124   5.278   2.981
 2947TIP3   OH2 8846   2.877   0.620   4.769
 2947TIP3    H1 8847   2.968   0.647   4.756
 2947TIP3    H2 8848   2.836   0.631   4.684
 2948TIP3   OH2 8849   4.957   4.777   4.446
 2948TIP3    H1 8850   4.994   4.701   4.492
 2948TIP3    H2 8851   4.864   4.776   4.469
 2949TIP3   OH2 8852   2.248   5.791   0.348
 2949TIP3    H1 8853   2.182   5.859   0.357
 2949TIP3    H2 8854   2.297   5.814   0.269
 2950TIP3   OH2 8855   1.986   0.881   0.398
 2950TIP3    H1 8856   2.026   0.954   0.446
 2950TIP3    H2 8857   1.944   0.828   0.466
 2951TIP3   OH2 8858   1.216   0.577   2.037
 2951TIP3    H1 8859   1.266   0.508   2.080
 2951TIP3    H2 8860   1.130   0.573   2.077
 2952TIP3   OH2 8861   4.959   3.041   4.465
 2952TIP3    H1 8862   4.926   3.058   4.553
 2952TIP3    H2 8863   4.884   3.007   4.417
 2953TIP3   OH2 8864   3.017   5.296   3.096
 2953TIP3    H1 8865   2.992   5.296   3.004
 2953TIP3    H2 8866   2.949   5.246   3.140
 2954TIP3   OH2 8867   5.390   1.845   3.427
 2954TIP3    H1 8868   5.427   1.763   3.394
 2954TIP3    H2 8869   5.303   1.821   3.459
 2955TIP3   OH2 8870   5.037   5.374   4.543
 2955TIP3    H1 8871   5.032   5.467   4.563
 2955TIP3    H2 8872   5.023   5.370   4.448
 2956TIP3   OH2 8873   3.667   3.893   0.093
 2956TIP3    H1 8874   3.696   3.831   0.026
 2956TIP3    H2 8875   3.590   3.851   0.133
 2957TIP3   OH2 8876   6.227   0.133   0.785
 2957TIP3    H1 8877   6.266   0.216   0.811
 2957TIP3    H2 8878   6.301   0.072   0.780
 2958TIP3   OH2 8879   0.511   3.409   4.245
 2958TIP3    H1 8880   0.578   3.476   4.258
 2958TIP3    H2 8881   0.490   3.414   4.151
 2959TIP3   OH2 8882   0.103   1.751   0.069
 2959TIP3    H1 8883   0.186   1.732   0.025
 2959TIP3    H2 8884   0.079   1.838   0.037
 2960TIP3   OH2 8885   3.210   2.998   4.277
 2960TIP3    H1 8886   3.267   3.072   4.255
 2960TIP3    H2 8887   3.122   3.036   4.277
 2961TIP3   OH2 8888   5.526   2.847   3.097
 2961TIP3    H1 8889   5.495   2.757   3.098
 2961TIP3    H2 8890   5.531   2.870   3.004
 2962TIP3   OH2 8891   1.695   3.750   2.066
 2962TIP3    H1 8892   1.687   3.655   2.055
 2962TIP3    H2 8893   1.789   3.766   2.072
 2963TIP3   OH2 8894   3.978   5.149   1.494
 2963TIP3    H1 8895   4.035   5.112   1.562
 2963TIP3    H2 8896   3.989   5.091   1.419
 2964TIP3   OH2 8897   1.652   0.388   0.213
 2964TIP3    H1 8898   1.667   0.318   0.276
 2964TIP3    H2 8899   1.667   0.469   0.262
 2965TIP3   OH2 8900   4.221   3.789   0.435
 2965TIP3    H1 8901   4.303   3.822   0.471
 2965TIP3    H2 8902   4.153   3.846   0.471
 2966TIP3   OH2 8903   1.550   5.901   3.805
 2966TIP3    H1 8904   1.584   5.820   3.842
 2966TIP3    H2 8905   1.465   5.913   3.848
 2967TIP3   OH2 8906   4.257   0.982   0.392
 2967TIP3    H1 8907   4.335   1.012   0.439
 2967TIP3    H2 8908   4.289   0.916   0.331
 2968TIP3   OH2 8909   1.023   2.703   2.188
 2968TIP3    H1 8910   0.966   2.627   2.183
 2968TIP3    H2 8911   0.964   2.778   2.190
 2969TIP3   OH2 8912   5.829   5.054   4.172
 2969TIP3    H1 8913   5.788   5.076   4.089
 2969TIP3    H2 8914   5.916   5.093   4.167
 2970TIP3   OH2 8915   5.252   3.187   2.114
 2970TIP3    H1 8916   5.178   3.235   2.078
 2970TIP3    H2 8917   5.329   3.236   2.084
 2971TIP3   OH2 8918   0.517   4.845   2.356
 2971TIP3    H1 8919   0.561   4.918   2.400
 2971TIP3    H2 8920   0.499   4.877   2.268
 2972TIP3   OH2 8921   1.438   3.686   0.901
 2972TIP3    H1 8922   1.417   3.752   0.835
 2972TIP3    H2 8923   1.430   3.602   0.855
 2973TIP3   OH2 8924   6.142   0.516   3.484
 2973TIP3    H1 8925   6.151   0.541   3.576
 2973TIP3    H2 8926   6.058   0.553   3.457
 2974TIP3   OH2 8927   1.429   0.051   2.706
 2974TIP3    H1 8928   1.411   0.125   2.764
 2974TIP3    H2 8929   1.422  -0.026   2.762
 2975TIP3   OH2 8930   1.607   3.848   4.896
 2975TIP3    H1 8931   1.658   3.778   4.858
 2975TIP3    H2 8932   1.562   3.889   4.822
 2976TIP3   OH2 8933   0.724   5.756   0.999
 2976TIP3    H1 8934   0.677   5.812   0.937
 2976TIP3    H2 8935   0.676   5.765   1.081
 2977TIP3   OH2 8936   3.861   4.730   0.687
 2977TIP3    H1 8937   3.902   4.808   0.723
 2977TIP3    H2 8938   3.828   4.758   0.601
 2978TIP3   OH2 8939   5.342   5.011   1.265
 2978TIP3    H1 8940   5.390   5.026   1.346
 2978TIP3    H2 8941   5.354   4.918   1.246
 2979TIP3   OH2 8942   5.745   0.956   1.416
 2979TIP3    H1 8943   5.770   0.953   1.509
 2979TIP3    H2 8944   5.709   0.869   1.399
 2980TIP3   OH2 8945   0.498   3.967   5.025
 2980TIP3    H1 8946   0.552   3.927   5.093
 2980TIP3    H2 8947   0.495   3.902   4.955
 2981TIP3   OH2 8948   2.154   4.865   4.847
 2981TIP3    H1 8949   2.157   4.895   4.938
 2981TIP3    H2 8950   2.061   4.868   4.824
 2982TIP3   OH2 8951   0.419   5.260   1.250
 2982TIP3    H1 8952   0.478   5.315   1.300
 2982TIP3    H2 8953   0.337   5.260   1.300
 2983TIP3   OH2 8954   3.344   4.135   2.474
 2983TIP3    H1 8955   3.330   4.225   2.500
 2983TIP3    H2 8956   3.256   4.096   2.473
 2984TIP3   OH2 8957   3.290   4.371   3.158
 2984TIP3    H1 8958   3.238   4.450   3.147
 2984TIP3    H2 8959   3.239   4.302   3.116
 2985TIP3   OH2 8960   0.045   0.956   1.950
 2985TIP3    H1 8961   0.126   0.970   1.999
 2985TIP3    H2 8962   0.074   0.944   1.859
 2986TIP3   OH2 8963   4.320   2.273   2.227
 2986TIP3    H1 8964   4.353   2.200   2.279
 2986TIP3    H2 8965   4.304   2.235   2.140
 2987TIP3   OH2 8966   5.110   3.042   2.907
 2987TIP3    H1 8967   5.174   2.988   2.860
 2987TIP3    H2 8968   5.115   3.011   2.997
 2988TIP3   OH2 8969   5.717   1.671   0.350
 2988TIP3    H1 8970   5.764   1.754   0.350
 2988TIP3    H2 8971   5.718   1.642   0.442
 2989TIP3   OH2 8972   4.568   3.775   2.508
 2989TIP3    H1 8973   4.490   3.782   2.453
 2989TIP3    H2 8974   4.591   3.682   2.506
 2990TIP3   OH2 8975   0.358   5.845   2.787
 2990TIP3    H1 8976   0.337   5.752   2.780
 2990TIP3    H2 8977   0.275   5.890   2.777
 2991TIP3   OH2 8978   6.123   0.645   4.388
 2991TIP3    H1 8979   6.181   0.717   4.362
 2991TIP3    H2 8980   6.051   0.688   4.434
 2992TIP3   OH2 8981   1.786   1.890   2.399
 2992TIP3    H1 8982   1.785   1.795   2.384
 2992TIP3    H2 8983   1.879   1.911   2.412
 2993TIP3   OH2 8984   3.877   2.642   1.892
 2993TIP3    H1 8985   3.959   2.690   1.900
 2993TIP3    H2 8986   3.830   2.660   1.973
 2994TIP3   OH2 8987   1.718   4.417   1.594
 2994TIP3    H1 8988   1.744   4.465   1.515
 2994TIP3    H2 8989   1.644   4.364   1.567
 2995TIP3   OH2 8990   0.105   0.417   1.574
 2995TIP3    H1 8991   0.187   0.404   1.622
 2995TIP3    H2 8992   0.044   0.355   1.616
 2996TIP3   OH2 8993   0.079   3.050   0.330
 2996TIP3    H1 8994   0.162   3.074   0.288
 2996TIP3    H2 8995   0.012   3.082   0.270
 2997TIP3   OH2 8996   3.126   0.170   2.583
 2997TIP3    H1 8997   3.090   0.099   2.529
 2997TIP3    H2 8998   3.220   0.169   2.563
 2998TIP3   OH2 8999   5.671   1.399   1.906
 2998TIP3    H1 9000   5.682   1.479   1.957
 2998TIP3    H2 9001   5.735   1.338   1.943
 2999TIP3   OH2 9002   2.075   0.156   0.830
 2999TIP3    H1 9003   2.165   0.152   0.863
 2999TIP3    H2 9004   2.071   0.238   0.780
 3000TIP3   OH2 9005   2.452   5.409   5.013
 3000TIP3    H1 9006   2.476   5.448   4.929
 3000TIP3    H2 9007   2.364   5.443   5.030
 3001TIP3   OH2 9008   0.257   3.336   5.051
 3001TIP3    H1 9009   0.330   3.375   5.099
 3001TIP3    H2 9010   0.294   3.257   5.012
 3002TIP3   OH2 9011   0.039   2.446   4.406
 3002TIP3    H1 9012   0.034   2.456   4.311
 3002TIP3    H2 9013   0.048   2.352   4.420
 3003TIP3   OH2 9014   6.125   1.787   2.967
 3003TIP3    H1 9015   6.066   1.852   3.007
 3003TIP3    H2 9016   6.071   1.744   2.901
 3004TIP3   OH2 9017   4.794   1.993   0.424
 3004TIP3    H1 9018   4.813   2.024   0.335
 3004TIP3    H2 9019   4.749   2.066   0.465
 3005TIP3   OH2 9020   1.161   2.297   0.436
 3005TIP3    H1 9021   1.230   2.234   0.414
 3005TIP3    H2 9022   1.164   2.362   0.365
 3006TIP3   OH2 9023   5.149   4.678   0.312
 3006TIP3    H1 9024   5.173   4.761   0.271
 3006TIP3    H2 9025   5.222   4.657   0.370
 3007TIP3   OH2 9026   4.137   2.852   0.647
 3007TIP3    H1 9027   4.195   2.928   0.651
 3007TIP3    H2 9028   4.177   2.789   0.707
 3008TIP3   OH2 9029   0.080   3.122   4.469
 3008TIP3    H1 9030   0.113   3.110   4.380
 3008TIP3    H2 9031   0.091   3.037   4.511
 3009TIP3   OH2 9032   4.479   0.982   4.326
 3009TIP3    H1 9033   4.508   1.012   4.413
 3009TIP3    H2 9034   4.558   0.946   4.286
 3010TIP3   OH2 9035   1.238   2.921   2.059
 3010TIP3    H1 9036   1.174   2.973   2.107
 3010TIP3    H2 9037   1.245   2.839   2.108
 3011TIP3   OH2 9038   0.583   5.105   3.771
 3011TIP3    H1 9039   0.508   5.089   3.712
 3011TIP3    H2 9040   0.558   5.061   3.853
 3012TIP3   OH2 9041   0.468   1.408   3.252
 3012TIP3    H1 9042   0.380   1.428   3.221
 3012TIP3    H2 9043   0.525   1.434   3.179
 3013TIP3   OH2 9044   4.830   0.514   1.133
 3013TIP3    H1 9045   4.817   0.539   1.224
 3013TIP3    H2 9046   4.873   0.429   1.137
 3014TIP3   OH2 9047   6.001   0.357   4.576
 3014TIP3    H1 9048   6.095   0.374   4.568
 3014TIP3    H2 9049   5.963   0.392   4.495
 3015TIP3   OH2 9050   5.402   0.995   0.585
 3015TIP3    H1 9051   5.486   1.002   0.630
 3015TIP3    H2 9052   5.407   1.061   0.515
 3016TIP3   OH2 9053   3.308   2.051   0.423
 3016TIP3    H1 9054   3.298   1.964   0.461
 3016TIP3    H2 9055   3.337   2.034   0.333
 3017TIP3   OH2 9056   5.705   5.069   0.714
 3017TIP3    H1 9057   5.789   5.071   0.760
 3017TIP3    H2 9058   5.729   5.051   0.623
 3018TIP3   OH2 9059   3.150   5.904   2.770
 3018TIP3    H1 9060   3.088   5.878   2.838
 3018TIP3    H2 9061   3.236   5.898   2.811
 3019TIP3   OH2 9062   3.372   3.569   4.582
 3019TIP3    H1 9063   3.349   3.661   4.590
 3019TIP3    H2 9064   3.385   3.556   4.488
 3020TIP3   OH2 9065   4.103   0.830   0.587
 3020TIP3    H1 9066   4.110   0.887   0.510
 3020TIP3    H2 9067   4.025   0.861   0.632
 3021TIP3   OH2 9068   2.198   2.754   4.700
 3021TIP3    H1 9069   2.186   2.719   4.788
 3021TIP3    H2 9070   2.179   2.680   4.642
 3022TIP3   OH2 9071   2.802   2.908   4.409
 3022TIP3    H1 9072   2.833   2.896   4.499
 3022TIP3    H2 9073   2.834   2.995   4.385
 3023TIP3   OH2 9074   6.342   2.520   0.801
 3023TIP3    H1 9075   6.275   2.588   0.789
 3023TIP3    H2 9076   6.317   2.476   0.882
 3024TIP3   OH2 9077   0.736   5.234   4.063
 3024TIP3    H1 9078   0.766   5.147   4.088
 3024TIP3    H2 9079   0.680   5.263   4.136
 3025TIP3   OH2 9080   4.262   0.248   3.351
 3025TIP3    H1 9081   4.175   0.224   3.384
 3025TIP3    H2 9082   4.251   0.251   3.256
 3026TIP3   OH2 9083   5.683   4.532   1.761
 3026TIP3    H1 9084   5.671   4.437   1.754
 3026TIP3    H2 9085   5.702   4.561   1.672
 3027TIP3   OH2 9086   4.738   3.410   0.006
 3027TIP3    H1 9087   4.807   3.363  -0.041
 3027TIP3    H2 9088   4.781   3.441   0.086
 3028TIP3   OH2 9089   1.198   3.885   4.281
 3028TIP3    H1 9090   1.267   3.897   4.216
 3028TIP3    H2 9091   1.244   3.889   4.365
 3029TIP3   OH2 9092   1.220   1.807   3.540
 3029TIP3    H1 9093   1.196   1.716   3.526
 3029TIP3    H2 9094   1.271   1.831   3.462
 3030TIP3   OH2 9095   1.460   0.964   1.655
 3030TIP3    H1 9096   1.387   0.987   1.712
 3030TIP3    H2 9097   1.536   0.961   1.713
 3031TIP3   OH2 9098   1.188   0.001   3.511
 3031TIP3    H1 9099   1.105  -0.025   3.551
 3031TIP3    H2 9100   1.175   0.093   3.487
 3032TIP3   OH2 9101   2.084   0.110   0.508
 3032TIP3    H1 9102   2.094   0.038   0.569
 3032TIP3    H2 9103   1.991   0.130   0.509
 3033TIP3   OH2 9104   2.681   3.093   1.438
 3033TIP3    H1 9105   2.587   3.089   1.417
 3033TIP3    H2 9106   2.686   3.065   1.530
 3034TIP3   OH2 9107   6.151   3.711   4.606
 3034TIP3    H1 9108   6.142   3.750   4.693
 3034TIP3    H2 9109   6.154   3.786   4.547
 3035TIP3   OH2 9110   1.642   5.068   3.813
 3035TIP3    H1 9111   1.575   5.014   3.771
 3035TIP3    H2 9112   1.630   5.155   3.775
 3036TIP3   OH2 9113   0.698   3.626   4.265
 3036TIP3    H1 9114   0.705   3.704   4.211
 3036TIP3    H2 9115   0.788   3.605   4.289
 3037TIP3   OH2 9116   3.030   3.980   4.050
 3037TIP3    H1 9117   3.000   4.068   4.073
 3037TIP3    H2 9118   2.951   3.926   4.055
 3038TIP3   OH2 9119   2.885   3.199   3.319
 3038TIP3    H1 9120   2.897   3.253   3.240
 3038TIP3    H2 9121   2.803   3.230   3.356
 3039TIP3   OH2 9122   4.670   5.137   2.050
 3039TIP3    H1 9123   4.695   5.143   2.143
 3039TIP3    H2 9124   4.660   5.044   2.034
 3040TIP3   OH2 9125   3.216   1.947   1.433
 3040TIP3    H1 9126   3.309   1.938   1.455
 3040TIP3    H2 9127   3.201   1.880   1.366
 3041TIP3   OH2 9128   5.674   1.786   2.780
 3041TIP3    H1 9129   5.704   1.697   2.799
 3041TIP3    H2 9130   5.741   1.843   2.816
 3042TIP3   OH2 9131   3.939   0.089   3.045
 3042TIP3    H1 9132   3.896   0.039   3.115
 3042TIP3    H2 9133   3.947   0.028   2.973
 3043TIP3   OH2 9134   6.020   1.486   3.817
 3043TIP3    H1 9135   5.984   1.520   3.899
 3043TIP3    H2 9136   6.108   1.522   3.812
 3044TIP3   OH2 9137   0.566   4.630   1.673
 3044TIP3    H1 9138   0.577   4.599   1.763
 3044TIP3    H2 9139   0.654   4.654   1.645
 3045TIP3   OH2 9140   4.854   2.524   4.247
 3045TIP3    H1 9141   4.945   2.535   4.221
 3045TIP3    H2 9142   4.805   2.584   4.190
 3046TIP3   OH2 9143   3.500   5.831   4.644
 3046TIP3    H1 9144   3.440   5.823   4.718
 3046TIP3    H2 9145   3.505   5.925   4.626
 3047TIP3   OH2 9146   3.491   2.785   3.456
 3047TIP3    H1 9147   3.521   2.714   3.399
 3047TIP3    H2 9148   3.479   2.745   3.541
 3048TIP3   OH2 9149   2.846   0.910   1.190
 3048TIP3    H1 9150   2.825   0.882   1.279
 3048TIP3    H2 9151   2.917   0.973   1.201
 3049TIP3   OH2 9152   2.297   2.363   3.511
 3049TIP3    H1 9153   2.313   2.384   3.603
 3049TIP3    H2 9154   2.227   2.422   3.485
 3050TIP3   OH2 9155   5.320   1.218   3.312
 3050TIP3    H1 9156   5.397   1.207   3.257
 3050TIP3    H2 9157   5.286   1.129   3.323
 3051TIP3   OH2 9158   2.331   5.721   4.840
 3051TIP3    H1 9159   2.332   5.625   4.841
 3051TIP3    H2 9160   2.388   5.746   4.913
 3052TIP3   OH2 9161   5.328   0.280   1.761
 3052TIP3    H1 9162   5.301   0.317   1.846
 3052TIP3    H2 9163   5.303   0.346   1.697
 3053TIP3   OH2 9164   6.347   5.394   1.860
 3053TIP3    H1 9165   6.345   5.437   1.774
 3053TIP3    H2 9166   6.315   5.306   1.844
 3054TIP3   OH2 9167   0.241   1.343   3.630
 3054TIP3    H1 9168   0.149   1.317   3.639
 3054TIP3    H2 9169   0.240   1.412   3.564
 3055TIP3   OH2 9170   2.322   2.735   5.025
 3055TIP3    H1 9171   2.340   2.738   5.119
 3055TIP3    H2 9172   2.282   2.650   5.011
 3056TIP3   OH2 9173   5.070   0.368   2.117
 3056TIP3    H1 9174   5.002   0.300   2.122
 3056TIP3    H2 9175   5.151   0.319   2.101
 3057TIP3   OH2 9176   5.894   3.473   3.076
 3057TIP3    H1 9177   5.935   3.542   3.024
 3057TIP3    H2 9178   5.968   3.428   3.117
 3058TIP3   OH2 9179   5.868   4.193   5.056
 3058TIP3    H1 9180   5.782   4.157   5.038
 3058TIP3    H2 9181   5.918   4.120   5.092
 3059TIP3   OH2 9182   1.888   5.747   0.484
 3059TIP3    H1 9183   1.947   5.805   0.532
 3059TIP3    H2 9184   1.946   5.687   0.437
 3060TIP3   OH2 9185   5.019   4.063   1.564
 3060TIP3    H1 9186   5.039   4.038   1.654
 3060TIP3    H2 9187   5.014   4.159   1.567
 3061TIP3   OH2 9188   4.184   4.099   0.781
 3061TIP3    H1 9189   4.200   4.164   0.712
 3061TIP3    H2 9190   4.114   4.044   0.746
 3062TIP3   OH2 9191   1.430   1.457   2.238
 3062TIP3    H1 9192   1.502   1.497   2.188
 3062TIP3    H2 9193   1.455   1.471   2.329
 3063TIP3   OH2 9194   5.211   4.790   1.436
 3063TIP3    H1 9195   5.307   4.787   1.437
 3063TIP3    H2 9196   5.189   4.873   1.480
 3064TIP3   OH2 9197   4.574   4.882   4.326
 3064TIP3    H1 9198   4.558   4.815   4.394
 3064TIP3    H2 9199   4.487   4.915   4.304
 3065TIP3   OH2 9200   0.437   3.702   4.613
 3065TIP3    H1 9201   0.417   3.664   4.528
 3065TIP3    H2 9202   0.480   3.785   4.593
 3066TIP3   OH2 9203   3.195   1.000   0.893
 3066TIP3    H1 9204   3.248   0.924   0.867
 3066TIP3    H2 9205   3.135   1.013   0.819
 3067TIP3   OH2 9206   6.132   5.177   4.751
 3067TIP3    H1 9207   6.185   5.120   4.696
 3067TIP3    H2 9208   6.136   5.136   4.838
 3068TIP3   OH2 9209   4.432   4.449   0.684
 3068TIP3    H1 9210   4.386   4.450   0.600
 3068TIP3    H2 9211   4.442   4.356   0.705
 3069TIP3   OH2 9212   1.588   4.231   2.198
 3069TIP3    H1 9213   1.563   4.153   2.149
 3069TIP3    H2 9214   1.617   4.198   2.283
 3070TIP3   OH2 9215   2.047   2.182   4.015
 3070TIP3    H1 9216   1.985   2.112   4.033
 3070TIP3    H2 9217   2.062   2.177   3.920
 3071TIP3   OH2 9218   6.079   5.669   4.767
 3071TIP3    H1 9219   6.098   5.757   4.735
 3071TIP3    H2 9220   6.132   5.660   4.846
 3072TIP3   OH2 9221   5.374   3.942   5.133
 3072TIP3    H1 9222   5.392   3.905   5.220
 3072TIP3    H2 9223   5.459   3.944   5.090
 3073TIP3   OH2 9224   0.188   3.662   4.728
 3073TIP3    H1 9225   0.164   3.753   4.747
 3073TIP3    H2 9226   0.277   3.667   4.695
 3074TIP3   OH2 9227   0.165   3.833   3.115
 3074TIP3    H1 9228   0.087   3.875   3.078
 3074TIP3    H2 9229   0.162   3.853   3.209
 3075TIP3   OH2 9230   3.137   3.881   2.208
 3075TIP3    H1 9231   3.050   3.849   2.182
 3075TIP3    H2 9232   3.136   3.879   2.304
 3076TIP3   OH2 9233   4.282   2.940   1.035
 3076TIP3    H1 9234   4.315   2.920   1.123
 3076TIP3    H2 9235   4.254   2.855   1.000
 3077TIP3   OH2 9236   4.485   2.707   0.910
 3077TIP3    H1 9237   4.526   2.782   0.954
 3077TIP3    H2 9238   4.548   2.636   0.921
 3078TIP3   OH2 9239   2.357   3.949   2.504
 3078TIP3    H1 9240   2.284   4.011   2.495
 3078TIP3    H2 9241   2.415   3.990   2.568
 3079TIP3   OH2 9242   3.341   0.855   0.469
 3079TIP3    H1 9243   3.424   0.901   0.463
 3079TIP3    H2 9244   3.325   0.845   0.562
 3080TIP3   OH2 9245   4.665   0.821   4.200
 3080TIP3    H1 9246   4.723   0.758   4.242
 3080TIP3    H2 9247   4.633   0.775   4.122
 3081TIP3   OH2 9248   3.138   5.122   3.519
 3081TIP3    H1 9249   3.217   5.134   3.572
 3081TIP3    H2 9250   3.067   5.155   3.574
 3082TIP3   OH2 9251   2.336   3.259   0.853
 3082TIP3    H1 9252   2.308   3.348   0.874
 3082TIP3    H2 9253   2.396   3.269   0.779
 3083TIP3   OH2 9254   0.638   3.410   2.492
 3083TIP3    H1 9255   0.596   3.325   2.510
 3083TIP3    H2 9256   0.604   3.468   2.560
 3084TIP3   OH2 9257   5.094   3.487   3.535
 3084TIP3    H1 9258   5.085   3.401   3.576
 3084TIP3    H2 9259   5.149   3.470   3.458
 3085TIP3   OH2 9260   3.222   0.930   3.487
 3085TIP3    H1 9261   3.207   0.837   3.502
 3085TIP3    H2 9262   3.186   0.973   3.565
 3086TIP3   OH2 9263   0.837   4.386   1.689
 3086TIP3    H1 9264   0.763   4.402   1.631
 3086TIP3    H2 9265   0.912   4.378   1.629
 3087TIP3   OH2 9266   2.722   2.106   1.620
 3087TIP3    H1 9267   2.811   2.076   1.637
 3087TIP3    H2 9268   2.708   2.092   1.526
 3088TIP3   OH2 9269   0.555   0.234   2.273
 3088TIP3    H1 9270   0.477   0.213   2.324
 3088TIP3    H2 9271   0.628   0.210   2.331
 3089TIP3   OH2 9272   2.346   0.104   2.539
 3089TIP3    H1 9273   2.344   0.040   2.468
 3089TIP3    H2 9274   2.289   0.067   2.606
 3090TIP3   OH2 9275   0.039   0.053   2.843
 3090TIP3    H1 9276   0.104  -0.017   2.849
 3090TIP3    H2 9277   0.066   0.115   2.910
 3091TIP3   OH2 9278   4.545   0.902   0.482
 3091TIP3    H1 9279   4.491   0.858   0.548
 3091TIP3    H2 9280   4.634   0.869   0.499
 3092TIP3   OH2 9281   4.747   3.275   3.380
 3092TIP3    H1 9282   4.696   3.293   3.301
 3092TIP3    H2 9283   4.783   3.360   3.405
 3093TIP3   OH2 9284   4.951   4.667   0.148
 3093TIP3    H1 9285   4.932   4.759   0.132
 3093TIP3    H2 9286   5.029   4.668   0.204
 3094TIP3   OH2 9287   2.304   5.499   3.930
 3094TIP3    H1 9288   2.255   5.459   3.858
 3094TIP3    H2 9289   2.293   5.593   3.917
 3095TIP3   OH2 9290   4.219   2.564   2.014
 3095TIP3    H1 9291   4.179   2.484   2.048
 3095TIP3    H2 9292   4.261   2.537   1.932
 3096TIP3   OH2 9293   3.559   4.474   3.097
 3096TIP3    H1 9294   3.564   4.524   3.016
 3096TIP3    H2 9295   3.473   4.431   3.093
 3097TIP3   OH2 9296   4.201   2.632   4.123
 3097TIP3    H1 9297   4.287   2.667   4.102
 3097TIP3    H2 9298   4.139   2.691   4.081
 3098TIP3   OH2 9299   0.530   0.280   4.378
 3098TIP3    H1 9300   0.472   0.204   4.374
 3098TIP3    H2 9301   0.612   0.250   4.339
 3099TIP3   OH2 9302   1.829   3.073   3.801
 3099TIP3    H1 9303   1.852   3.017   3.726
 3099TIP3    H2 9304   1.890   3.046   3.870
 3100TIP3   OH2 9305   3.723   3.388   1.589
 3100TIP3    H1 9306   3.787   3.327   1.625
 3100TIP3    H2 9307   3.639   3.341   1.595
 3101TIP3   OH2 9308   1.585  -0.024   3.703
 3101TIP3    H1 9309   1.510  -0.049   3.649
 3101TIP3    H2 9310   1.619   0.055   3.662
 3102TIP3   OH2 9311   3.216   2.691   2.839
 3102TIP3    H1 9312   3.272   2.750   2.889
 3102TIP3    H2 9313   3.217   2.728   2.750
 3103TIP3   OH2 9314   3.785   5.167   1.785
 3103TIP3    H1 9315   3.725   5.155   1.858
 3103TIP3    H2 9316   3.853   5.100   1.798
 3104TIP3   OH2 9317   4.080   5.310   2.850
 3104TIP3    H1 9318   4.058   5.391   2.897
 3104TIP3    H2 9319   4.173   5.297   2.866
 3105TIP3   OH2 9320   3.838   3.593   0.735
 3105TIP3    H1 9321   3.860   3.499   0.737
 3105TIP3    H2 9322   3.860   3.620   0.646
 3106TIP3   OH2 9323   6.054   5.609   0.745
 3106TIP3    H1 9324   5.981   5.555   0.715
 3106TIP3    H2 9325   6.054   5.684   0.685
 3107TIP3   OH2 9326   5.511   4.454   4.551
 3107TIP3    H1 9327   5.602   4.455   4.580
 3107TIP3    H2 9328   5.515   4.479   4.458
 3108TIP3   OH2 9329   0.073   5.701   2.665
 3108TIP3    H1 9330  -0.009   5.652   2.657
 3108TIP3    H2 9331   0.118   5.685   2.582
 3109TIP3   OH2 9332   3.662   2.250   4.395
 3109TIP3    H1 9333   3.743   2.234   4.443
 3109TIP3    H2 9334   3.690   2.279   4.309
 3110TIP3   OH2 9335   0.088   4.885   0.806
 3110TIP3    H1 9336   0.068   4.792   0.799
 3110TIP3    H2 9337   0.055   4.911   0.892
 3111TIP3   OH2 9338   4.972   4.762   3.158
 3111TIP3    H1 9339   4.882   4.777   3.188
 3111TIP3    H2 9340   4.996   4.678   3.196
 3112TIP3   OH2 9341   0.286   0.495   4.998
 3112TIP3    H1 9342   0.292   0.565   4.933
 3112TIP3    H2 9343   0.262   0.417   4.948
 3113TIP3   OH2 9344   0.659   0.285   1.334
 3113TIP3    H1 9345   0.622   0.360   1.287
 3113TIP3    H2 9346   0.689   0.322   1.417
 3114TIP3   OH2 9347   5.225   5.844   3.053
 3114TIP3    H1 9348   5.185   5.873   3.135
 3114TIP3    H2 9349   5.241   5.751   3.066
 3115TIP3   OH2 9350   2.767   2.606   4.329
 3115TIP3    H1 9351   2.690   2.585   4.382
 3115TIP3    H2 9352   2.782   2.699   4.342
 3116TIP3   OH2 9353   0.444   4.461   0.875
 3116TIP3    H1 9354   0.511   4.516   0.916
 3116TIP3    H2 9355   0.477   4.445   0.787
 3117TIP3   OH2 9356   5.387   1.957   0.078
 3117TIP3    H1 9357   5.422   1.883   0.029
 3117TIP3    H2 9358   5.465   2.008   0.103
 3118TIP3   OH2 9359   3.336   4.345   1.037
 3118TIP3    H1 9360   3.310   4.292   0.962
 3118TIP3    H2 9361   3.378   4.283   1.097
 3119TIP3   OH2 9362   2.507   4.014   1.108
 3119TIP3    H1 9363   2.485   4.036   1.018
 3119TIP3    H2 9364   2.585   3.960   1.102
 3120TIP3   OH2 9365   5.952   2.908   3.642
 3120TIP3    H1 9366   5.934   3.001   3.652
 3120TIP3    H2 9367   5.999   2.884   3.722
 3121TIP3   OH2 9368   3.545   5.660   1.585
 3121TIP3    H1 9369   3.540   5.749   1.620
 3121TIP3    H2 9370   3.533   5.603   1.661
 3122TIP3   OH2 9371   0.122   3.207   1.473
 3122TIP3    H1 9372   0.169   3.124   1.467
 3122TIP3    H2 9373   0.032   3.181   1.497
 3123TIP3   OH2 9374   2.988   1.283   1.434
 3123TIP3    H1 9375   2.922   1.332   1.387
 3123TIP3    H2 9376   3.040   1.241   1.365
 3124TIP3   OH2 9377   4.828   0.249   1.640
 3124TIP3    H1 9378   4.920   0.225   1.650
 3124TIP3    H2 9379   4.780   0.175   1.676
 3125TIP3   OH2 9380   0.226   4.735   2.511
 3125TIP3    H1 9381   0.202   4.758   2.421
 3125TIP3    H2 9382   0.293   4.799   2.535
 3126TIP3   OH2 9383   0.390   4.005   2.399
 3126TIP3    H1 9384   0.445   4.072   2.359
 3126TIP3    H2 9385   0.302   4.021   2.364
 3127TIP3   OH2 9386   5.095   2.040   1.005
 3127TIP3    H1 9387   5.076   2.009   0.916
 3127TIP3    H2 9388   5.131   1.963   1.049
 3128TIP3   OH2 9389   1.019   3.241   3.070
 3128TIP3    H1 9390   0.959   3.283   3.132
 3128TIP3    H2 9391   1.070   3.180   3.123
 3129TIP3   OH2 9392   1.824   5.027   2.724
 3129TIP3    H1 9393   1.781   4.942   2.716
 3129TIP3    H2 9394   1.865   5.025   2.810
 3130TIP3   OH2 9395   4.968   1.292   2.588
 3130TIP3    H1 9396   4.876   1.298   2.615
 3130TIP3    H2 9397   4.990   1.382   2.562
 3131TIP3   OH2 9398   6.026   1.610   0.553
 3131TIP3    H1 9399   5.963   1.678   0.578
 3131TIP3    H2 9400   5.985   1.567   0.478
 3132TIP3   OH2 9401   2.671   5.257   2.703
 3132TIP3    H1 9402   2.609   5.185   2.693
 3132TIP3    H2 9403   2.714   5.263   2.617
 3133TIP3   OH2 9404   0.028   2.991   2.486
 3133TIP3    H1 9405   0.099   2.930   2.466
 3133TIP3    H2 9406  -0.052   2.944   2.459
 3134TIP3   OH2 9407   4.244   4.246   3.767
 3134TIP3    H1 9408   4.283   4.167   3.731
 3134TIP3    H2 9409   4.276   4.317   3.710
 3135TIP3   OH2 9410   3.886   3.422   3.474
 3135TIP3    H1 9411   3.899   3.349   3.413
 3135TIP3    H2 9412   3.906   3.386   3.560
 3136TIP3   OH2 9413   2.879   2.482   0.748
 3136TIP3    H1 9414   2.796   2.468   0.702
 3136TIP3    H2 9415   2.912   2.394   0.767
 3137TIP3   OH2 9416   5.057   0.569   2.302
 3137TIP3    H1 9417   5.000   0.645   2.287
 3137TIP3    H2 9418   5.033   0.507   2.233
 3138TIP3   OH2 9419   1.783   1.772   3.842
 3138TIP3    H1 9420   1.783   1.733   3.929
 3138TIP3    H2 9421   1.863   1.824   3.839
 3139TIP3   OH2 9422   0.159   3.626   3.534
 3139TIP3    H1 9423   0.252   3.609   3.518
 3139TIP3    H2 9424   0.135   3.562   3.601
 3140TIP3   OH2 9425   0.486   0.281  -0.038
 3140TIP3    H1 9426   0.397   0.276  -0.005
 3140TIP3    H2 9427   0.533   0.331   0.029
 3141TIP3   OH2 9428   2.818   1.076   0.207
 3141TIP3    H1 9429   2.902   1.120   0.196
 3141TIP3    H2 9430   2.841   0.986   0.231
 3142TIP3   OH2 9431   0.742   0.185   3.800
 3142TIP3    H1 9432   0.699   0.141   3.727
 3142TIP3    H2 9433   0.731   0.278   3.782
 3143TIP3   OH2 9434   5.124   0.189   2.779
 3143TIP3    H1 9435   5.043   0.224   2.743
 3143TIP3    H2 9436   5.172   0.157   2.703
 3144TIP3   OH2 9437   2.674   4.994   2.522
 3144TIP3    H1 9438   2.635   4.969   2.438
 3144TIP3    H2 9439   2.719   5.077   2.504
 3145TIP3   OH2 9440   0.756   5.547   1.939
 3145TIP3    H1 9441   0.822   5.564   1.871
 3145TIP3    H2 9442   0.684   5.607   1.918
 3146TIP3   OH2 9443   2.265   5.116   1.542
 3146TIP3    H1 9444   2.193   5.173   1.567
 3146TIP3    H2 9445   2.327   5.122   1.615
 3147TIP3   OH2 9446   2.973   1.650   4.838
 3147TIP3    H1 9447   2.916   1.686   4.906
 3147TIP3    H2 9448   2.921   1.578   4.800
 3148TIP3   OH2 9449   5.138   5.669   2.223
 3148TIP3    H1 9450   5.206   5.735   2.208
 3148TIP3    H2 9451   5.105   5.648   2.136
 3149TIP3   OH2 9452   2.928   4.204   4.822
 3149TIP3    H1 9453   2.878   4.162   4.892
 3149TIP3    H2 9454   2.929   4.140   4.751
 3150TIP3   OH2 9455   3.885   5.807   2.910
 3150TIP3    H1 9456   3.972   5.803   2.952
 3150TIP3    H2 9457   3.902   5.849   2.826
 3151TIP3   OH2 9458   6.119   1.424   1.286
 3151TIP3    H1 9459   6.132   1.494   1.349
 3151TIP3    H2 9460   6.048   1.371   1.323
 3152TIP3   OH2 9461   4.827   3.179   1.527
 3152TIP3    H1 9462   4.901   3.234   1.501
 3152TIP3    H2 9463   4.784   3.157   1.444
 3153TIP3   OH2 9464   0.057   0.681   4.206
 3153TIP3    H1 9465  -0.001   0.750   4.238
 3153TIP3    H2 9466   0.097   0.644   4.284
 3154TIP3   OH2 9467   4.163   5.430   3.644
 3154TIP3    H1 9468   4.196   5.452   3.557
 3154TIP3    H2 9469   4.242   5.416   3.697
 3155TIP3   OH2 9470   0.484   5.910   0.522
 3155TIP3    H1 9471   0.522   5.823   0.533
 3155TIP3    H2 9472   0.554   5.970   0.549
 3156TIP3   OH2 9473   1.359   4.667   2.323
 3156TIP3    H1 9474   1.263   4.669   2.316
 3156TIP3    H2 9475   1.386   4.755   2.300
 3157TIP3   OH2 9476   3.655   2.095   0.194
 3157TIP3    H1 9477   3.740   2.122   0.227
 3157TIP3    H2 9478   3.621   2.172   0.148
 3158TIP3   OH2 9479   3.196   0.834   0.221
 3158TIP3    H1 9480   3.212   0.809   0.312
 3158TIP3    H2 9481   3.179   0.752   0.176
 3159TIP3   OH2 9482   3.190   3.206   2.126
 3159TIP3    H1 9483   3.253   3.261   2.080
 3159TIP3    H2 9484   3.188   3.124   2.076
 3160TIP3   OH2 9485   2.267   5.561   0.699
 3160TIP3    H1 9486   2.305   5.648   0.710
 3160TIP3    H2 9487   2.291   5.535   0.610
 3161TIP3   OH2 9488   2.776   3.344   1.603
 3161TIP3    H1 9489   2.870   3.331   1.612
 3161TIP3    H2 9490   2.745   3.266   1.558
 3162TIP3   OH2 9491   0.962   0.072   0.229
 3162TIP3    H1 9492   1.032   0.137   0.219
 3162TIP3    H2 9493   0.943   0.043   0.140
 3163TIP3   OH2 9494   4.669   3.572   2.816
 3163TIP3    H1 9495   4.668   3.630   2.740
 3163TIP3    H2 9496   4.607   3.612   2.877
 3164TIP3   OH2 9497   4.145   5.789   2.295
 3164TIP3    H1 9498   4.135   5.722   2.227
 3164TIP3    H2 9499   4.138   5.740   2.377
 3165TIP3   OH2 9500   0.730   3.849   3.524
 3165TIP3    H1 9501   0.698   3.891   3.444
 3165TIP3    H2 9502   0.799   3.791   3.494
 3166TIP3   OH2 9503   0.705   3.508   3.415
 3166TIP3    H1 9504   0.792   3.546   3.416
 3166TIP3    H2 9505   0.712   3.431   3.358
 3167TIP3   OH2 9506   0.816   0.729   1.563
 3167TIP3    H1 9507   0.821   0.790   1.636
 3167TIP3    H2 9508   0.903   0.688   1.559
 3168TIP3   OH2 9509   3.787   5.885   4.020
 3168TIP3    H1 9510   3.775   5.957   3.958
 3168TIP3    H2 9511   3.719   5.822   3.996
 3169TIP3   OH2 9512   0.361   4.707   3.823
 3169TIP3    H1 9513   0.439   4.698   3.768
 3169TIP3    H2 9514   0.288   4.687   3.765
 3170TIP3   OH2 9515   3.131   3.290   4.999
 3170TIP3    H1 9516   3.225   3.305   5.010
 3170TIP3    H2 9517   3.121   3.267   4.907
 3171TIP3   OH2 9518   4.821   2.194   3.233
 3171TIP3    H1 9519   4.854   2.262   3.292
 3171TIP3    H2 9520   4.773   2.242   3.165
 3172TIP3   OH2 9521   0.808   2.611   0.757
 3172TIP3    H1 9522   0.841   2.535   0.709
 3172TIP3    H2 9523   0.717   2.590   0.775
 3173TIP3   OH2 9524   0.715   1.691   3.162
 3173TIP3    H1 9525   0.689   1.623   3.100
 3173TIP3    H2 9526   0.746   1.763   3.107
 3174TIP3   OH2 9527   5.089   3.766   3.611
 3174TIP3    H1 9528   5.070   3.672   3.604
 3174TIP3    H2 9529   5.185   3.770   3.614
 3175TIP3   OH2 9530   0.809   0.149   3.508
 3175TIP3    H1 9531   0.803   0.117   3.418
 3175TIP3    H2 9532   0.863   0.227   3.502
 3176TIP3   OH2 9533   4.817   5.682   3.921
 3176TIP3    H1 9534   4.758   5.751   3.891
 3176TIP3    H2 9535   4.846   5.711   4.007
 3177TIP3   OH2 9536   0.225   3.172   2.194
 3177TIP3    H1 9537   0.283   3.236   2.235
 3177TIP3    H2 9538   0.282   3.097   2.175
 3178TIP3   OH2 9539   3.164   1.101   3.673
 3178TIP3    H1 9540   3.109   1.172   3.640
 3178TIP3    H2 9541   3.175   1.119   3.766
 3179TIP3   OH2 9542   2.475   4.307   0.062
 3179TIP3    H1 9543   2.507   4.233   0.011
 3179TIP3    H2 9544   2.430   4.363  -0.003
 3180TIP3   OH2 9545   3.299   4.399   2.445
 3180TIP3    H1 9546   3.312   4.468   2.511
 3180TIP3    H2 9547   3.340   4.433   2.366
 3181TIP3   OH2 9548   4.355   5.477   1.975
 3181TIP3    H1 9549   4.448   5.471   1.954
 3181TIP3    H2 9550   4.312   5.421   1.911
 3182TIP3   OH2 9551   3.907   0.153   0.202
 3182TIP3    H1 9552   3.965   0.228   0.197
 3182TIP3    H2 9553   3.906   0.129   0.294
 3183TIP3   OH2 9554   0.427   5.530   1.006
 3183TIP3    H1 9555   0.520   5.510   1.001
 3183TIP3    H2 9556   0.395   5.516   0.917
 3184TIP3   OH2 9557   1.458   5.034   4.914
 3184TIP3    H1 9558   1.509   4.964   4.874
 3184TIP3    H2 9559   1.367   5.010   4.899
 3185TIP3   OH2 9560   4.321   0.442   0.599
 3185TIP3    H1 9561   4.230   0.458   0.574
 3185TIP3    H2 9562   4.372   0.498   0.540
 3186TIP3   OH2 9563   1.276   2.511   0.819
 3186TIP3    H1 9564   1.277   2.448   0.747
 3186TIP3    H2 9565   1.358   2.496   0.866
 3187TIP3   OH2 9566   4.647   1.745   4.601
 3187TIP3    H1 9567   4.589   1.693   4.545
 3187TIP3    H2 9568   4.614   1.730   4.690
 3188TIP3   OH2 9569   0.939   5.053   0.874
 3188TIP3    H1 9570   0.860   5.107   0.878
 3188TIP3    H2 9571   1.011   5.116   0.879
 3189TIP3   OH2 9572   6.031   3.584   0.401
 3189TIP3    H1 9573   5.967   3.648   0.370
 3189TIP3    H2 9574   6.115   3.630   0.399
 3190TIP3   OH2 9575   5.412   0.412   4.560
 3190TIP3    H1 9576   5.445   0.449   4.641
 3190TIP3    H2 9577   5.361   0.483   4.520
 3191TIP3   OH2 9578   4.512   2.658   1.201
 3191TIP3    H1 9579   4.597   2.702   1.208
 3191TIP3    H2 9580   4.453   2.711   1.254
 3192TIP3   OH2 9581   3.683   3.715   3.622
 3192TIP3    H1 9582   3.695   3.631   3.666
 3192TIP3    H2 9583   3.618   3.697   3.554
 3193TIP3   OH2 9584   3.919   5.388   1.619
 3193TIP3    H1 9585   3.884   5.353   1.701
 3193TIP3    H2 9586   3.947   5.311   1.570
 3194TIP3   OH2 9587   4.728   4.666   4.818
 3194TIP3    H1 9588   4.806   4.611   4.829
 3194TIP3    H2 9589   4.753   4.751   4.855
 3195TIP3   OH2 9590   1.733   5.152   1.695
 3195TIP3    H1 9591   1.686   5.079   1.736
 3195TIP3    H2 9592   1.800   5.176   1.759
 3196TIP3   OH2 9593   1.934   4.742   1.979
 3196TIP3    H1 9594   1.991   4.673   1.944
 3196TIP3    H2 9595   1.991   4.818   1.988
 3197TIP3   OH2 9596   5.602   2.495   0.816
 3197TIP3    H1 9597   5.550   2.499   0.896
 3197TIP3    H2 9598   5.686   2.533   0.840
 3198TIP3   OH2 9599   0.459   6.035   2.238
 3198TIP3    H1 9600   0.372   6.014   2.273
 3198TIP3    H2 9601   0.486   5.955   2.192
 3199TIP3   OH2 9602   2.240   2.713   0.452
 3199TIP3    H1 9603   2.179   2.786   0.463
 3199TIP3    H2 9604   2.236   2.665   0.534
 3200TIP3   OH2 9605   2.632   2.743   2.526
 3200TIP3    H1 9606   2.540   2.764   2.545
 3200TIP3    H2 9607   2.672   2.734   2.612
 3201TIP3   OH2 9608   0.993   4.782   0.755
 3201TIP3    H1 9609   0.940   4.850   0.798
 3201TIP3    H2 9610   1.032   4.733   0.828
 3202TIP3   OH2 9611   5.149   0.982   2.848
 3202TIP3    H1 9612   5.149   1.077   2.857
 3202TIP3    H2 9613   5.057   0.958   2.843
 3203TIP3   OH2 9614   1.971   3.510   0.217
 3203TIP3    H1 9615   1.885   3.468   0.215
 3203TIP3    H2 9616   1.973   3.564   0.139
 3204TIP3   OH2 9617   4.344   4.994   3.629
 3204TIP3    H1 9618   4.362   5.011   3.722
 3204TIP3    H2 9619   4.302   5.074   3.598
 3205TIP3   OH2 9620   4.080   4.993   1.708
 3205TIP3    H1 9621   4.077   5.018   1.800
 3205TIP3    H2 9622   4.128   4.910   1.707
 3206TIP3   OH2 9623   4.979   4.758   1.175
 3206TIP3    H1 9624   5.061   4.806   1.161
 3206TIP3    H2 9625   4.936   4.758   1.089
 3207TIP3   OH2 9626   1.910   0.498   1.626
 3207TIP3    H1 9627   1.964   0.577   1.633
 3207TIP3    H2 9628   1.888   0.493   1.533
 3208TIP3   OH2 9629   5.995   5.022   3.652
 3208TIP3    H1 9630   5.941   5.005   3.574
 3208TIP3    H2 9631   6.058   5.088   3.624
 3209TIP3   OH2 9632   2.690   1.469   0.570
 3209TIP3    H1 9633   2.641   1.457   0.488
 3209TIP3    H2 9634   2.770   1.419   0.558
 3210TIP3   OH2 9635   2.597   0.138   2.628
 3210TIP3    H1 9636   2.628   0.048   2.626
 3210TIP3    H2 9637   2.502   0.132   2.613
 3211TIP3   OH2 9638   2.382   0.818   3.181
 3211TIP3    H1 9639   2.347   0.870   3.254
 3211TIP3    H2 9640   2.375   0.727   3.210
 3212TIP3   OH2 9641   3.072   1.736   4.603
 3212TIP3    H1 9642   3.129   1.807   4.631
 3212TIP3    H2 9643   3.030   1.705   4.684
 3213TIP3   OH2 9644   6.217   4.207   2.599
 3213TIP3    H1 9645   6.176   4.171   2.677
 3213TIP3    H2 9646   6.307   4.224   2.624
 3214TIP3   OH2 9647   5.381   1.251   3.850
 3214TIP3    H1 9648   5.361   1.257   3.757
 3214TIP3    H2 9649   5.450   1.315   3.865
 3215TIP3   OH2 9650   2.883   0.215   1.632
 3215TIP3    H1 9651   2.901   0.249   1.720
 3215TIP3    H2 9652   2.811   0.154   1.644
 3216TIP3   OH2 9653   2.923   2.312   3.558
 3216TIP3    H1 9654   3.000   2.276   3.602
 3216TIP3    H2 9655   2.955   2.389   3.512
 3217TIP3   OH2 9656   6.248   4.654   2.331
 3217TIP3    H1 9657   6.194   4.620   2.402
 3217TIP3    H2 9658   6.184   4.685   2.266
 3218TIP3   OH2 9659   1.424   5.192   0.065
 3218TIP3    H1 9660   1.423   5.115   0.009
 3218TIP3    H2 9661   1.337   5.194   0.105
 3219TIP3   OH2 9662   1.826   2.697   5.077
 3219TIP3    H1 9663   1.839   2.686   5.171
 3219TIP3    H2 9664   1.749   2.643   5.057
 3220TIP3   OH2 9665   5.764   2.755   1.743
 3220TIP3    H1 9666   5.817   2.826   1.779
 3220TIP3    H2 9667   5.819   2.678   1.752
 3221TIP3   OH2 9668   5.549   3.113   4.895
 3221TIP3    H1 9669   5.475   3.124   4.836
 3221TIP3    H2 9670   5.512   3.071   4.972
 3222TIP3   OH2 9671   4.573   5.293   3.255
 3222TIP3    H1 9672   4.552   5.331   3.169
 3222TIP3    H2 9673   4.603   5.204   3.235
 3223TIP3   OH2 9674   5.107   1.251   5.068
 3223TIP3    H1 9675   5.099   1.331   5.121
 3223TIP3    H2 9676   5.191   1.260   5.023
 3224TIP3   OH2 9677   0.715   3.688   1.384
 3224TIP3    H1 9678   0.688   3.622   1.321
 3224TIP3    H2 9679   0.648   3.756   1.377
 3225TIP3   OH2 9680   1.916   4.572   2.975
 3225TIP3    H1 9681   1.998   4.603   2.936
 3225TIP3    H2 9682   1.923   4.597   3.067
 3226TIP3   OH2 9683   5.372   1.321   4.227
 3226TIP3    H1 9684   5.433   1.382   4.187
 3226TIP3    H2 9685   5.339   1.368   4.304
 3227TIP3   OH2 9686   5.243   2.894   5.167
 3227TIP3    H1 9687   5.191   2.819   5.137
 3227TIP3    H2 9688   5.183   2.969   5.157
 3228TIP3   OH2 9689   0.819   5.340   3.807
 3228TIP3    H1 9690   0.799   5.302   3.892
 3228TIP3    H2 9691   0.899   5.391   3.822
 3229TIP3   OH2 9692   1.613   4.299   3.214
 3229TIP3    H1 9693   1.574   4.382   3.243
 3229TIP3    H2 9694   1.706   4.308   3.232
 3230TIP3   OH2 9695   5.958   1.673   2.572
 3230TIP3    H1 9696   5.922   1.759   2.596
 3230TIP3    H2 9697   6.034   1.663   2.628
 3231TIP3   OH2 9698   3.800   4.550   2.127
 3231TIP3    H1 9699   3.846   4.472   2.098
 3231TIP3    H2 9700   3.710   4.537   2.097
 3232TIP3   OH2 9701   3.583   0.934   0.390
 3232TIP3    H1 9702   3.635   0.925   0.470
 3232TIP3    H2 9703   3.629   0.880   0.326
 3233TIP3   OH2 9704   2.443   5.941   5.022
 3233TIP3    H1 9705   2.535   5.944   4.996
 3233TIP3    H2 9706   2.399   6.001   4.961
 3234TIP3   OH2 9707   3.144   4.630   4.820
 3234TIP3    H1 9708   3.140   4.722   4.794
 3234TIP3    H2 9709   3.066   4.590   4.781
 3235TIP3   OH2 9710   3.060   0.112   4.773
 3235TIP3    H1 9711   3.035   0.204   4.786
 3235TIP3    H2 9712   3.155   0.112   4.778
 3236TIP3   OH2 9713   2.345   3.664   3.815
 3236TIP3    H1 9714   2.386   3.685   3.899
 3236TIP3    H2 9715   2.415   3.623   3.764
 3237TIP3   OH2 9716   2.710   3.174   3.911
 3237TIP3    H1 9717   2.800   3.205   3.895
 3237TIP3    H2 9718   2.678   3.151   3.824
 3238TIP3   OH2 9719   4.593   3.362   2.041
 3238TIP3    H1 9720   4.510   3.316   2.027
 3238TIP3    H2 9721   4.619   3.337   2.130
 3239TIP3   OH2 9722   2.843   1.579   4.364
 3239TIP3    H1 9723   2.766   1.608   4.315
 3239TIP3    H2 9724   2.917   1.605   4.310
 3240TIP3   OH2 9725   5.341   2.140   2.114
 3240TIP3    H1 9726   5.274   2.206   2.132
 3240TIP3    H2 9727   5.420   2.173   2.157
 3241TIP3   OH2 9728   3.711   0.726   3.572
 3241TIP3    H1 9729   3.628   0.758   3.537
 3241TIP3    H2 9730   3.750   0.803   3.614
 3242TIP3   OH2 9731   6.365   4.004   0.703
 3242TIP3    H1 9732   6.395   3.914   0.703
 3242TIP3    H2 9733   6.279   4.002   0.744
 3243TIP3   OH2 9734   5.906   1.773   3.708
 3243TIP3    H1 9735   5.994   1.735   3.712
 3243TIP3    H2 9736   5.920   1.867   3.719
 3244TIP3   OH2 9737   0.023   4.254   1.420
 3244TIP3    H1 9738   0.118   4.263   1.430
 3244TIP3    H2 9739  -0.004   4.204   1.497
 3245TIP3   OH2 9740   2.404   4.319   0.534
 3245TIP3    H1 9741   2.386   4.279   0.449
 3245TIP3    H2 9742   2.346   4.273   0.595
 3246TIP3   OH2 9743   0.435   5.317   4.857
 3246TIP3    H1 9744   0.483   5.400   4.857
 3246TIP3    H2 9745   0.373   5.326   4.785
 3247TIP3   OH2 9746   0.660   2.842   1.220
 3247TIP3    H1 9747   0.745   2.847   1.264
 3247TIP3    H2 9748   0.602   2.897   1.273
 3248TIP3   OH2 9749   2.841   0.315   2.978
 3248TIP3    H1 9750   2.917   0.366   3.002
 3248TIP3    H2 9751   2.875   0.227   2.963
 3249TIP3   OH2 9752   3.357   4.032   1.634
 3249TIP3    H1 9753   3.287   4.046   1.699
 3249TIP3    H2 9754   3.337   4.093   1.563
 3250TIP3   OH2 9755   4.279   2.848   3.471
 3250TIP3    H1 9756   4.363   2.892   3.487
 3250TIP3    H2 9757   4.291   2.760   3.508
 3251TIP3   OH2 9758   4.286   5.701   2.613
 3251TIP3    H1 9759   4.194   5.676   2.617
 3251TIP3    H2 9760   4.332   5.622   2.586
 3252TIP3   OH2 9761   3.840   0.074   4.179
 3252TIP3    H1 9762   3.863  -0.018   4.185
 3252TIP3    H2 9763   3.850   0.095   4.086
 3253TIP3   OH2 9764   4.905   5.716   2.412
 3253TIP3    H1 9765   4.820   5.685   2.380
 3253TIP3    H2 9766   4.952   5.743   2.333
 3254TIP3   OH2 9767   4.132   1.389   1.023
 3254TIP3    H1 9768   4.117   1.302   0.985
 3254TIP3    H2 9769   4.071   1.446   0.977
 3255TIP3   OH2 9770   2.299   5.381   1.067
 3255TIP3    H1 9771   2.278   5.288   1.066
 3255TIP3    H2 9772   2.221   5.424   1.032
 3256TIP3   OH2 9773   2.131   5.193   0.802
 3256TIP3    H1 9774   2.109   5.283   0.826
 3256TIP3    H2 9775   2.057   5.141   0.834
 3257TIP3   OH2 9776   4.621   5.091   4.806
 3257TIP3    H1 9777   4.669   5.042   4.872
 3257TIP3    H2 9778   4.577   5.161   4.854
 3258TIP3   OH2 9779   0.566   4.074   4.186
 3258TIP3    H1 9780   0.562   4.154   4.134
 3258TIP3    H2 9781   0.629   4.018   4.139
 3259TIP3   OH2 9782   5.285   2.240   0.248
 3259TIP3    H1 9783   5.368   2.216   0.209
 3259TIP3    H2 9784   5.296   2.222   0.341
 3260TIP3   OH2 9785   3.421   0.238   3.545
 3260TIP3    H1 9786   3.507   0.224   3.585
 3260TIP3    H2 9787   3.386   0.314   3.591
 3261TIP3   OH2 9788   1.156   4.308   4.859
 3261TIP3    H1 9789   1.122   4.395   4.880
 3261TIP3    H2 9790   1.247   4.310   4.890
 3262TIP3   OH2 9791   1.300   0.788   4.280
 3262TIP3    H1 9792   1.206   0.804   4.279
 3262TIP3    H2 9793   1.339   0.873   4.257
 3263TIP3   OH2 9794   0.876   5.647   1.673
 3263TIP3    H1 9795   0.963   5.663   1.710
 3263TIP3    H2 9796   0.890   5.577   1.609
 3264TIP3   OH2 9797   2.514   4.361   4.124
 3264TIP3    H1 9798   2.459   4.373   4.202
 3264TIP3    H2 9799   2.521   4.448   4.086
 3265TIP3   OH2 9800   3.885   4.301   2.812
 3265TIP3    H1 9801   3.891   4.290   2.717
 3265TIP3    H2 9802   3.800   4.343   2.826
 3266TIP3   OH2 9803   3.719   2.000   4.217
 3266TIP3    H1 9804   3.746   2.048   4.295
 3266TIP3    H2 9805   3.792   1.940   4.200
 3267TIP3   OH2 9806   4.769   4.306   1.291
 3267TIP3    H1 9807   4.861   4.318   1.267
 3267TIP3    H2 9808   4.760   4.212   1.308
 3268TIP3   OH2 9809   1.162   4.963   0.240
 3268TIP3    H1 9810   1.090   4.905   0.262
 3268TIP3    H2 9811   1.119   5.042   0.207
 3269TIP3   OH2 9812   5.996   4.969   0.181
 3269TIP3    H1 9813   6.042   4.889   0.208
 3269TIP3    H2 9814   5.926   4.979   0.244
 3270TIP3   OH2 9815   2.332   5.085   4.328
 3270TIP3    H1 9816   2.253   5.099   4.380
 3270TIP3    H2 9817   2.332   5.157   4.265
 3271TIP3   OH2 9818   1.841   1.679   4.457
 3271TIP3    H1 9819   1.786   1.733   4.400
 3271TIP3    H2 9820   1.796   1.679   4.541
 3272TIP3   OH2 9821   2.148   4.344   2.675
 3272TIP3    H1 9822   2.194   4.399   2.611
 3272TIP3    H2 9823   2.056   4.368   2.666
 3273TIP3   OH2 9824   0.811   1.111   3.789
 3273TIP3    H1 9825   0.744   1.047   3.812
 3273TIP3    H2 9826   0.802   1.180   3.855
 3274TIP3   OH2 9827   2.231   0.067   3.829
 3274TIP3    H1 9828   2.283   0.119   3.768
 3274TIP3    H2 9829   2.289   0.050   3.903
 3275TIP3   OH2 9830   4.326   6.003   4.370
 3275TIP3    H1 9831   4.328   5.907   4.361
 3275TIP3    H2 9832   4.233   6.025   4.371
 3276TIP3   OH2 9833   3.216   3.779   0.845
 3276TIP3    H1 9834   3.139   3.766   0.790
 3276TIP3    H2 9835   3.267   3.698   0.834
 3277TIP3   OH2 9836   1.786   1.579   3.293
 3277TIP3    H1 9837   1.730   1.654   3.272
 3277TIP3    H2 9838   1.816   1.546   3.208
 3278TIP3   OH2 9839   6.278   3.085   5.217
 3278TIP3    H1 9840   6.291   3.175   5.185
 3278TIP3    H2 9841   6.196   3.057   5.176
 3279TIP3   OH2 9842   2.616   3.613   3.276
 3279TIP3    H1 9843   2.562   3.690   3.294
 3279TIP3    H2 9844   2.698   3.629   3.323
 3280TIP3   OH2 9845   2.152   0.753   1.276
 3280TIP3    H1 9846   2.196   0.671   1.299
 3280TIP3    H2 9847   2.196   0.819   1.328
 3281TIP3   OH2 9848   0.619   4.518   1.185
 3281TIP3    H1 9849   0.594   4.438   1.138
 3281TIP3    H2 9850   0.544   4.537   1.241
 3282TIP3   OH2 9851   2.696   2.776   2.269
 3282TIP3    H1 9852   2.689   2.870   2.252
 3282TIP3    H2 9853   2.681   2.768   2.363
 3283TIP3   OH2 9854   1.236   3.604   4.006
 3283TIP3    H1 9855   1.240   3.588   3.912
 3283TIP3    H2 9856   1.311   3.556   4.042
 3284TIP3   OH2 9857   0.330   4.862   0.208
 3284TIP3    H1 9858   0.334   4.767   0.222
 3284TIP3    H2 9859   0.284   4.872   0.125
 3285TIP3   OH2 9860   4.347   4.323   2.136
 3285TIP3    H1 9861   4.326   4.253   2.073
 3285TIP3    H2 9862   4.433   4.298   2.171
 3286TIP3   OH2 9863   2.790   0.144   3.246
 3286TIP3    H1 9864   2.818   0.229   3.212
 3286TIP3    H2 9865   2.697   0.140   3.226
 3287TIP3   OH2 9866   3.794   3.787   4.484
 3287TIP3    H1 9867   3.745   3.754   4.409
 3287TIP3    H2 9868   3.880   3.809   4.449
 3288TIP3   OH2 9869   5.892   2.967   2.945
 3288TIP3    H1 9870   5.936   2.898   2.895
 3288TIP3    H2 9871   5.954   3.040   2.944
 3289TIP3   OH2 9872   1.520   3.961   3.363
 3289TIP3    H1 9873   1.582   3.888   3.366
 3289TIP3    H2 9874   1.519   3.987   3.271
 3290TIP3   OH2 9875   5.329   0.958   2.650
 3290TIP3    H1 9876   5.340   1.047   2.615
 3290TIP3    H2 9877   5.263   0.968   2.718
 3291TIP3   OH2 9878   0.522   5.949   5.041
 3291TIP3    H1 9879   0.489   5.949   5.131
 3291TIP3    H2 9880   0.599   5.893   5.044
 3292TIP3   OH2 9881   0.186   5.591   2.889
 3292TIP3    H1 9882   0.129   5.522   2.923
 3292TIP3    H2 9883   0.131   5.638   2.826
 3293TIP3   OH2 9884   1.845   4.274   2.142
 3293TIP3    H1 9885   1.818   4.325   2.065
 3293TIP3    H2 9886   1.765   4.263   2.193
 3294TIP3   OH2 9887   6.058   3.906   2.033
 3294TIP3    H1 9888   6.065   3.893   1.938
 3294TIP3    H2 9889   6.133   3.859   2.069
 3295TIP3   OH2 9890   3.923   3.750   5.141
 3295TIP3    H1 9891   3.944   3.843   5.139
 3295TIP3    H2 9892   3.971   3.716   5.216
 3296TIP3   OH2 9893   1.523   5.661   0.075
 3296TIP3    H1 9894   1.520   5.692   0.166
 3296TIP3    H2 9895   1.434   5.630   0.058
 3297TIP3   OH2 9896   4.434   1.606   3.532
 3297TIP3    H1 9897   4.351   1.611   3.579
 3297TIP3    H2 9898   4.496   1.569   3.595
 3298TIP3   OH2 9899   3.419   4.010   0.709
 3298TIP3    H1 9900   3.350   3.963   0.662
 3298TIP3    H2 9901   3.460   4.066   0.643
 3299TIP3   OH2 9902   5.433   0.349   1.091
 3299TIP3    H1 9903   5.522   0.333   1.061
 3299TIP3    H2 9904   5.436   0.433   1.136
 3300TIP3   OH2 9905   2.179   1.199   3.148
 3300TIP3    H1 9906   2.118   1.151   3.204
 3300TIP3    H2 9907   2.244   1.235   3.208
 3301TIP3   OH2 9908   4.893   5.839   0.210
 3301TIP3    H1 9909   4.926   5.845   0.300
 3301TIP3    H2 9910   4.964   5.876   0.156
 3302TIP3   OH2 9911   3.317   1.181   3.188
 3302TIP3    H1 9912   3.329   1.267   3.148
 3302TIP3    H2 9913   3.334   1.194   3.281
 3303TIP3   OH2 9914   4.010   1.957   4.196
 3303TIP3    H1 9915   4.058   2.028   4.239
 3303TIP3    H2 9916   3.989   1.992   4.109
 3304TIP3   OH2 9917   4.463   5.788   1.526
 3304TIP3    H1 9918   4.531   5.848   1.557
 3304TIP3    H2 9919   4.414   5.839   1.462
 3305TIP3   OH2 9920   1.772   1.846   2.937
 3305TIP3    H1 9921   1.678   1.861   2.950
 3305TIP3    H2 9922   1.814   1.895   3.008
 3306TIP3   OH2 9923   4.931   3.322   0.302
 3306TIP3    H1 9924   4.937   3.232   0.271
 3306TIP3    H2 9925   4.910   3.314   0.395
 3307TIP3   OH2 9926   3.518   3.212   4.480
 3307TIP3    H1 9927   3.498   3.164   4.400
 3307TIP3    H2 9928   3.558   3.147   4.538
 3308TIP3   OH2 9929   5.518   5.764   1.024
 3308TIP3    H1 9930   5.536   5.733   1.113
 3308TIP3    H2 9931   5.463   5.695   0.985
 3309TIP3   OH2 9932   4.023   3.535   2.485
 3309TIP3    H1 9933   4.024   3.546   2.390
 3309TIP3    H2 9934   4.110   3.502   2.507
 3310TIP3   OH2 9935   4.958   0.857   0.015
 3310TIP3    H1 9936   4.871   0.821   0.028
 3310TIP3    H2 9937   4.969   0.920   0.086
 3311TIP3   OH2 9938   6.312   3.608   1.090
 3311TIP3    H1 9939   6.329   3.526   1.137
 3311TIP3    H2 9940   6.217   3.613   1.085
 3312TIP3   OH2 9941   0.829   1.046   1.017
 3312TIP3    H1 9942   0.889   0.986   0.973
 3312TIP3    H2 9943   0.819   1.119   0.957
 3313TIP3   OH2 9944   5.119   5.963   0.699
 3313TIP3    H1 9945   5.143   6.043   0.746
 3313TIP3    H2 9946   5.125   5.894   0.764
 3314TIP3   OH2 9947   2.054   2.806   3.278
 3314TIP3    H1 9948   2.093   2.838   3.359
 3314TIP3    H2 9949   2.079   2.871   3.212
 3315TIP3   OH2 9950   5.859   1.233   2.001
 3315TIP3    H1 9951   5.830   1.248   2.091
 3315TIP3    H2 9952   5.923   1.162   2.008
 3316TIP3   OH2 9953   3.056   3.949   1.142
 3316TIP3    H1 9954   2.984   3.984   1.195
 3316TIP3    H2 9955   3.127   3.936   1.204
 3317TIP3   OH2 9956   4.671   1.237   0.465
 3317TIP3    H1 9957   4.755   1.215   0.505
 3317TIP3    H2 9958   4.688   1.319   0.418
 3318TIP3   OH2 9959   1.377   4.709   3.536
 3318TIP3    H1 9960   1.396   4.740   3.625
 3318TIP3    H2 9961   1.316   4.637   3.548
 3319TIP3   OH2 9962   2.609   4.658   2.366
 3319TIP3    H1 9963   2.647   4.722   2.307
 3319TIP3    H2 9964   2.518   4.649   2.338
 3320TIP3   OH2 9965   0.947   3.692   3.438
 3320TIP3    H1 9966   0.986   3.637   3.370
 3320TIP3    H2 9967   0.963   3.644   3.519
 3321TIP3   OH2 9968   3.155   0.521   1.146
 3321TIP3    H1 9969   3.189   0.557   1.228
 3321TIP3    H2 9970   3.061   0.509   1.162
 3322TIP3   OH2 9971   2.594   2.767   0.354
 3322TIP3    H1 9972   2.611   2.784   0.447
 3322TIP3    H2 9973   2.531   2.695   0.354
 3323TIP3   OH2 9974   5.786   2.125   1.216
 3323TIP3    H1 9975   5.736   2.206   1.228
 3323TIP3    H2 9976   5.766   2.098   1.126
 3324TIP3   OH2 9977   0.718   3.325   4.497
 3324TIP3    H1 9978   0.637   3.306   4.545
 3324TIP3    H2 9979   0.746   3.411   4.530
 3325TIP3   OH2 9980   2.114   1.015   4.572
 3325TIP3    H1 9981   2.084   0.974   4.653
 3325TIP3    H2 9982   2.059   0.977   4.504
 3326TIP3   OH2 9983   4.349   1.232   0.092
 3326TIP3    H1 9984   4.259   1.242   0.125
 3326TIP3    H2 9985   4.404   1.268   0.162
 3327TIP3   OH2 9986   3.289   0.133   3.206
 3327TIP3    H1 9987   3.215   0.162   3.260
 3327TIP3    H2 9988   3.270   0.167   3.119
 3328TIP3   OH2 9989   5.561   3.494   0.925
 3328TIP3    H1 9990   5.586   3.586   0.934
 3328TIP3    H2 9991   5.536   3.485   0.833
 3329TIP3   OH2 9992   4.957   3.562   2.119
 3329TIP3    H1 9993   5.030   3.552   2.058
 3329TIP3    H2 9994   4.895   3.619   2.072
 3330TIP3   OH2 9995   5.121   3.561   0.594
 3330TIP3    H1 9996   5.110   3.518   0.679
 3330TIP3    H2 9997   5.041   3.613   0.583
 3331TIP3   OH2 9998   2.178   4.712   2.680
 3331TIP3    H1 9999   2.248   4.648   2.690
 3331TIP3    H210000   2.108   4.665   2.635
 3332TIP3   OH210001   1.709   3.662   0.800
 3332TIP3    H110002   1.796   3.625   0.816
 3332TIP3    H210003   1.688   3.710   0.880
 3333TIP3   OH210004   3.035   5.086   5.084
 3333TIP3    H110005   2.955   5.138   5.087
 3333TIP3    H210006   3.034   5.046   4.997
 3334TIP3   OH210007   5.028   5.491   3.018
 3334TIP3    H110008   5.050   5.404   3.050
 3334TIP3    H210009   5.005   5.479   2.926
 3335TIP3   OH210010   6.008   0.412   4.944
 3335TIP3    H110011   6.101   0.431   4.957
 3335TIP3    H210012   5.963   0.489   4.978
 3336TIP3   OH210013   6.373   4.238   0.184
 3336TIP3    H110014   6.286   4.218   0.150
 3336TIP3    H210015   6.382   4.183   0.261
 3337TIP3   OH210016   5.646   5.956   0.483
 3337TIP3    H110017   5.683   5.872   0.511
 3337TIP3    H210018   5.642   6.008   0.563
 3338TIP3   OH210019   4.539   1.358   1.659
 3338TIP3    H110020   4.602   1.405   1.605
 3338TIP3    H210021   4.540   1.269   1.625
 3339TIP3   OH210022   3.406   0.993   3.775
 3339TIP3    H110023   3.318   1.019   3.749
 3339TIP3    H210024   3.455   0.990   3.693
 3340TIP3   OH210025   2.450   3.776   0.118
 3340TIP3    H110026   2.512   3.847   0.133
 3340TIP3    H210027   2.503   3.704   0.084
 3341TIP3   OH210028   3.177   3.305   0.551
 3341TIP3    H110029   3.130   3.242   0.607
 3341TIP3    H210030   3.256   3.326   0.601
 3342TIP3   OH210031   5.214   5.340   1.696
 3342TIP3    H110032   5.215   5.434   1.677
 3342TIP3    H210033   5.126   5.323   1.730
 3343TIP3   OH210034   3.824   5.868   5.127
 3343TIP3    H110035   3.776   5.793   5.162
 3343TIP3    H210036   3.789   5.879   5.038
 3344TIP3   OH210037   3.277   2.360   1.023
 3344TIP3    H110038   3.310   2.447   1.046
 3344TIP3    H210039   3.278   2.358   0.928
 3345TIP3   OH210040   1.631   0.104   3.458
 3345TIP3    H110041   1.582   0.039   3.408
 3345TIP3    H210042   1.572   0.179   3.463
 3346TIP3   OH210043   1.789   3.110   0.604
 3346TIP3    H110044   1.762   3.039   0.662
 3346TIP3    H210045   1.708   3.140   0.563
 3347TIP3   OH210046   6.307   2.016   3.753
 3347TIP3    H110047   6.229   2.071   3.757
 3347TIP3    H210048   6.352   2.032   3.836
 3348TIP3   OH210049   5.318   2.970   1.948
 3348TIP3    H110050   5.253   2.976   1.878
 3348TIP3    H210051   5.287   3.030   2.016
 3349TIP3   OH210052   4.280   0.078   0.265
 3349TIP3    H110053   4.355   0.121   0.223
 3349TIP3    H210054   4.219   0.063   0.193
 3350TIP3   OH210055   4.925   4.667   1.650
 3350TIP3    H110056   4.868   4.603   1.609
 3350TIP3    H210057   5.000   4.674   1.592
 3351TIP3   OH210058   2.798   2.509   2.536
 3351TIP3    H110059   2.837   2.488   2.451
 3351TIP3    H210060   2.727   2.570   2.515
 3352TIP3   OH210061   1.563   2.348   3.401
 3352TIP3    H110062   1.535   2.300   3.324
 3352TIP3    H210063   1.602   2.282   3.458
 3353TIP3   OH210064   4.392   4.976   0.176
 3353TIP3    H110065   4.432   5.017   0.099
 3353TIP3    H210066   4.309   4.941   0.144
 3354TIP3   OH210067   5.394   1.657   2.913
 3354TIP3    H110068   5.435   1.697   2.836
 3354TIP3    H210069   5.429   1.567   2.914
 3355TIP3   OH210070   4.678   5.984   1.923
 3355TIP3    H110071   4.682   5.942   2.008
 3355TIP3    H210072   4.705   6.074   1.939
 3356TIP3   OH210073   1.865   5.925   2.841
 3356TIP3    H110074   1.922   5.860   2.882
 3356TIP3    H210075   1.920   5.965   2.773
 3357TIP3   OH210076   1.435   3.605   4.755
 3357TIP3    H110077   1.343   3.597   4.730
 3357TIP3    H210078   1.483   3.590   4.674
 3358TIP3   OH210079   5.377   4.793   1.672
 3358TIP3    H110080   5.379   4.889   1.675
 3358TIP3    H210081   5.406   4.772   1.583
 3359TIP3   OH210082   1.963   0.948   2.592
 3359TIP3    H110083   1.911   0.867   2.598
 3359TIP3    H210084   2.008   0.952   2.676
 3360TIP3   OH210085   5.174   5.269   4.754
 3360TIP3    H110086   5.199   5.180   4.726
 3360TIP3    H210087   5.094   5.287   4.705
 3361TIP3   OH210088   1.819   4.306   3.982
 3361TIP3    H110089   1.740   4.359   3.987
 3361TIP3    H210090   1.792   4.228   3.933
 3362TIP3   OH210091   3.349   4.100   0.011
 3362TIP3    H110092   3.266   4.082   0.054
 3362TIP3    H210093   3.333   4.181  -0.038
 3363TIP3   OH210094   1.270   5.085   2.215
 3363TIP3    H110095   1.250   5.088   2.122
 3363TIP3    H210096   1.361   5.116   2.221
 3364TIP3   OH210097   3.303   5.076   3.301
 3364TIP3    H110098   3.272   5.134   3.231
 3364TIP3    H210099   3.237   5.084   3.370
 3365TIP3   OH210100   4.238   2.414   3.804
 3365TIP3    H110101   4.310   2.462   3.844
 3365TIP3    H210102   4.266   2.323   3.804
 3366TIP3   OH210103   1.012   4.507   1.110
 3366TIP3    H110104   0.947   4.510   1.040
 3366TIP3    H210105   1.054   4.421   1.100
 3367TIP3   OH210106   5.578   5.632   0.425
 3367TIP3    H110107   5.547   5.717   0.395
 3367TIP3    H210108   5.523   5.568   0.379
 3368TIP3   OH210109   5.217   4.162   2.670
 3368TIP3    H110110   5.278   4.218   2.622
 3368TIP3    H210111   5.137   4.214   2.678
 3369TIP3   OH210112   5.675   2.741   0.204
 3369TIP3    H110113   5.640   2.653   0.194
 3369TIP3    H210114   5.770   2.728   0.215
 3370TIP3   OH210115   6.205   2.596   0.152
 3370TIP3    H110116   6.260   2.675   0.148
 3370TIP3    H210117   6.120   2.628   0.180
 3371TIP3   OH210118   0.259   2.461   2.609
 3371TIP3    H110119   0.267   2.526   2.539
 3371TIP3    H210120   0.338   2.407   2.601
 3372TIP3   OH210121   0.607   4.391   2.910
 3372TIP3    H110122   0.547   4.346   2.970
 3372TIP3    H210123   0.663   4.322   2.875
 3373TIP3   OH210124   6.074   0.389   2.456
 3373TIP3    H110125   6.122   0.468   2.480
 3373TIP3    H210126   6.142   0.323   2.443
 3374TIP3   OH210127   2.246   5.452   4.799
 3374TIP3    H110128   2.261   5.372   4.749
 3374TIP3    H210129   2.151   5.453   4.814
 3375TIP3   OH210130   4.780   2.903   0.718
 3375TIP3    H110131   4.840   2.959   0.767
 3375TIP3    H210132   4.703   2.895   0.774
 3376TIP3   OH210133   4.839   3.145   1.942
 3376TIP3    H110134   4.874   3.166   2.029
 3376TIP3    H210135   4.821   3.230   1.902
 3377TIP3   OH210136   3.516   0.550   0.285
 3377TIP3    H110137   3.594   0.540   0.339
 3377TIP3    H210138   3.498   0.462   0.252
 3378TIP3   OH210139   5.486   1.683   0.727
 3378TIP3    H110140   5.484   1.721   0.814
 3378TIP3    H210141   5.458   1.754   0.669
 3379TIP3   OH210142   3.589   5.270   3.154
 3379TIP3    H110143   3.504   5.314   3.153
 3379TIP3    H210144   3.572   5.183   3.118
 3380TIP3   OH210145   5.150   0.594   1.072
 3380TIP3    H110146   5.062   0.624   1.047
 3380TIP3    H210147   5.173   0.531   1.005
 3381TIP3   OH210148   4.115   3.859   1.223
 3381TIP3    H110149   4.203   3.882   1.192
 3381TIP3    H210150   4.062   3.936   1.205
 3382TIP3   OH210151   1.637   0.851   0.231
 3382TIP3    H110152   1.608   0.899   0.153
 3382TIP3    H210153   1.729   0.876   0.241
 3383TIP3   OH210154   0.100   4.743   4.328
 3383TIP3    H110155   0.133   4.733   4.418
 3383TIP3    H210156   0.042   4.819   4.333
 3384TIP3   OH210157   0.261   2.564   0.771
 3384TIP3    H110158   0.286   2.649   0.807
 3384TIP3    H210159   0.172   2.549   0.803
 3385TIP3   OH210160   4.540   2.982   0.454
 3385TIP3    H110161   4.481   2.978   0.529
 3385TIP3    H210162   4.564   2.891   0.437
 3386TIP3   OH210163   3.134   0.352   4.600
 3386TIP3    H110164   3.042   0.327   4.586
 3386TIP3    H210165   3.179   0.321   4.521
 3387TIP3   OH210166   4.559   4.112   1.195
 3387TIP3    H110167   4.516   4.190   1.158
 3387TIP3    H210168   4.600   4.143   1.275
 3388TIP3   OH210169   3.899   4.968   3.160
 3388TIP3    H110170   3.858   4.921   3.232
 3388TIP3    H210171   3.895   5.060   3.186
 3389TIP3   OH210172   1.071   1.695   1.343
 3389TIP3    H110173   1.121   1.731   1.270
 3389TIP3    H210174   1.123   1.622   1.375
 3390TIP3   OH210175   1.443   3.636   1.386
 3390TIP3    H110176   1.363   3.681   1.360
 3390TIP3    H210177   1.418   3.585   1.462
 3391TIP3   OH210178   1.792   3.969   0.909
 3391TIP3    H110179   1.706   3.991   0.944
 3391TIP3    H210180   1.814   3.886   0.950
 3392TIP3   OH210181   1.168   5.625   1.710
 3392TIP3    H110182   1.213   5.671   1.782
 3392TIP3    H210183   1.232   5.623   1.639
 3393TIP3   OH210184   0.960   5.808   4.289
 3393TIP3    H110185   0.893   5.793   4.222
 3393TIP3    H210186   0.939   5.895   4.324
 3394TIP3   OH210187   5.659   0.158   0.605
 3394TIP3    H110188   5.657   0.076   0.653
 3394TIP3    H210189   5.750   0.168   0.578
 3395TIP3   OH210190   2.747   1.603   3.856
 3395TIP3    H110191   2.768   1.620   3.764
 3395TIP3    H210192   2.668   1.656   3.872
 3396TIP3   OH210193   6.209   2.163   2.828
 3396TIP3    H110194   6.285   2.120   2.789
 3396TIP3    H210195   6.216   2.144   2.922
 3397TIP3   OH210196   5.603   2.545   1.707
 3397TIP3    H110197   5.639   2.631   1.727
 3397TIP3    H210198   5.645   2.486   1.769
 3398TIP3   OH210199   4.016   2.850   3.859
 3398TIP3    H110200   3.930   2.863   3.820
 3398TIP3    H210201   4.071   2.917   3.819
 3399TIP3   OH210202   2.621   5.079   0.236
 3399TIP3    H110203   2.667   5.157   0.267
 3399TIP3    H210204   2.657   5.007   0.288
 3400TIP3   OH210205   3.828   3.570   2.739
 3400TIP3    H110206   3.824   3.629   2.815
 3400TIP3    H210207   3.737   3.561   2.711
 3401TIP3   OH210208   4.357   4.700   0.717
 3401TIP3    H110209   4.367   4.605   0.713
 3401TIP3    H210210   4.410   4.726   0.793
 3402TIP3   OH210211   2.721   3.816   4.599
 3402TIP3    H110212   2.699   3.908   4.589
 3402TIP3    H210213   2.636   3.771   4.597
 3403TIP3   OH210214   4.713   3.582   1.931
 3403TIP3    H110215   4.763   3.523   1.873
 3403TIP3    H210216   4.673   3.523   1.995
 3404TIP3   OH210217   1.249   3.222   4.555
 3404TIP3    H110218   1.163   3.245   4.518
 3404TIP3    H210219   1.249   3.262   4.642
 3405TIP3   OH210220   1.055   1.290   0.007
 3405TIP3    H110221   0.986   1.284   0.074
 3405TIP3    H210222   1.075   1.384   0.002
 3406TIP3   OH210223   5.566   2.448   1.456
 3406TIP3    H110224   5.596   2.470   1.544
 3406TIP3    H210225   5.515   2.525   1.429
 3407TIP3   OH210226   1.716   0.824   0.838
 3407TIP3    H110227   1.667   0.803   0.917
 3407TIP3    H210228   1.650   0.853   0.776
 3408TIP3   OH210229   5.655   2.377   1.197
 3408TIP3    H110230   5.605   2.444   1.150
 3408TIP3    H210231   5.650   2.403   1.289
 3409TIP3   OH210232   0.860   4.031   0.349
 3409TIP3    H110233   0.815   3.950   0.376
 3409TIP3    H210234   0.790   4.086   0.313
 3410TIP3   OH210235   2.896   3.238   2.096
 3410TIP3    H110236   2.982   3.195   2.092
 3410TIP3    H210237   2.915   3.329   2.072
 3411TIP3   OH210238   5.498   1.724   4.049
 3411TIP3    H110239   5.541   1.704   3.965
 3411TIP3    H210240   5.427   1.783   4.025
 3412TIP3   OH210241   2.615   1.532   1.642
 3412TIP3    H110242   2.567   1.613   1.658
 3412TIP3    H210243   2.677   1.554   1.573
 3413TIP3   OH210244   3.855   0.872   4.621
 3413TIP3    H110245   3.932   0.902   4.573
 3413TIP3    H210246   3.785   0.873   4.556
 3414TIP3   OH210247   1.179   3.116   2.502
 3414TIP3    H110248   1.267   3.152   2.508
 3414TIP3    H210249   1.171   3.060   2.579
 3415TIP3   OH210250   3.649   4.817   1.891
 3415TIP3    H110251   3.634   4.753   1.822
 3415TIP3    H210252   3.599   4.894   1.864
 3416TIP3   OH210253   1.203   3.781   3.119
 3416TIP3    H110254   1.248   3.821   3.045
 3416TIP3    H210255   1.121   3.830   3.126
 3417TIP3   OH210256   1.319   5.754   1.064
 3417TIP3    H110257   1.346   5.792   1.148
 3417TIP3    H210258   1.351   5.664   1.068
 3418TIP3   OH210259   6.228   0.156   2.409
 3418TIP3    H110260   6.155   0.111   2.450
 3418TIP3    H210261   6.305   0.104   2.432
 3419TIP3   OH210262   5.026   3.744   2.633
 3419TIP3    H110263   5.097   3.808   2.624
 3419TIP3    H210264   5.067   3.669   2.677
 3420TIP3   OH210265   3.015   1.769   1.303
 3420TIP3    H110266   3.007   1.864   1.290
 3420TIP3    H210267   2.959   1.730   1.235
 3421TIP3   OH210268   0.051   3.959   3.831
 3421TIP3    H110269   0.004   3.959   3.747
 3421TIP3    H210270   0.142   3.945   3.806
 3422TIP3   OH210271   5.808   3.147   1.084
 3422TIP3    H110272   5.801   3.130   0.990
 3422TIP3    H210273   5.781   3.239   1.094
 3423TIP3   OH210274   2.981   0.738   1.022
 3423TIP3    H110275   2.913   0.794   1.059
 3423TIP3    H210276   3.039   0.719   1.096
 3424TIP3   OH210277   5.752   4.987   1.212
 3424TIP3    H110278   5.726   5.074   1.181
 3424TIP3    H210279   5.715   4.982   1.301
 3425TIP3   OH210280   1.091   4.338   0.068
 3425TIP3    H110281   1.077   4.298   0.154
 3425TIP3    H210282   1.159   4.285   0.028
 3426TIP3   OH210283   0.536   5.203   2.332
 3426TIP3    H110284   0.520   5.194   2.238
 3426TIP3    H210285   0.451   5.186   2.373
 3427TIP3   OH210286   5.574   1.681   1.661
 3427TIP3    H110287   5.507   1.745   1.685
 3427TIP3    H210288   5.652   1.709   1.709
 3428TIP3   OH210289   5.289   5.624   4.290
 3428TIP3    H110290   5.235   5.575   4.228
 3428TIP3    H210291   5.297   5.711   4.252
 3429TIP3   OH210292   2.956   5.360   2.827
 3429TIP3    H110293   3.003   5.368   2.744
 3429TIP3    H210294   2.866   5.386   2.806
 3430TIP3   OH210295   3.198   0.249   4.316
 3430TIP3    H110296   3.134   0.297   4.263
 3430TIP3    H210297   3.283   0.274   4.279
 3431TIP3   OH210298   2.352   3.222   3.418
 3431TIP3    H110299   2.313   3.201   3.503
 3431TIP3    H210300   2.368   3.137   3.377
 3432TIP3   OH210301   2.298   4.147   3.734
 3432TIP3    H110302   2.278   4.110   3.819
 3432TIP3    H210303   2.229   4.212   3.719
 3433TIP3   OH210304   2.793   5.229   2.444
 3433TIP3    H110305   2.846   5.170   2.389
 3433TIP3    H210306   2.826   5.316   2.423
 3434TIP3   OH210307   3.372   5.630   2.558
 3434TIP3    H110308   3.325   5.572   2.618
 3434TIP3    H210309   3.304   5.683   2.516
 3435TIP3   OH210310   5.184   1.877   2.796
 3435TIP3    H110311   5.142   1.938   2.735
 3435TIP3    H210312   5.133   1.796   2.789
 3436TIP3   OH210313   2.907   5.101   4.539
 3436TIP3    H110314   2.952   5.040   4.480
 3436TIP3    H210315   2.814   5.089   4.518
 3437TIP3   OH210316   0.144   3.432   3.716
 3437TIP3    H110317   0.182   3.351   3.683
 3437TIP3    H210318   0.070   3.405   3.769
 3438TIP3   OH210319   0.143   5.225   0.744
 3438TIP3    H110320   0.048   5.222   0.759
 3438TIP3    H210321   0.180   5.242   0.831
 3439TIP3   OH210322   3.539   0.699   1.560
 3439TIP3    H110323   3.593   0.667   1.632
 3439TIP3    H210324   3.517   0.789   1.585
 3440TIP3   OH210325   5.752   0.985   4.135
 3440TIP3    H110326   5.745   0.972   4.040
 3440TIP3    H210327   5.672   1.033   4.159
 3441TIP3   OH210328   0.423   2.875   2.411
 3441TIP3    H110329   0.506   2.841   2.377
 3441TIP3    H210330   0.427   2.860   2.505
 3442TIP3   OH210331   0.414   0.534   1.409
 3442TIP3    H110332   0.427   0.484   1.490
 3442TIP3    H210333   0.342   0.490   1.364
 3443TIP3   OH210334   3.401   0.713   4.589
 3443TIP3    H110335   3.416   0.805   4.612
 3443TIP3    H210336   3.488   0.679   4.568
 3444TIP3   OH210337   1.534   2.811   3.888
 3444TIP3    H110338   1.610   2.761   3.917
 3444TIP3    H210339   1.475   2.810   3.963
 3445TIP3   OH210340   4.229   1.415   4.102
 3445TIP3    H110341   4.300   1.376   4.154
 3445TIP3    H210342   4.248   1.390   4.012
 3446TIP3   OH210343   4.004   1.839   0.835
 3446TIP3    H110344   4.049   1.923   0.833
 3446TIP3    H210345   4.060   1.780   0.784
 3447TIP3   OH210346   4.419   5.247   0.261
 3447TIP3    H110347   4.408   5.153   0.251
 3447TIP3    H210348   4.422   5.281   0.171
 3448TIP3   OH210349   1.360   2.694   2.481
 3448TIP3    H110350   1.324   2.642   2.553
 3448TIP3    H210351   1.383   2.778   2.522
 3449TIP3   OH210352   2.252   2.499   2.224
 3449TIP3    H110353   2.308   2.430   2.261
 3449TIP3    H210354   2.265   2.493   2.130
 3450TIP3   OH210355   3.229   5.389   0.752
 3450TIP3    H110356   3.262   5.439   0.827
 3450TIP3    H210357   3.281   5.419   0.678
 3451TIP3   OH210358   6.098   5.668   4.129
 3451TIP3    H110359   6.141   5.738   4.080
 3451TIP3    H210360   6.004   5.681   4.113
 3452TIP3   OH210361   5.521   3.815   1.532
 3452TIP3    H110362   5.568   3.780   1.608
 3452TIP3    H210363   5.588   3.859   1.480
 3453TIP3   OH210364   1.092   1.030   4.252
 3453TIP3    H110365   1.050   1.114   4.237
 3453TIP3    H210366   1.085   0.984   4.168
 3454TIP3   OH210367   3.542   0.144   1.948
 3454TIP3    H110368   3.537   0.076   1.881
 3454TIP3    H210369   3.511   0.100   2.028
 3455TIP3   OH210370   2.893   3.131   0.330
 3455TIP3    H110371   2.860   3.048   0.297
 3455TIP3    H210372   2.953   3.162   0.262
 3456TIP3   OH210373   3.734   2.494   0.221
 3456TIP3    H110374   3.767   2.578   0.190
 3456TIP3    H210375   3.724   2.441   0.142
 3457TIP3   OH210376   4.487   2.575   3.795
 3457TIP3    H110377   4.464   2.668   3.790
 3457TIP3    H210378   4.487   2.556   3.889
 3458TIP3   OH210379   2.715   1.273   1.654
 3458TIP3    H110380   2.672   1.246   1.573
 3458TIP3    H210381   2.675   1.358   1.675
 3459TIP3   OH210382   2.308   4.128   1.619
 3459TIP3    H110383   2.234   4.081   1.580
 3459TIP3    H210384   2.385   4.077   1.592
 3460TIP3   OH210385   2.072   0.712   4.216
 3460TIP3    H110386   2.069   0.619   4.194
 3460TIP3    H210387   2.150   0.721   4.270
 3461TIP3   OH210388   4.251   3.405   5.161
 3461TIP3    H110389   4.185   3.374   5.099
 3461TIP3    H210390   4.208   3.402   5.247
 3462TIP3   OH210391   5.291   1.717   4.584
 3462TIP3    H110392   5.289   1.758   4.670
 3462TIP3    H210393   5.285   1.790   4.522
 3463TIP3   OH210394   4.207   0.143   1.482
 3463TIP3    H110395   4.224   0.051   1.465
 3463TIP3    H210396   4.291   0.186   1.470
 3464TIP3   OH210397   0.719   4.299   2.612
 3464TIP3    H110398   0.755   4.223   2.565
 3464TIP3    H210399   0.796   4.350   2.638
 3465TIP3   OH210400   1.409   6.003   0.107
 3465TIP3    H110401   1.390   6.095   0.126
 3465TIP3    H210402   1.446   5.968   0.188
 3466TIP3   OH210403   0.817   3.660   0.373
 3466TIP3    H110404   0.731   3.626   0.397
 3466TIP3    H210405   0.874   3.636   0.447
 3467TIP3   OH210406   1.482   3.531   4.149
 3467TIP3    H110407   1.497   3.573   4.234
 3467TIP3    H210408   1.564   3.485   4.131
 3468TIP3   OH210409   4.330   3.399   0.513
 3468TIP3    H110410   4.371   3.435   0.434
 3468TIP3    H210411   4.392   3.418   0.583
 3469TIP3   OH210412   2.795   4.068   2.614
 3469TIP3    H110413   2.761   4.078   2.525
 3469TIP3    H210414   2.743   4.127   2.667
 3470TIP3   OH210415   2.912   1.652   0.429
 3470TIP3    H110416   2.842   1.621   0.372
 3470TIP3    H210417   2.913   1.747   0.416
 3471TIP3   OH210418   4.483   4.304   4.880
 3471TIP3    H110419   4.457   4.380   4.829
 3471TIP3    H210420   4.565   4.274   4.839
 3472TIP3   OH210421   0.387   3.991   0.921
 3472TIP3    H110422   0.416   4.008   0.832
 3472TIP3    H210423   0.340   3.908   0.916
 3473TIP3   OH210424   5.496   2.308   2.686
 3473TIP3    H110425   5.471   2.231   2.736
 3473TIP3    H210426   5.490   2.281   2.594
 3474TIP3   OH210427   0.896   2.097   3.790
 3474TIP3    H110428   0.977   2.061   3.755
 3474TIP3    H210429   0.840   2.020   3.805
 3475TIP3   OH210430   1.664   5.318   2.847
 3475TIP3    H110431   1.733   5.252   2.853
 3475TIP3    H210432   1.584   5.273   2.875
 3476TIP3   OH210433   4.119   5.375   4.118
 3476TIP3    H110434   4.062   5.342   4.049
 3476TIP3    H210435   4.111   5.311   4.189
 3477TIP3   OH210436   1.033   4.516   2.059
 3477TIP3    H110437   1.038   4.536   2.153
 3477TIP3    H210438   0.958   4.456   2.052
 3478TIP3   OH210439   4.557   0.239   2.274
 3478TIP3    H110440   4.618   0.171   2.300
 3478TIP3    H210441   4.535   0.219   2.183
 3479TIP3   OH210442   1.083   1.362   4.027
 3479TIP3    H110443   0.998   1.326   4.004
 3479TIP3    H210444   1.097   1.334   4.118
 3480TIP3   OH210445   2.678   4.492   4.565
 3480TIP3    H110446   2.628   4.567   4.597
 3480TIP3    H210447   2.658   4.422   4.627
 3481TIP3   OH210448   3.913   1.945   0.336
 3481TIP3    H110449   3.919   1.952   0.431
 3481TIP3    H210450   3.908   2.035   0.306
 3482TIP3   OH210451   3.810   1.469   0.176
 3482TIP3    H110452   3.872   1.425   0.117
 3482TIP3    H210453   3.840   1.559   0.179
 3483TIP3   OH210454   6.144   3.349   2.664
 3483TIP3    H110455   6.204   3.389   2.601
 3483TIP3    H210456   6.193   3.345   2.746
 3484TIP3   OH210457   3.510   0.351   1.710
 3484TIP3    H110458   3.460   0.320   1.786
 3484TIP3    H210459   3.538   0.439   1.734
 3485TIP3   OH210460   5.563   5.537   3.666
 3485TIP3    H110461   5.477   5.570   3.639
 3485TIP3    H210462   5.544   5.452   3.705
 3486TIP3   OH210463   0.954   3.434   0.259
 3486TIP3    H110464   0.913   3.519   0.245
 3486TIP3    H210465   0.901   3.372   0.209
 3487TIP3   OH210466   4.201   4.785   5.137
 3487TIP3    H110467   4.205   4.694   5.107
 3487TIP3    H210468   4.127   4.787   5.198
 3488TIP3   OH210469   0.809   1.690   3.902
 3488TIP3    H110470   0.881   1.640   3.862
 3488TIP3    H210471   0.765   1.627   3.959
 3489TIP3   OH210472   0.336   4.332   1.648
 3489TIP3    H110473   0.302   4.379   1.725
 3489TIP3    H210474   0.412   4.384   1.620
 3490TIP3   OH210475   0.131   2.503   2.133
 3490TIP3    H110476   0.110   2.564   2.063
 3490TIP3    H210477   0.189   2.438   2.091
 3491TIP3   OH210478   0.437   1.057   3.843
 3491TIP3    H110479   0.496   1.095   3.778
 3491TIP3    H210480   0.494   1.008   3.902
 3492TIP3   OH210481   0.811   3.072   0.992
 3492TIP3    H110482   0.794   3.163   0.967
 3492TIP3    H210483   0.739   3.023   0.954
 3493TIP3   OH210484   4.206   4.722   1.674
 3493TIP3    H110485   4.301   4.712   1.666
 3493TIP3    H210486   4.182   4.668   1.749
 3494TIP3   OH210487   1.456   1.413   2.842
 3494TIP3    H110488   1.479   1.400   2.934
 3494TIP3    H210489   1.492   1.336   2.797
 3495TIP3   OH210490   2.283   3.778   1.685
 3495TIP3    H110491   2.318   3.867   1.678
 3495TIP3    H210492   2.359   3.721   1.672
 3496TIP3   OH210493   6.026   0.345   1.314
 3496TIP3    H110494   5.938   0.311   1.328
 3496TIP3    H210495   6.017   0.439   1.323
 3497TIP3   OH210496   6.166   5.597   2.431
 3497TIP3    H110497   6.248   5.554   2.407
 3497TIP3    H210498   6.140   5.644   2.352
 3498TIP3   OH210499   4.882   5.610   2.699
 3498TIP3    H110500   4.921   5.679   2.644
 3498TIP3    H210501   4.941   5.535   2.688
 3499TIP3   OH210502   3.630   4.490   4.868
 3499TIP3    H110503   3.635   4.505   4.774
 3499TIP3    H210504   3.706   4.434   4.887
 3500TIP3   OH210505   0.357   5.871   3.713
 3500TIP3    H110506   0.364   5.966   3.703
 3500TIP3    H210507   0.276   5.847   3.668
 3501TIP3   OH210508   5.079   0.251   4.927
 3501TIP3    H110509   5.137   0.211   4.992
 3501TIP3    H210510   5.124   0.331   4.901
 3502TIP3   OH210511   4.375   0.558   2.515
 3502TIP3    H110512   4.304   0.621   2.506
 3502TIP3    H210513   4.454   0.608   2.492
 3503TIP3   OH210514   6.211   4.942   2.240
 3503TIP3    H110515   6.187   5.035   2.233
 3503TIP3    H210516   6.253   4.934   2.325
 3504TIP3   OH210517   5.894   2.402   3.424
 3504TIP3    H110518   5.815   2.360   3.458
 3504TIP3    H210519   5.957   2.330   3.417
 3505TIP3   OH210520   0.271   1.099   2.413
 3505TIP3    H110521   0.299   1.013   2.443
 3505TIP3    H210522   0.240   1.143   2.493
 3506TIP3   OH210523   2.567   4.737   0.113
 3506TIP3    H110524   2.617   4.772   0.187
 3506TIP3    H210525   2.542   4.649   0.141
 3507TIP3   OH210526   1.758   3.793   4.631
 3507TIP3    H110527   1.783   3.724   4.570
 3507TIP3    H210528   1.670   3.819   4.604
 3508TIP3   OH210529   4.340   1.993   0.189
 3508TIP3    H110530   4.361   1.924   0.252
 3508TIP3    H210531   4.264   1.961   0.142
 3509TIP3   OH210532   2.524   0.624   0.539
 3509TIP3    H110533   2.606   0.589   0.505
 3509TIP3    H210534   2.490   0.678   0.467
 3510TIP3   OH210535   4.629   2.936   0.970
 3510TIP3    H110536   4.659   3.023   0.994
 3510TIP3    H210537   4.649   2.881   1.046
 3511TIP3   OH210538   5.312   3.421   2.342
 3511TIP3    H110539   5.335   3.425   2.249
 3511TIP3    H210540   5.369   3.487   2.383
 3512TIP3   OH210541   3.430   2.355   4.055
 3512TIP3    H110542   3.347   2.370   4.100
 3512TIP3    H210543   3.481   2.301   4.117
 3513TIP3   OH210544   0.554   2.103   5.137
 3513TIP3    H110545   0.624   2.088   5.073
 3513TIP3    H210546   0.550   2.021   5.187
 3514TIP3   OH210547   0.280   2.156   2.525
 3514TIP3    H110548   0.367   2.197   2.527
 3514TIP3    H210549   0.231   2.206   2.461
 3515TIP3   OH210550   3.399   5.556   3.203
 3515TIP3    H110551   3.417   5.571   3.110
 3515TIP3    H210552   3.355   5.635   3.233
 3516TIP3   OH210553   4.393   5.787   3.717
 3516TIP3    H110554   4.324   5.780   3.783
 3516TIP3    H210555   4.352   5.836   3.645
 3517TIP3   OH210556   1.218   0.763   0.829
 3517TIP3    H110557   1.190   0.848   0.795
 3517TIP3    H210558   1.174   0.756   0.914
 3518TIP3   OH210559   1.122   1.877   1.774
 3518TIP3    H110560   1.212   1.907   1.762
 3518TIP3    H210561   1.108   1.880   1.869
 3519TIP3   OH210562   1.791   1.674   0.500
 3519TIP3    H110563   1.780   1.588   0.461
 3519TIP3    H210564   1.767   1.736   0.430
 3520TIP3   OH210565   5.536   5.534   1.847
 3520TIP3    H110566   5.444   5.524   1.826
 3520TIP3    H210567   5.541   5.521   1.942
 3521TIP3   OH210568   0.993   2.492   2.794
 3521TIP3    H110569   0.922   2.428   2.802
 3521TIP3    H210570   1.073   2.440   2.797
 3522TIP3   OH210571   3.703   2.810   4.553
 3522TIP3    H110572   3.657   2.890   4.578
 3522TIP3    H210573   3.764   2.838   4.484
 3523TIP3   OH210574   4.783   1.511   0.400
 3523TIP3    H110575   4.740   1.567   0.464
 3523TIP3    H210576   4.872   1.544   0.396
 3524TIP3   OH210577   4.615   4.496   3.763
 3524TIP3    H110578   4.704   4.488   3.729
 3524TIP3    H210579   4.585   4.406   3.775
 3525TIP3   OH210580   2.760   2.136   1.338
 3525TIP3    H110581   2.701   2.116   1.265
 3525TIP3    H210582   2.800   2.220   1.313
 3526TIP3   OH210583   3.289   3.533   1.469
 3526TIP3    H110584   3.327   3.618   1.491
 3526TIP3    H210585   3.334   3.507   1.389
 3527TIP3   OH210586   3.542   2.056   2.031
 3527TIP3    H110587   3.626   2.073   2.072
 3527TIP3    H210588   3.547   1.964   2.003
 3528TIP3   OH210589   3.071   2.398   2.336
 3528TIP3    H110590   3.049   2.487   2.309
 3528TIP3    H210591   3.112   2.359   2.259
 3529TIP3   OH210592   5.346   1.389   1.106
 3529TIP3    H110593   5.421   1.447   1.098
 3529TIP3    H210594   5.366   1.314   1.049
 3530TIP3   OH210595   3.022   5.657   1.199
 3530TIP3    H110596   3.093   5.692   1.254
 3530TIP3    H210597   3.013   5.566   1.228
 3531TIP3   OH210598   0.454   4.333   2.615
 3531TIP3    H110599   0.441   4.409   2.673
 3531TIP3    H210600   0.545   4.307   2.628
 3532TIP3   OH210601   0.608   0.570   0.803
 3532TIP3    H110602   0.559   0.644   0.840
 3532TIP3    H210603   0.551   0.495   0.816
 3533TIP3   OH210604   4.515   5.348   2.265
 3533TIP3    H110605   4.563   5.275   2.226
 3533TIP3    H210606   4.428   5.311   2.284
 3534TIP3   OH210607   3.116   5.187   1.156
 3534TIP3    H110608   3.176   5.259   1.175
 3534TIP3    H210609   3.059   5.182   1.233
 3535TIP3   OH210610   1.918   5.028   0.842
 3535TIP3    H110611   1.883   5.012   0.755
 3535TIP3    H210612   1.916   4.943   0.885
 3536TIP3   OH210613   3.651   3.060   4.674
 3536TIP3    H110614   3.742   3.079   4.696
 3536TIP3    H210615   3.605   3.066   4.758
 3537TIP3   OH210616   2.577   4.617   4.066
 3537TIP3    H110617   2.647   4.634   4.003
 3537TIP3    H210618   2.621   4.615   4.151
 3538TIP3   OH210619   4.206   1.755   3.400
 3538TIP3    H110620   4.110   1.754   3.397
 3538TIP3    H210621   4.227   1.712   3.483
 3539TIP3   OH210622   2.594   4.075   4.650
 3539TIP3    H110623   2.573   4.160   4.687
 3539TIP3    H210624   2.545   4.013   4.704
 3540TIP3   OH210625   2.700   3.689   1.720
 3540TIP3    H110626   2.655   3.645   1.647
 3540TIP3    H210627   2.775   3.731   1.680
 3541TIP3   OH210628   2.363   5.441   1.594
 3541TIP3    H110629   2.371   5.450   1.499
 3541TIP3    H210630   2.271   5.423   1.609
 3542TIP3   OH210631   4.970   4.398   3.136
 3542TIP3    H110632   4.912   4.464   3.098
 3542TIP3    H210633   5.032   4.378   3.065
 3543TIP3   OH210634   1.416   3.597   2.305
 3543TIP3    H110635   1.401   3.509   2.270
 3543TIP3    H210636   1.499   3.589   2.353
 3544TIP3   OH210637   5.347   3.642   3.017
 3544TIP3    H110638   5.387   3.725   3.040
 3544TIP3    H210639   5.412   3.599   2.960
 3545TIP3   OH210640   4.985   1.359   3.389
 3545TIP3    H110641   4.965   1.439   3.438
 3545TIP3    H210642   5.058   1.384   3.332
 3546TIP3   OH210643   0.519   0.807   0.920
 3546TIP3    H110644   0.485   0.841   1.002
 3546TIP3    H210645   0.548   0.885   0.872
 3547TIP3   OH210646   3.223   1.846   4.795
 3547TIP3    H110647   3.214   1.760   4.836
 3547TIP3    H210648   3.261   1.902   4.862
 3548TIP3   OH210649   4.057   3.232   5.041
 3548TIP3    H110650   3.998   3.306   5.052
 3548TIP3    H210651   4.036   3.173   5.113
 3549TIP3   OH210652   0.956   4.506   2.765
 3549TIP3    H110653   0.962   4.545   2.852
 3549TIP3    H210654   1.043   4.471   2.748
 3550TIP3   OH210655   2.588   0.289   3.066
 3550TIP3    H110656   2.676   0.312   3.037
 3550TIP3    H210657   2.563   0.216   3.010
 3551TIP3   OH210658   1.359   1.068   1.893
 3551TIP3    H110659   1.444   1.028   1.910
 3551TIP3    H210660   1.314   1.064   1.977
 3552TIP3   OH210661   6.221   1.580   4.642
 3552TIP3    H110662   6.196   1.608   4.555
 3552TIP3    H210663   6.168   1.633   4.701
 3553TIP3   OH210664   1.907   3.471   2.667
 3553TIP3    H110665   1.836   3.408   2.657
 3553TIP3    H210666   1.890   3.513   2.751
 3554TIP3   OH210667   5.552   3.568   3.559
 3554TIP3    H110668   5.553   3.509   3.634
 3554TIP3    H210669   5.568   3.511   3.484
 3555TIP3   OH210670   0.454   3.462   0.817
 3555TIP3    H110671   0.409   3.406   0.754
 3555TIP3    H210672   0.415   3.548   0.804
 3556TIP3   OH210673   0.205   1.457   5.069
 3556TIP3    H110674   0.198   1.547   5.102
 3556TIP3    H210675   0.143   1.454   4.996
 3557TIP3   OH210676   2.511   5.418   2.436
 3557TIP3    H110677   2.541   5.366   2.362
 3557TIP3    H210678   2.486   5.352   2.502
 3558TIP3   OH210679   4.148   2.488   4.351
 3558TIP3    H110680   4.158   2.565   4.295
 3558TIP3    H210681   4.237   2.456   4.365
 3559TIP3   OH210682   2.027   2.424   2.704
 3559TIP3    H110683   2.033   2.481   2.627
 3559TIP3    H210684   2.071   2.472   2.773
 3560TIP3   OH210685   4.967   3.137   3.319
 3560TIP3    H110686   5.037   3.161   3.381
 3560TIP3    H210687   4.886   3.163   3.363
 3561TIP3   OH210688   4.470   1.670   5.099
 3561TIP3    H110689   4.507   1.718   5.025
 3561TIP3    H210690   4.545   1.623   5.137
 3562TIP3   OH210691   5.951   5.495   2.010
 3562TIP3    H110692   5.967   5.540   1.927
 3562TIP3    H210693   5.866   5.528   2.040
 3563TIP3   OH210694   0.883   5.476   1.036
 3563TIP3    H110695   0.945   5.431   1.094
 3563TIP3    H210696   0.856   5.409   0.973
 3564TIP3   OH210697   5.920   0.491   1.915
 3564TIP3    H110698   5.865   0.445   1.978
 3564TIP3    H210699   5.980   0.424   1.882
 3565TIP3   OH210700   4.392   3.571   1.972
 3565TIP3    H110701   4.382   3.484   2.010
 3565TIP3    H210702   4.404   3.556   1.879
 3566TIP3   OH210703   0.593   4.009   3.310
 3566TIP3    H110704   0.630   4.072   3.248
 3566TIP3    H210705   0.499   4.023   3.305
 3567TIP3   OH210706   5.997   4.860   5.093
 3567TIP3    H110707   5.903   4.868   5.113
 3567TIP3    H210708   6.016   4.767   5.104
 3568TIP3   OH210709   6.015   4.288   0.393
 3568TIP3    H110710   5.968   4.372   0.395
 3568TIP3    H210711   5.946   4.222   0.386
 3569TIP3   OH210712   4.839   5.207   4.625
 3569TIP3    H110713   4.901   5.272   4.591
 3569TIP3    H210714   4.753   5.236   4.592
 3570TIP3   OH210715   4.365   5.446   4.701
 3570TIP3    H110716   4.350   5.532   4.740
 3570TIP3    H210717   4.360   5.461   4.607
 3571TIP3   OH210718   5.391   0.371   5.197
 3571TIP3    H110719   5.324   0.303   5.203
 3571TIP3    H210720   5.465   0.328   5.155
 3572TIP3   OH210721   3.388   1.283   4.238
 3572TIP3    H110722   3.369   1.190   4.254
 3572TIP3    H210723   3.475   1.296   4.275
 3573TIP3   OH210724   0.582   0.014   1.098
 3573TIP3    H110725   0.670   0.049   1.104
 3573TIP3    H210726   0.525   0.090   1.104
 3574TIP3   OH210727   1.637   5.397   2.354
 3574TIP3    H110728   1.657   5.363   2.441
 3574TIP3    H210729   1.722   5.419   2.317
 3575TIP3   OH210730   3.351   0.689   4.229
 3575TIP3    H110731   3.291   0.691   4.154
 3575TIP3    H210732   3.297   0.712   4.304
 3576TIP3   OH210733   5.576   1.470   4.112
 3576TIP3    H110734   5.573   1.442   4.021
 3576TIP3    H210735   5.561   1.564   4.110
 3577TIP3   OH210736   0.747   0.602   2.008
 3577TIP3    H110737   0.717   0.565   2.091
 3577TIP3    H210738   0.796   0.680   2.033
 3578TIP3   OH210739   3.005   1.293   0.967
 3578TIP3    H110740   3.068   1.288   1.040
 3578TIP3    H210741   2.921   1.311   1.010
 3579TIP3   OH210742   2.548   4.661   1.190
 3579TIP3    H110743   2.508   4.604   1.124
 3579TIP3    H210744   2.615   4.710   1.142
 3580TIP3   OH210745   3.753   4.857   3.367
 3580TIP3    H110746   3.678   4.915   3.377
 3580TIP3    H210747   3.795   4.857   3.453
 3581TIP3   OH210748   4.827   2.552   4.526
 3581TIP3    H110749   4.819   2.546   4.430
 3581TIP3    H210750   4.836   2.645   4.543
 3582TIP3   OH210751   0.492   4.622   0.546
 3582TIP3    H110752   0.417   4.676   0.570
 3582TIP3    H210753   0.568   4.676   0.566
 3583TIP3   OH210754   0.634   4.665   0.854
 3583TIP3    H110755   0.676   4.730   0.909
 3583TIP3    H210756   0.697   4.648   0.784
 3584TIP3   OH210757   5.323   0.485   0.511
 3584TIP3    H110758   5.246   0.519   0.557
 3584TIP3    H210759   5.381   0.560   0.503
 3585TIP3   OH210760   4.880   0.877   3.923
 3585TIP3    H110761   4.787   0.902   3.919
 3585TIP3    H210762   4.925   0.951   3.882
 3586TIP3   OH210763   1.987  -0.040   2.009
 3586TIP3    H110764   2.067  -0.015   1.963
 3586TIP3    H210765   1.957   0.041   2.050
 3587TIP3   OH210766   0.753   2.497   0.379
 3587TIP3    H110767   0.679   2.441   0.358
 3587TIP3    H210768   0.794   2.516   0.294
 3588TIP3   OH210769   4.448   3.601   3.001
 3588TIP3    H110770   4.416   3.521   3.041
 3588TIP3    H210771   4.369   3.649   2.974
 3589TIP3   OH210772   3.387   5.169   4.981
 3589TIP3    H110773   3.379   5.259   5.013
 3589TIP3    H210774   3.467   5.136   5.023
 3590TIP3   OH210775   2.560   4.335   4.753
 3590TIP3    H110776   2.600   4.316   4.837
 3590TIP3    H210777   2.469   4.355   4.773
 3591TIP3   OH210778   0.269   4.778   0.529
 3591TIP3    H110779   0.212   4.717   0.575
 3591TIP3    H210780   0.319   4.821   0.598
 3592TIP3   OH210781   1.073   1.720   3.057
 3592TIP3    H110782   1.162   1.687   3.069
 3592TIP3    H210783   1.069   1.745   2.965
 3593TIP3   OH210784   1.580   1.532   3.793
 3593TIP3    H110785   1.493   1.508   3.826
 3593TIP3    H210786   1.637   1.463   3.827
 3594TIP3   OH210787   0.037   0.679   3.400
 3594TIP3    H110788   0.056   0.704   3.491
 3594TIP3    H210789  -0.035   0.737   3.374
 3595TIP3   OH210790   4.585   3.355   3.173
 3595TIP3    H110791   4.494   3.381   3.163
 3595TIP3    H210792   4.623   3.369   3.086
 3596TIP3   OH210793   3.844   2.584   2.595
 3596TIP3    H110794   3.761   2.567   2.640
 3596TIP3    H210795   3.829   2.666   2.547
 3597TIP3   OH210796   0.790   2.048   3.238
 3597TIP3    H110797   0.764   2.018   3.325
 3597TIP3    H210798   0.740   2.129   3.225
 3598TIP3   OH210799   3.767   4.022   3.459
 3598TIP3    H110800   3.796   4.054   3.374
 3598TIP3    H210801   3.698   4.083   3.486
 3599TIP3   OH210802   3.954   2.195   0.238
 3599TIP3    H110803   3.947   2.246   0.157
 3599TIP3    H210804   4.041   2.215   0.271
 3600TIP3   OH210805   4.970   3.883   2.211
 3600TIP3    H110806   4.907   3.822   2.249
 3600TIP3    H210807   4.987   3.946   2.282
 3601TIP3   OH210808   0.944   3.720   4.533
 3601TIP3    H110809   0.861   3.699   4.577
 3601TIP3    H210810   0.926   3.799   4.482
 3602TIP3   OH210811   0.891   3.452   2.825
 3602TIP3    H110812   0.898   3.489   2.913
 3602TIP3    H210813   0.923   3.362   2.834
 3603TIP3   OH210814   1.245   5.341   5.077
 3603TIP3    H110815   1.195   5.386   5.145
 3603TIP3    H210816   1.217   5.382   4.995
 3604TIP3   OH210817   5.111   0.908   1.882
 3604TIP3    H110818   5.126   0.997   1.849
 3604TIP3    H210819   5.187   0.890   1.937
 3605TIP3   OH210820   4.393   4.482   3.301
 3605TIP3    H110821   4.390   4.472   3.206
 3605TIP3    H210822   4.312   4.441   3.332
 3606TIP3   OH210823   5.253   4.588   0.862
 3606TIP3    H110824   5.274   4.498   0.837
 3606TIP3    H210825   5.333   4.637   0.842
 3607TIP3   OH210826   5.562   1.967   0.449
 3607TIP3    H110827   5.582   1.932   0.536
 3607TIP3    H210828   5.484   1.920   0.421
 3608TIP3   OH210829   3.269   3.450   4.048
 3608TIP3    H110830   3.264   3.357   4.025
 3608TIP3    H210831   3.311   3.491   3.973
 3609TIP3   OH210832   2.868   3.646   1.414
 3609TIP3    H110833   2.906   3.713   1.471
 3609TIP3    H210834   2.774   3.658   1.422
 3610TIP3   OH210835   3.835   0.286   5.128
 3610TIP3    H110836   3.861   0.196   5.107
 3610TIP3    H210837   3.820   0.285   5.222
 3611TIP3   OH210838   3.170   0.600   4.698
 3611TIP3    H110839   3.165   0.510   4.666
 3611TIP3    H210840   3.255   0.632   4.668
 3612TIP3   OH210841   1.803   1.348   4.758
 3612TIP3    H110842   1.897   1.331   4.768
 3612TIP3    H210843   1.797   1.443   4.750
 3613TIP3   OH210844   5.615   4.508   5.125
 3613TIP3    H110845   5.582   4.420   5.110
 3613TIP3    H210846   5.546   4.551   5.176
 3614TIP3   OH210847   0.603   3.093  -0.018
 3614TIP3    H110848   0.688   3.101   0.026
 3614TIP3    H210849   0.556   3.173   0.004
 3615TIP3   OH210850   4.390   4.465   4.688
 3615TIP3    H110851   4.359   4.435   4.602
 3615TIP3    H210852   4.436   4.546   4.669
 3616TIP3   OH210853   0.859   5.088   4.787
 3616TIP3    H110854   0.785   5.046   4.831
 3616TIP3    H210855   0.915   5.015   4.760
 3617TIP3   OH210856   3.761   0.532   0.425
 3617TIP3    H110857   3.828   0.487   0.476
 3617TIP3    H210858   3.808   0.603   0.381
 3618TIP3   OH210859   2.584   1.482   0.097
 3618TIP3    H110860   2.521   1.554   0.101
 3618TIP3    H210861   2.546   1.420   0.035
 3619TIP3   OH210862   3.332   3.035   1.350
 3619TIP3    H110863   3.385   2.971   1.303
 3619TIP3    H210864   3.344   3.012   1.442
 3620TIP3   OH210865   1.666   0.722   1.107
 3620TIP3    H110866   1.640   0.631   1.097
 3620TIP3    H210867   1.708   0.726   1.193
 3621TIP3   OH210868   0.736   5.269   0.570
 3621TIP3    H110869   0.652   5.238   0.603
 3621TIP3    H210870   0.720   5.291   0.478
 3622TIP3   OH210871   5.625   4.624   0.594
 3622TIP3    H110872   5.711   4.664   0.603
 3622TIP3    H210873   5.640   4.531   0.611
 3623TIP3   OH210874   6.322   1.026   3.988
 3623TIP3    H110875   6.397   1.082   3.969
 3623TIP3    H210876   6.309   1.035   4.083
 3624TIP3   OH210877   4.833   2.346   1.871
 3624TIP3    H110878   4.777   2.307   1.938
 3624TIP3    H210879   4.881   2.272   1.834
 3625TIP3   OH210880   0.428   3.712   0.576
 3625TIP3    H110881   0.361   3.671   0.521
 3625TIP3    H210882   0.504   3.654   0.568
 3626TIP3   OH210883   0.364   1.868   0.442
 3626TIP3    H110884   0.314   1.909   0.371
 3626TIP3    H210885   0.339   1.776   0.439
 3627TIP3   OH210886   5.840   3.691   3.298
 3627TIP3    H110887   5.883   3.767   3.258
 3627TIP3    H210888   5.877   3.616   3.252
 3628TIP3   OH210889   5.835   1.254   2.274
 3628TIP3    H110890   5.834   1.159   2.282
 3628TIP3    H210891   5.877   1.285   2.355
 3629TIP3   OH210892   3.995   5.679   3.696
 3629TIP3    H110893   4.065   5.725   3.648
 3629TIP3    H210894   4.040   5.608   3.741
 3630TIP3   OH210895   0.822   1.285   4.014
 3630TIP3    H110896   0.753   1.227   4.047
 3630TIP3    H210897   0.783   1.372   4.016
 3631TIP3   OH210898   1.087   3.069   2.233
 3631TIP3    H110899   1.142   3.088   2.309
 3631TIP3    H210900   1.000   3.051   2.271
 3632TIP3   OH210901   4.273   1.767   4.495
 3632TIP3    H110902   4.303   1.756   4.585
 3632TIP3    H210903   4.278   1.861   4.478
 3633TIP3   OH210904   6.014   2.959   4.348
 3633TIP3    H110905   6.104   2.929   4.360
 3633TIP3    H210906   6.010   2.985   4.256
 3634TIP3   OH210907   1.212   5.538   0.133
 3634TIP3    H110908   1.211   5.482   0.056
 3634TIP3    H210909   1.134   5.593   0.125
 3635TIP3   OH210910   2.872   4.858   2.722
 3635TIP3    H110911   2.884   4.796   2.794
 3635TIP3    H210912   2.777   4.861   2.709
 3636TIP3   OH210913   0.575   5.189   1.031
 3636TIP3    H110914   0.542   5.124   0.970
 3636TIP3    H210915   0.497   5.219   1.079
 3637TIP3   OH210916   2.065   0.786   4.766
 3637TIP3    H110917   1.975   0.778   4.733
 3637TIP3    H210918   2.109   0.707   4.735
 3638TIP3   OH210919   1.775   3.981   2.439
 3638TIP3    H110920   1.782   3.994   2.345
 3638TIP3    H210921   1.694   3.932   2.451
 3639TIP3   OH210922   3.277   0.951   4.667
 3639TIP3    H110923   3.312   0.951   4.756
 3639TIP3    H210924   3.183   0.936   4.678
 3640TIP3   OH210925   4.998   0.854   4.182
 3640TIP3    H110926   5.049   0.935   4.185
 3640TIP3    H210927   4.965   0.850   4.092
 3641TIP3   OH210928   0.620   2.191   0.071
 3641TIP3    H110929   0.647   2.258   0.008
 3641TIP3    H210930   0.563   2.133   0.020
 3642TIP3   OH210931   3.750   4.315   4.357
 3642TIP3    H110932   3.786   4.347   4.274
 3642TIP3    H210933   3.690   4.244   4.331
 3643TIP3   OH210934   3.489   5.947   1.122
 3643TIP3    H110935   3.395   5.944   1.138
 3643TIP3    H210936   3.523   5.870   1.168
 3644TIP3   OH210937   0.840   5.356   2.813
 3644TIP3    H110938   0.855   5.272   2.854
 3644TIP3    H210939   0.866   5.343   2.721
 3645TIP3   OH210940   3.812   1.718   0.521
 3645TIP3    H110941   3.718   1.731   0.507
 3645TIP3    H210942   3.843   1.801   0.557
 3646TIP3   OH210943   3.266   2.562   2.198
 3646TIP3    H110944   3.253   2.652   2.169
 3646TIP3    H210945   3.334   2.568   2.265
 3647TIP3   OH210946   6.148   1.532   2.154
 3647TIP3    H110947   6.150   1.437   2.168
 3647TIP3    H210948   6.175   1.569   2.239
 3648TIP3   OH210949   2.058   1.134   5.007
 3648TIP3    H110950   2.127   1.170   5.063
 3648TIP3    H210951   1.976   1.159   5.050
 3649TIP3   OH210952   1.143   1.363   1.776
 3649TIP3    H110953   1.118   1.455   1.762
 3649TIP3    H210954   1.235   1.360   1.752
 3650TIP3   OH210955   2.027   2.504   1.631
 3650TIP3    H110956   2.029   2.417   1.670
 3650TIP3    H210957   1.965   2.553   1.684
 3651TIP3   OH210958   3.453   1.727   0.795
 3651TIP3    H110959   3.477   1.746   0.704
 3651TIP3    H210960   3.530   1.753   0.846
 3652TIP3   OH210961   0.623   0.601   4.202
 3652TIP3    H110962   0.593   0.527   4.150
 3652TIP3    H210963   0.674   0.562   4.273
 3653TIP3   OH210964   5.066   5.243   0.011
 3653TIP3    H110965   5.155   5.209  -0.002
 3653TIP3    H210966   5.061   5.261   0.104
 3654TIP3   OH210967   3.577   5.293   3.669
 3654TIP3    H110968   3.519   5.324   3.599
 3654TIP3    H210969   3.655   5.348   3.662
 3655TIP3   OH210970   5.026   4.844   4.175
 3655TIP3    H110971   5.005   4.859   4.268
 3655TIP3    H210972   5.114   4.809   4.176
 3656TIP3   OH210973   3.478   1.320   0.588
 3656TIP3    H110974   3.492   1.326   0.493
 3656TIP3    H210975   3.387   1.293   0.598
 3657TIP3   OH210976   5.900   2.258   4.565
 3657TIP3    H110977   5.988   2.227   4.585
 3657TIP3    H210978   5.870   2.298   4.647
 3658TIP3   OH210979   0.816   2.516   2.289
 3658TIP3    H110980   0.758   2.461   2.343
 3658TIP3    H210981   0.904   2.494   2.320
 3659TIP3   OH210982   1.088   5.297   1.612
 3659TIP3    H110983   1.139   5.339   1.680
 3659TIP3    H210984   1.145   5.227   1.578
 3660TIP3   OH210985   1.875   0.754   1.932
 3660TIP3    H110986   1.932   0.814   1.883
 3660TIP3    H210987   1.934   0.704   1.987
 3661TIP3   OH210988   5.354   2.940   3.671
 3661TIP3    H110989   5.448   2.947   3.652
 3661TIP3    H210990   5.344   2.982   3.756
 3662TIP3   OH210991   4.057   5.410   4.643
 3662TIP3    H110992   4.138   5.418   4.693
 3662TIP3    H210993   4.066   5.328   4.594
 3663TIP3   OH210994   2.976   0.538   4.364
 3663TIP3    H110995   3.006   0.523   4.275
 3663TIP3    H210996   3.048   0.586   4.406
 3664TIP3   OH210997   4.281   2.039   4.541
 3664TIP3    H110998   4.249   2.114   4.591
 3664TIP3    H210999   4.376   2.049   4.541
 3665TIP3   OH211000   5.901   4.133   0.812
 3665TIP3    H111001   5.881   4.123   0.905
 3665TIP3    H211002   5.827   4.092   0.767
 3666TIP3   OH211003   5.555   1.114   3.164
 3666TIP3    H111004   5.616   1.079   3.099
 3666TIP3    H211005   5.536   1.040   3.222
 3667TIP3   OH211006   3.111   1.229   2.554
 3667TIP3    H111007   3.149   1.254   2.470
 3667TIP3    H211008   3.185   1.191   2.603
 3668TIP3   OH211009   0.775   2.208   0.864
 3668TIP3    H111010   0.713   2.156   0.916
 3668TIP3    H211011   0.784   2.160   0.782
 3669TIP3   OH211012   4.866   3.710   0.589
 3669TIP3    H111013   4.792   3.719   0.528
 3669TIP3    H211014   4.854   3.783   0.651
 3670TIP3   OH211015   2.136   2.734   0.011
 3670TIP3    H111016   2.100   2.741  -0.077
 3670TIP3    H211017   2.094   2.805   0.060
 3671TIP3   OH211018   5.341   0.016   1.672
 3671TIP3    H111019   5.343   0.104   1.709
 3671TIP3    H211020   5.416   0.013   1.613
 3672TIP3   OH211021   2.504   3.254   2.031
 3672TIP3    H111022   2.559   3.294   1.964
 3672TIP3    H211023   2.433   3.211   1.982
 3673TIP3   OH211024   3.599   2.484   2.212
 3673TIP3    H111025   3.648   2.457   2.289
 3673TIP3    H211026   3.561   2.403   2.178
 3674TIP3   OH211027   5.025   1.184   1.353
 3674TIP3    H111028   4.932   1.165   1.366
 3674TIP3    H211029   5.032   1.279   1.363
 3675TIP3   OH211030   3.657   0.424   4.962
 3675TIP3    H111031   3.707   0.375   5.027
 3675TIP3    H211032   3.704   0.408   4.880
 3676TIP3   OH211033   2.230   4.384   3.098
 3676TIP3    H111034   2.238   4.331   3.177
 3676TIP3    H211035   2.231   4.474   3.129
 3677TIP3   OH211036   4.130   5.650   4.075
 3677TIP3    H111037   4.100   5.696   4.153
 3677TIP3    H211038   4.150   5.561   4.105
 3678TIP3   OH211039   1.342   4.216  -0.033
 3678TIP3    H111040   1.366   4.293   0.018
 3678TIP3    H211041   1.382   4.143   0.014
 3679TIP3   OH211042   2.810   1.701   2.911
 3679TIP3    H111043   2.806   1.659   2.996
 3679TIP3    H211044   2.888   1.756   2.915
 3680TIP3   OH211045   2.700   5.421   1.667
 3680TIP3    H111046   2.658   5.422   1.753
 3680TIP3    H211047   2.776   5.365   1.678
 3681TIP3   OH211048   1.381   3.451   0.742
 3681TIP3    H111049   1.355   3.360   0.760
 3681TIP3    H211050   1.473   3.444   0.717
 3682TIP3   OH211051   5.119   2.402   1.996
 3682TIP3    H111052   5.094   2.375   1.908
 3682TIP3    H211053   5.213   2.418   1.991
 3683TIP3   OH211054   3.673   5.545   0.833
 3683TIP3    H111055   3.759   5.521   0.868
 3683TIP3    H211056   3.672   5.641   0.835
 3684TIP3   OH211057   5.113   3.652   4.230
 3684TIP3    H111058   5.103   3.560   4.205
 3684TIP3    H211059   5.029   3.692   4.210
 3685TIP3   OH211060   4.793   5.856   2.163
 3685TIP3    H111061   4.844   5.830   2.086
 3685TIP3    H211062   4.846   5.923   2.205
 3686TIP3   OH211063   0.454   3.165   4.579
 3686TIP3    H111064   0.375   3.203   4.616
 3686TIP3    H211065   0.433   3.150   4.487
 3687TIP3   OH211066   1.248   5.427   2.151
 3687TIP3    H111067   1.252   5.433   2.247
 3687TIP3    H211068   1.325   5.375   2.128
 3688TIP3   OH211069   0.138   1.742   3.622
 3688TIP3    H111070   0.163   1.684   3.551
 3688TIP3    H211071   0.130   1.828   3.581
 3689TIP3   OH211072   0.495   3.309   0.508
 3689TIP3    H111073   0.517   3.245   0.575
 3689TIP3    H211074   0.407   3.339   0.531
 3690TIP3   OH211075   2.025   2.830   2.099
 3690TIP3    H111076   2.058   2.879   2.024
 3690TIP3    H211077   2.102   2.819   2.156
 3691TIP3   OH211078   2.518   1.984   1.425
 3691TIP3    H111079   2.570   1.944   1.355
 3691TIP3    H211080   2.432   1.999   1.386
 3692TIP3   OH211081   4.350   5.459   2.482
 3692TIP3    H111082   4.445   5.474   2.477
 3692TIP3    H211083   4.340   5.399   2.557
 3693TIP3   OH211084   6.080   0.243   2.142
 3693TIP3    H111085   6.156   0.237   2.200
 3693TIP3    H211086   6.116   0.237   2.054
 3694TIP3   OH211087   0.352   5.077   4.924
 3694TIP3    H111088   0.282   5.075   4.859
 3694TIP3    H211089   0.394   5.162   4.914
 3695TIP3   OH211090   0.161   2.192   4.125
 3695TIP3    H111091   0.255   2.194   4.107
 3695TIP3    H211092   0.120   2.171   4.041
 3696TIP3   OH211093   4.384   3.460   0.121
 3696TIP3    H111094   4.409   3.405   0.048
 3696TIP3    H211095   4.459   3.458   0.181
 3697TIP3   OH211096   5.440   2.788   3.993
 3697TIP3    H111097   5.525   2.828   4.009
 3697TIP3    H211098   5.378   2.860   3.994
 3698TIP3   OH211099   3.714   0.348   2.387
 3698TIP3    H111100   3.658   0.271   2.396
 3698TIP3    H211101   3.803   0.313   2.391
 3699TIP3   OH211102   4.077   0.558   0.616
 3699TIP3    H111103   4.059   0.550   0.709
 3699TIP3    H211104   4.081   0.652   0.600
 3700TIP3   OH211105   0.268   4.808   4.845
 3700TIP3    H111106   0.328   4.767   4.906
 3700TIP3    H211107   0.313   4.805   4.761
 3701TIP3   OH211108   1.738   0.399   3.383
 3701TIP3    H111109   1.827   0.391   3.349
 3701TIP3    H211110   1.719   0.313   3.420
 3702TIP3   OH211111   0.199   4.785   1.407
 3702TIP3    H111112   0.234   4.753   1.490
 3702TIP3    H211113   0.110   4.814   1.429
 3703TIP3   OH211114   5.346   0.135   0.934
 3703TIP3    H111115   5.350   0.197   1.006
 3703TIP3    H211116   5.374   0.185   0.857
 3704TIP3   OH211117   4.232   3.753   2.961
 3704TIP3    H111118   4.193   3.707   3.035
 3704TIP3    H211119   4.165   3.749   2.892
 3705TIP3   OH211120   6.060   0.883   3.917
 3705TIP3    H111121   6.052   0.836   4.000
 3705TIP3    H211122   6.144   0.930   3.924
 3706TIP3   OH211123   5.134   4.276   2.115
 3706TIP3    H111124   5.139   4.311   2.203
 3706TIP3    H211125   5.225   4.262   2.089
 3707TIP3   OH211126   1.124   4.856   0.513
 3707TIP3    H111127   1.094   4.861   0.604
 3707TIP3    H211128   1.190   4.924   0.505
 3708TIP3   OH211129   1.204   0.212   0.186
 3708TIP3    H111130   1.284   0.231   0.137
 3708TIP3    H211131   1.213   0.262   0.267
 3709TIP3   OH211132   5.975   1.551   4.077
 3709TIP3    H111133   5.921   1.526   4.152
 3709TIP3    H211134   5.951   1.642   4.059
 3710TIP3   OH211135   3.778   5.082   3.883
 3710TIP3    H111136   3.854   5.024   3.886
 3710TIP3    H211137   3.784   5.125   3.798
 3711TIP3   OH211138   5.151   5.900   4.684
 3711TIP3    H111139   5.243   5.900   4.713
 3711TIP3    H211140   5.156   5.897   4.589
 3712TIP3   OH211141   3.930   4.707   2.694
 3712TIP3    H111142   4.016   4.719   2.654
 3712TIP3    H211143   3.877   4.780   2.661
 3713TIP3   OH211144   2.073   5.181   0.478
 3713TIP3    H111145   2.015   5.141   0.543
 3713TIP3    H211146   2.102   5.262   0.519
 3714TIP3   OH211147   5.063   5.000   2.690
 3714TIP3    H111148   5.059   4.916   2.736
 3714TIP3    H211149   5.029   5.064   2.753
 3715TIP3   OH211150   6.077   4.173   4.358
 3715TIP3    H111151   6.030   4.240   4.308
 3715TIP3    H211152   6.142   4.222   4.409
 3716TIP3   OH211153   5.650   4.409   0.313
 3716TIP3    H111154   5.720   4.471   0.333
 3716TIP3    H211155   5.609   4.391   0.397
 3717TIP3   OH211156   1.984   0.675   0.158
 3717TIP3    H111157   2.020   0.588   0.177
 3717TIP3    H211158   1.963   0.711   0.244
 3718TIP3   OH211159   3.357   5.445   5.006
 3718TIP3    H111160   3.449   5.440   5.034
 3718TIP3    H211161   3.317   5.507   5.067
 3719TIP3   OH211162   0.770   4.571   0.273
 3719TIP3    H111163   0.800   4.503   0.332
 3719TIP3    H211164   0.848   4.624   0.256
 3720TIP3   OH211165   0.167   0.318   4.377
 3720TIP3    H111166   0.172   0.412   4.395
 3720TIP3    H211167   0.251   0.283   4.407
 3721TIP3   OH211168   5.839   5.555   3.815
 3721TIP3    H111169   5.780   5.586   3.747
 3721TIP3    H211170   5.808   5.596   3.895
 3722TIP3   OH211171   3.083   4.467   1.937
 3722TIP3    H111172   3.107   4.556   1.963
 3722TIP3    H211173   2.995   4.454   1.971
 3723TIP3   OH211174   0.141   2.033   3.524
 3723TIP3    H111175   0.230   2.066   3.509
 3723TIP3    H211176   0.136   2.022   3.619
 3724TIP3   OH211177   2.337   3.720   5.174
 3724TIP3    H111178   2.271   3.659   5.208
 3724TIP3    H211179   2.416   3.668   5.167
 3725TIP3   OH211180   4.674   1.768   0.025
 3725TIP3    H111181   4.622   1.794   0.102
 3725TIP3    H211182   4.763   1.793   0.046
 3726TIP3   OH211183   0.844   0.809   0.781
 3726TIP3    H111184   0.883   0.782   0.698
 3726TIP3    H211185   0.752   0.782   0.774
 3727TIP3   OH211186   4.978   2.959   3.913
 3727TIP3    H111187   4.895   2.985   3.953
 3727TIP3    H211188   4.971   2.864   3.904
 3728TIP3   OH211189   5.901   1.029   1.680
 3728TIP3    H111190   5.941   1.011   1.766
 3728TIP3    H211191   5.831   1.092   1.699
 3729TIP3   OH211192   3.445   1.944   2.857
 3729TIP3    H111193   3.407   2.017   2.808
 3729TIP3    H211194   3.518   1.983   2.906
 3730TIP3   OH211195   1.642   5.724   3.995
 3730TIP3    H111196   1.678   5.777   4.066
 3730TIP3    H211197   1.578   5.667   4.038
 3731TIP3   OH211198   1.707   4.437   4.253
 3731TIP3    H111199   1.778   4.501   4.257
 3731TIP3    H211200   1.751   4.352   4.245
 3732TIP3   OH211201   2.708   4.623   4.304
 3732TIP3    H111202   2.709   4.531   4.329
 3732TIP3    H211203   2.800   4.645   4.288
 3733TIP3   OH211204   4.081   3.536   1.914
 3733TIP3    H111205   4.123   3.484   1.845
 3733TIP3    H211206   4.036   3.606   1.867
 3734TIP3   OH211207   4.776   4.470   1.867
 3734TIP3    H111208   4.846   4.407   1.850
 3734TIP3    H211209   4.802   4.514   1.948
 3735TIP3   OH211210   2.182   3.074   2.625
 3735TIP3    H111211   2.144   2.994   2.589
 3735TIP3    H211212   2.141   3.144   2.575
 3736TIP3   OH211213   5.433   2.933   1.644
 3736TIP3    H111214   5.371   2.868   1.610
 3736TIP3    H211215   5.410   2.942   1.737
 3737TIP3   OH211216   4.102   1.157   0.563
 3737TIP3    H111217   4.029   1.175   0.505
 3737TIP3    H211218   4.174   1.133   0.505
 3738TIP3   OH211219   0.329  -0.003   1.276
 3738TIP3    H111220   0.412  -0.030   1.238
 3738TIP3    H211221   0.263  -0.058   1.235
 3739TIP3   OH211222   3.733   1.275   4.057
 3739TIP3    H111223   3.656   1.290   4.002
 3739TIP3    H211224   3.790   1.220   4.004
 3740TIP3   OH211225   3.010   0.902   3.884
 3740TIP3    H111226   3.021   0.995   3.904
 3740TIP3    H211227   2.946   0.871   3.948
 3741TIP3   OH211228   4.418   4.772   3.254
 3741TIP3    H111229   4.370   4.707   3.305
 3741TIP3    H211230   4.406   4.854   3.302
 3742TIP3   OH211231   3.629   2.448   1.862
 3742TIP3    H111232   3.716   2.485   1.877
 3742TIP3    H211233   3.634   2.410   1.774
 3743TIP3   OH211234   5.895   1.588   2.038
 3743TIP3    H111235   5.830   1.613   2.103
 3743TIP3    H211236   5.969   1.557   2.089
 3744TIP3   OH211237   0.262   2.229   3.867
 3744TIP3    H111238   0.250   2.156   3.807
 3744TIP3    H211239   0.352   2.221   3.899
 3745TIP3   OH211240   5.657   2.968   2.106
 3745TIP3    H111241   5.595   3.003   2.042
 3745TIP3    H211242   5.646   3.024   2.183
 3746TIP3   OH211243   3.388   1.999   4.976
 3746TIP3    H111244   3.465   2.055   4.985
 3746TIP3    H211245   3.384   1.951   5.059
 3747TIP3   OH211246   1.795   3.228   2.983
 3747TIP3    H111247   1.810   3.175   3.061
 3747TIP3    H211248   1.864   3.293   2.983
 3748TIP3   OH211249   5.587   1.793   3.073
 3748TIP3    H111250   5.505   1.760   3.035
 3748TIP3    H211251   5.583   1.887   3.059
 3749TIP3   OH211252   1.585   1.747   0.107
 3749TIP3    H111253   1.657   1.768   0.166
 3749TIP3    H211254   1.513   1.804   0.135
 3750TIP3   OH211255   3.837   1.439   0.520
 3750TIP3    H111256   3.828   1.519   0.571
 3750TIP3    H211257   3.820   1.466   0.429
 3751TIP3   OH211258   0.435   3.788   1.736
 3751TIP3    H111259   0.355   3.816   1.691
 3751TIP3    H211260   0.483   3.869   1.753
 3752TIP3   OH211261   0.800   4.984   2.477
 3752TIP3    H111262   0.828   4.907   2.527
 3752TIP3    H211263   0.746   5.034   2.538
 3753TIP3   OH211264   4.795   2.906   5.183
 3753TIP3    H111265   4.798   2.823   5.136
 3753TIP3    H211266   4.719   2.899   5.240
 3754TIP3   OH211267   2.916   4.065   3.128
 3754TIP3    H111268   3.010   4.061   3.143
 3754TIP3    H211269   2.898   4.157   3.109
 3755TIP3   OH211270   4.061   1.702   4.129
 3755TIP3    H111271   4.040   1.707   4.036
 3755TIP3    H211272   4.065   1.793   4.158
 3756TIP3   OH211273   1.318   5.046   1.563
 3756TIP3    H111274   1.372   5.117   1.597
 3756TIP3    H211275   1.284   5.002   1.641
 3757TIP3   OH211276   4.903   3.682   1.024
 3757TIP3    H111277   4.852   3.686   1.105
 3757TIP3    H211278   4.910   3.774   0.996
 3758TIP3   OH211279   4.539   4.309   1.614
 3758TIP3    H111280   4.572   4.234   1.663
 3758TIP3    H211281   4.493   4.362   1.678
 3759TIP3   OH211282   4.638   0.985   3.860
 3759TIP3    H111283   4.606   1.055   3.917
 3759TIP3    H211284   4.688   1.031   3.792
 3760TIP3   OH211285  -0.001   1.404   3.374
 3760TIP3    H111286   0.018   1.495   3.350
 3760TIP3    H211287  -0.001   1.356   3.291
 3761TIP3   OH211288   5.687   4.415   2.871
 3761TIP3    H111289   5.765   4.408   2.815
 3761TIP3    H211290   5.694   4.501   2.912
 3762TIP3   OH211291   6.063   3.353   0.960
 3762TIP3    H111292   6.053   3.263   0.990
 3762TIP3    H211293   5.973   3.386   0.953
 3763TIP3   OH211294   5.006   1.118   3.511
 3763TIP3    H111295   4.996   1.210   3.490
 3763TIP3    H211296   5.021   1.075   3.427
 3764TIP3   OH211297   4.070   3.890   0.162
 3764TIP3    H111298   4.027   3.817   0.206
 3764TIP3    H211299   4.089   3.857   0.074
 3765TIP3   OH211300   1.850   0.045   1.429
 3765TIP3    H111301   1.894   0.002   1.502
 3765TIP3    H211302   1.776   0.090   1.469
 3766TIP3   OH211303   0.990   1.860   0.732
 3766TIP3    H111304   1.037   1.778   0.721
 3766TIP3    H211305   0.977   1.893   0.643
 3767TIP3   OH211306   3.954   0.637   1.741
 3767TIP3    H111307   3.977   0.610   1.652
 3767TIP3    H211308   3.997   0.572   1.797
 3768TIP3   OH211309   2.700   2.261   2.628
 3768TIP3    H111310   2.687   2.263   2.723
 3768TIP3    H211311   2.723   2.351   2.605
 3769TIP3   OH211312   2.455   3.345   4.939
 3769TIP3    H111313   2.511   3.309   5.008
 3769TIP3    H211314   2.378   3.379   4.985
 3770TIP3   OH211315   0.670   2.901   1.740
 3770TIP3    H111316   0.697   2.815   1.770
 3770TIP3    H211317   0.580   2.911   1.771
 3771TIP3   OH211318   4.397   5.447   2.999
 3771TIP3    H111319   4.360   5.361   3.018
 3771TIP3    H211320   4.436   5.438   2.912
 3772TIP3   OH211321   1.636   4.961   3.292
 3772TIP3    H111322   1.628   4.871   3.263
 3772TIP3    H211323   1.722   4.966   3.334
 3773TIP3   OH211324   1.801   0.280   0.553
 3773TIP3    H111325   1.796   0.231   0.635
 3773TIP3    H211326   1.865   0.349   0.571
 3774TIP3   OH211327   0.977   3.287   1.677
 3774TIP3    H111328   0.963   3.336   1.596
 3774TIP3    H211329   0.894   3.240   1.691
 3775TIP3   OH211330   2.756   1.387   1.056
 3775TIP3    H111331   2.714   1.304   1.078
 3775TIP3    H211332   2.721   1.409   0.970
 3776TIP3   OH211333   3.937   2.915   2.740
 3776TIP3    H111334   3.923   2.921   2.834
 3776TIP3    H211335   3.957   3.004   2.712
 3777TIP3   OH211336   4.402   2.216   5.048
 3777TIP3    H111337   4.354   2.140   5.080
 3777TIP3    H211338   4.419   2.268   5.126
 3778TIP3   OH211339   3.413   2.074   3.852
 3778TIP3    H111340   3.370   2.096   3.934
 3778TIP3    H211341   3.383   2.140   3.790
 3779TIP3   OH211342   1.419   4.841   3.791
 3779TIP3    H111343   1.414   4.761   3.844
 3779TIP3    H211344   1.333   4.881   3.800
 3780TIP3   OH211345   5.054   5.045   4.432
 3780TIP3    H111346   5.044   4.952   4.452
 3780TIP3    H211347   4.967   5.082   4.444
 3781TIP3   OH211348   1.061   2.809   3.255
 3781TIP3    H111349   1.050   2.882   3.316
 3781TIP3    H211350   1.030   2.732   3.304
 3782TIP3   OH211351   5.458   0.831   2.365
 3782TIP3    H111352   5.494   0.754   2.411
 3782TIP3    H211353   5.448   0.897   2.434
 3783TIP3   OH211354   3.476   0.806   0.965
 3783TIP3    H111355   3.429   0.856   1.032
 3783TIP3    H211356   3.469   0.715   0.993
 3784TIP3   OH211357   0.235   4.537   4.642
 3784TIP3    H111358   0.253   4.630   4.628
 3784TIP3    H211359   0.206   4.532   4.733
 3785TIP3   OH211360   3.061   5.358   2.571
 3785TIP3    H111361   3.010   5.407   2.507
 3785TIP3    H211362   3.051   5.267   2.544
 3786TIP3   OH211363   5.183   5.985   3.666
 3786TIP3    H111364   5.140   5.907   3.632
 3786TIP3    H211365   5.137   6.058   3.625
 3787TIP3   OH211366   0.438   3.124   0.297
 3787TIP3    H111367   0.471   3.199   0.345
 3787TIP3    H211368   0.509   3.059   0.302
 3788TIP3   OH211369   1.714   3.244   1.705
 3788TIP3    H111370   1.624   3.272   1.688
 3788TIP3    H211371   1.710   3.203   1.791
 3789TIP3   OH211372   3.814   2.197   2.777
 3789TIP3    H111373   3.852   2.159   2.697
 3789TIP3    H211374   3.873   2.270   2.798
 3790TIP3   OH211375   1.511   1.988   4.110
 3790TIP3    H111376   1.563   1.928   4.165
 3790TIP3    H211377   1.511   2.070   4.159
 3791TIP3   OH211378   0.787   2.591   4.686
 3791TIP3    H111379   0.796   2.677   4.726
 3791TIP3    H211380   0.867   2.545   4.710
 3792TIP3   OH211381   3.306   4.855   3.144
 3792TIP3    H111382   3.316   4.934   3.198
 3792TIP3    H211383   3.367   4.792   3.182
 3793TIP3   OH211384   2.875   5.546   4.600
 3793TIP3    H111385   2.929   5.611   4.644
 3793TIP3    H211386   2.935   5.474   4.581
 3794TIP3   OH211387   3.869   4.976   0.505
 3794TIP3    H111388   3.777   4.990   0.530
 3794TIP3    H211389   3.917   5.044   0.552
 3795TIP3   OH211390   3.221   1.191   0.522
 3795TIP3    H111391   3.163   1.115   0.519
 3795TIP3    H211392   3.169   1.259   0.564
 3796TIP3   OH211393   4.833   5.388   0.068
 3796TIP3    H111394   4.798   5.339  -0.007
 3796TIP3    H211395   4.920   5.416   0.040
 3797TIP3   OH211396   1.163   4.677   4.564
 3797TIP3    H111397   1.253   4.686   4.597
 3797TIP3    H211398   1.171   4.620   4.488
 3798TIP3   OH211399   1.541   3.844   2.469
 3798TIP3    H111400   1.564   3.754   2.492
 3798TIP3    H211401   1.497   3.879   2.547
 3799TIP3   OH211402   3.724   3.295   3.228
 3799TIP3    H111403   3.631   3.273   3.232
 3799TIP3    H211404   3.767   3.227   3.280
 3800TIP3   OH211405   1.265   4.870   1.791
 3800TIP3    H111406   1.231   4.863   1.880
 3800TIP3    H211407   1.196   4.833   1.736
 3801TIP3   OH211408   5.904   3.634   4.546
 3801TIP3    H111409   5.993   3.617   4.575
 3801TIP3    H211410   5.886   3.723   4.575
 3802TIP3   OH211411   0.774   3.939   1.038
 3802TIP3    H111412   0.849   3.935   1.097
 3802TIP3    H211413   0.706   3.889   1.082
 3803TIP3   OH211414   2.802   0.829   2.243
 3803TIP3    H111415   2.850   0.909   2.263
 3803TIP3    H211416   2.725   0.832   2.300
 3804TIP3   OH211417   4.571   5.409   3.799
 3804TIP3    H111418   4.565   5.318   3.827
 3804TIP3    H211419   4.530   5.459   3.870
 3805TIP3   OH211420   1.975   1.573   0.173
 3805TIP3    H111421   1.980   1.489   0.218
 3805TIP3    H211422   1.897   1.566   0.118
 3806TIP3   OH211423   1.394   0.230   3.433
 3806TIP3    H111424   1.360   0.303   3.484
 3806TIP3    H211425   1.351   0.238   3.348
 3807TIP3   OH211426  -0.038   1.035   2.669
 3807TIP3    H111427  -0.001   1.123   2.678
 3807TIP3    H211428   0.034   0.982   2.634
 3808TIP3   OH211429   2.169   2.517   4.881
 3808TIP3    H111430   2.128   2.475   4.806
 3808TIP3    H211431   2.123   2.482   4.957
 3809TIP3   OH211432   3.476   0.492   2.341
 3809TIP3    H111433   3.551   0.434   2.353
 3809TIP3    H211434   3.418   0.442   2.283
 3810TIP3   OH211435   5.822   0.675   2.855
 3810TIP3    H111436   5.726   0.669   2.859
 3810TIP3    H211437   5.850   0.589   2.822
 3811TIP3   OH211438   1.534   5.656   3.393
 3811TIP3    H111439   1.529   5.730   3.454
 3811TIP3    H211440   1.624   5.625   3.400
 3812TIP3   OH211441   1.510   1.131   3.556
 3812TIP3    H111442   1.450   1.072   3.511
 3812TIP3    H211443   1.494   1.115   3.650
 3813TIP3   OH211444   4.957   3.065   0.117
 3813TIP3    H111445   5.031   3.005   0.108
 3813TIP3    H211446   4.983   3.143   0.069
 3814TIP3   OH211447   5.576   1.940   4.734
 3814TIP3    H111448   5.568   1.845   4.729
 3814TIP3    H211449   5.496   1.973   4.694
 3815TIP3   OH211450   0.835   0.257   2.404
 3815TIP3    H111451   0.847   0.331   2.463
 3815TIP3    H211452   0.923   0.221   2.393
 3816TIP3   OH211453   3.971   2.405   2.807
 3816TIP3    H111454   3.960   2.436   2.717
 3816TIP3    H211455   4.062   2.426   2.828
 3817TIP3   OH211456   2.371   5.478   1.336
 3817TIP3    H111457   2.459   5.516   1.343
 3817TIP3    H211458   2.366   5.448   1.245
 3818TIP3   OH211459   1.171   0.858   1.523
 3818TIP3    H111460   1.116   0.781   1.541
 3818TIP3    H211461   1.179   0.902   1.608
 3819TIP3   OH211462   1.651   4.077   2.880
 3819TIP3    H111463   1.727   4.019   2.867
 3819TIP3    H211464   1.688   4.165   2.879
 3820TIP3   OH211465   4.230   0.165   2.010
 3820TIP3    H111466   4.225   0.125   1.923
 3820TIP3    H211467   4.302   0.227   2.004
 3821TIP3   OH211468   1.828   1.648   1.437
 3821TIP3    H111469   1.886   1.634   1.512
 3821TIP3    H211470   1.751   1.595   1.455
 3822TIP3   OH211471   4.031   3.818   1.482
 3822TIP3    H111472   4.039   3.817   1.387
 3822TIP3    H211473   4.085   3.744   1.511
 3823TIP3   OH211474   3.693   5.498   2.668
 3823TIP3    H111475   3.643   5.580   2.671
 3823TIP3    H211476   3.694   5.467   2.758
 3824TIP3   OH211477   3.037   3.236   1.490
 3824TIP3    H111478   3.044   3.141   1.498
 3824TIP3    H211479   3.115   3.262   1.442
 3825TIP3   OH211480   5.621   2.141   1.838
 3825TIP3    H111481   5.637   2.172   1.749
 3825TIP3    H211482   5.708   2.132   1.876
 3826TIP3   OH211483   4.805   2.811   4.638
 3826TIP3    H111484   4.821   2.838   4.729
 3826TIP3    H211485   4.760   2.886   4.599
 3827TIP3   OH211486   0.095   1.246   0.318
 3827TIP3    H111487   0.165   1.295   0.362
 3827TIP3    H211488   0.140   1.174   0.274
 3828TIP3   OH211489   1.808   1.092   3.538
 3828TIP3    H111490   1.803   1.024   3.470
 3828TIP3    H211491   1.719   1.099   3.572
 3829TIP3   OH211492   0.187   5.658   2.412
 3829TIP3    H111493   0.145   5.582   2.372
 3829TIP3    H211494   0.279   5.633   2.419
 3830TIP3   OH211495   2.933   4.097   1.657
 3830TIP3    H111496   3.010   4.149   1.634
 3830TIP3    H211497   2.869   4.161   1.686
 3831TIP3   OH211498   3.769   3.750   1.362
 3831TIP3    H111499   3.832   3.810   1.404
 3831TIP3    H211500   3.750   3.685   1.430
 3832TIP3   OH211501   6.288   0.305   3.035
 3832TIP3    H111502   6.336   0.284   3.115
 3832TIP3    H211503   6.208   0.348   3.066
 3833TIP3   OH211504   2.232   2.616   2.784
 3833TIP3    H111505   2.228   2.622   2.689
 3833TIP3    H211506   2.174   2.686   2.815
 3834TIP3   OH211507   2.264   5.590   3.219
 3834TIP3    H111508   2.288   5.533   3.146
 3834TIP3    H211509   2.347   5.606   3.265
 3835TIP3   OH211510   2.770   1.399   1.901
 3835TIP3    H111511   2.792   1.361   1.816
 3835TIP3    H211512   2.692   1.451   1.885
 3836TIP3   OH211513   2.144   4.638   4.631
 3836TIP3    H111514   2.201   4.695   4.682
 3836TIP3    H211515   2.072   4.694   4.604
 3837TIP3   OH211516   5.363   0.598   3.840
 3837TIP3    H111517   5.448   0.625   3.806
 3837TIP3    H211518   5.314   0.572   3.761
 3838TIP3   OH211519   4.143   1.486   1.735
 3838TIP3    H111520   4.210   1.541   1.777
 3838TIP3    H211521   4.100   1.442   1.808
 3839TIP3   OH211522   1.176   1.073   1.382
 3839TIP3    H111523   1.095   1.072   1.332
 3839TIP3    H211524   1.190   0.983   1.410
 3840TIP3   OH211525   3.914   2.660   1.117
 3840TIP3    H111526   3.909   2.567   1.093
 3840TIP3    H211527   3.921   2.706   1.034
 3841TIP3   OH211528   3.255   5.426   1.185
 3841TIP3    H111529   3.324   5.475   1.229
 3841TIP3    H211530   3.197   5.494   1.149
 3842TIP3   OH211531   1.889   2.884   1.809
 3842TIP3    H111532   1.801   2.886   1.770
 3842TIP3    H211533   1.904   2.791   1.827
 3843TIP3   OH211534   2.776   0.616   3.952
 3843TIP3    H111535   2.683   0.624   3.931
 3843TIP3    H211536   2.798   0.698   3.995
 3844TIP3   OH211537   1.947   5.046   1.397
 3844TIP3    H111538   2.030   4.997   1.403
 3844TIP3    H211539   1.880   4.981   1.416
 3845TIP3   OH211540   6.127   1.331   1.004
 3845TIP3    H111541   6.124   1.399   1.071
 3845TIP3    H211542   6.091   1.373   0.926
 3846TIP3   OH211543   2.050   3.319   3.686
 3846TIP3    H111544   2.083   3.409   3.693
 3846TIP3    H211545   1.989   3.311   3.759
 3847TIP3   OH211546   0.649   2.660   2.978
 3847TIP3    H111547   0.563   2.668   3.019
 3847TIP3    H211548   0.705   2.625   3.046
 3848TIP3   OH211549   1.588   3.729   4.364
 3848TIP3    H111550   1.517   3.702   4.422
 3848TIP3    H211551   1.564   3.818   4.338
 3849TIP3   OH211552   1.996   5.220   4.389
 3849TIP3    H111553   1.994   5.146   4.328
 3849TIP3    H211554   1.973   5.296   4.335
 3850TIP3   OH211555   4.073   0.960   4.447
 3850TIP3    H111556   4.070   1.030   4.382
 3850TIP3    H211557   4.130   0.894   4.408
 3851TIP3   OH211558   0.597   0.841   4.904
 3851TIP3    H111559   0.584   0.809   4.815
 3851TIP3    H211560   0.509   0.851   4.939
 3852TIP3   OH211561   1.253   2.311   1.760
 3852TIP3    H111562   1.196   2.270   1.695
 3852TIP3    H211563   1.323   2.247   1.773
 3853TIP3   OH211564   5.943   2.669   0.241
 3853TIP3    H111565   5.929   2.677   0.336
 3853TIP3    H211566   5.984   2.752   0.216
 3854TIP3   OH211567   5.295   5.608   3.845
 3854TIP3    H111568   5.260   5.680   3.898
 3854TIP3    H211569   5.257   5.529   3.884
 3855TIP3   OH211570   2.067   4.840   3.130
 3855TIP3    H111571   2.087   4.774   3.063
 3855TIP3    H211572   2.151   4.860   3.170
 3856TIP3   OH211573   5.668   2.083   0.022
 3856TIP3    H111574   5.663   2.084  -0.074
 3856TIP3    H211575   5.746   2.032   0.041
 3857TIP3   OH211576   4.059   5.324   2.043
 3857TIP3    H111577   4.011   5.393   2.089
 3857TIP3    H211578   4.085   5.365   1.960
 3858TIP3   OH211579   6.237   0.881   4.270
 3858TIP3    H111580   6.172   0.943   4.236
 3858TIP3    H211581   6.273   0.924   4.347
 3859TIP3   OH211582   4.414   4.457   2.727
 3859TIP3    H111583   4.332   4.411   2.746
 3859TIP3    H211584   4.410   4.477   2.634
 3860TIP3   OH211585   3.066   1.090   1.160
 3860TIP3    H111586   3.122   1.099   1.237
 3860TIP3    H211587   3.115   1.034   1.100
 3861TIP3   OH211588   2.291   3.689   2.473
 3861TIP3    H111589   2.294   3.784   2.477
 3861TIP3    H211590   2.207   3.666   2.512
 3862TIP3   OH211591   2.721   0.246   2.377
 3862TIP3    H111592   2.700   0.167   2.327
 3862TIP3    H211593   2.684   0.230   2.464
 3863TIP3   OH211594   3.192   2.157   4.465
 3863TIP3    H111595   3.263   2.137   4.526
 3863TIP3    H211596   3.228   2.226   4.409
 3864TIP3   OH211597   0.997   4.322   3.585
 3864TIP3    H111598   1.089   4.304   3.603
 3864TIP3    H211599   0.963   4.241   3.548
 3865TIP3   OH211600   2.103   5.333   1.640
 3865TIP3    H111601   2.028   5.355   1.585
 3865TIP3    H211602   2.064   5.304   1.723
 3866TIP3   OH211603   2.511   0.540   2.971
 3866TIP3    H111604   2.558   0.459   2.988
 3866TIP3    H211605   2.555   0.606   3.025
 3867TIP3   OH211606   0.222   3.067   1.776
 3867TIP3    H111607   0.226   3.053   1.682
 3867TIP3    H211608   0.280   2.999   1.812
 3868TIP3   OH211609   6.170   3.442   4.639
 3868TIP3    H111610   6.146   3.535   4.636
 3868TIP3    H211611   6.156   3.416   4.730
 3869TIP3   OH211612   5.998   4.891   1.076
 3869TIP3    H111613   5.920   4.944   1.091
 3869TIP3    H211614   6.071   4.953   1.085
 3870TIP3   OH211615   5.762   5.842   5.139
 3870TIP3    H111616   5.846   5.795   5.144
 3870TIP3    H211617   5.785   5.934   5.153
 3871TIP3   OH211618   1.930   3.603   2.303
 3871TIP3    H111619   1.960   3.567   2.219
 3871TIP3    H211620   2.005   3.650   2.338
 3872TIP3   OH211621   3.464   3.386   0.645
 3872TIP3    H111622   3.461   3.292   0.625
 3872TIP3    H211623   3.546   3.397   0.692
 3873TIP3   OH211624   3.447   4.239   4.740
 3873TIP3    H111625   3.372   4.216   4.684
 3873TIP3    H211626   3.524   4.211   4.689
 3874TIP3   OH211627   2.358   1.687   0.008
 3874TIP3    H111628   2.274   1.653   0.037
 3874TIP3    H211629   2.354   1.684  -0.088
 3875TIP3   OH211630   6.074   3.294   4.893
 3875TIP3    H111631   6.055   3.211   4.936
 3875TIP3    H211632   5.989   3.328   4.866
 3876TIP3   OH211633   0.214   3.344   4.148
 3876TIP3    H111634   0.229   3.417   4.088
 3876TIP3    H211635   0.141   3.372   4.203
 3877TIP3   OH211636   4.356   5.067   3.897
 3877TIP3    H111637   4.438   5.114   3.909
 3877TIP3    H211638   4.307   5.084   3.978
 3878TIP3   OH211639   3.524   5.511   1.855
 3878TIP3    H111640   3.525   5.419   1.883
 3878TIP3    H211641   3.455   5.551   1.908
 3879TIP3   OH211642   1.647   5.260   1.467
 3879TIP3    H111643   1.705   5.278   1.393
 3879TIP3    H211644   1.694   5.196   1.520
 3880TIP3   OH211645   1.393   3.381   2.126
 3880TIP3    H111646   1.347   3.429   2.056
 3880TIP3    H211647   1.394   3.291   2.096
 3881TIP3   OH211648   2.894   2.912   4.686
 3881TIP3    H111649   2.979   2.923   4.728
 3881TIP3    H211650   2.853   2.999   4.694
 3882TIP3   OH211651   0.359   3.881   3.963
 3882TIP3    H111652   0.414   3.823   3.911
 3882TIP3    H211653   0.378   3.857   4.054
 3883TIP3   OH211654   1.480   2.752   1.973
 3883TIP3    H111655   1.494   2.840   2.008
 3883TIP3    H211656   1.407   2.716   2.024
 3884TIP3   OH211657   2.013   2.119   2.679
 3884TIP3    H111658   1.993   2.149   2.768
 3884TIP3    H211659   1.949   2.050   2.662
 3885TIP3   OH211660   6.125   3.958   0.799
 3885TIP3    H111661   6.058   4.025   0.803
 3885TIP3    H211662   6.118   3.912   0.883
 3886TIP3   OH211663   0.054   0.802   5.172
 3886TIP3    H111664   0.076   0.894   5.179
 3886TIP3    H211665  -0.017   0.789   5.235
 3887TIP3   OH211666   0.205   3.383   0.930
 3887TIP3    H111667   0.276   3.434   0.970
 3887TIP3    H211668   0.171   3.439   0.860
 3888TIP3   OH211669   0.914   3.767   5.036
 3888TIP3    H111670   0.989   3.819   5.065
 3888TIP3    H211671   0.841   3.798   5.091
 3889TIP3   OH211672   1.406   1.925   0.210
 3889TIP3    H111673   1.380   1.861   0.275
 3889TIP3    H211674   1.333   1.987   0.207
 3890TIP3   OH211675   5.239   2.689   0.287
 3890TIP3    H111676   5.158   2.731   0.317
 3890TIP3    H211677   5.283   2.661   0.367
 3891TIP3   OH211678   4.986   2.207   3.561
 3891TIP3    H111679   4.942   2.213   3.646
 3891TIP3    H211680   4.952   2.282   3.511
 3892TIP3   OH211681   5.320   4.444   2.328
 3892TIP3    H111682   5.324   4.482   2.415
 3892TIP3    H211683   5.331   4.519   2.269
 3893TIP3   OH211684   4.706   2.541   4.808
 3893TIP3    H111685   4.746   2.540   4.721
 3893TIP3    H211686   4.638   2.474   4.804
 3894TIP3   OH211687   5.351   4.059   4.388
 3894TIP3    H111688   5.439   4.089   4.365
 3894TIP3    H211689   5.347   3.969   4.356
 3895TIP3   OH211690   6.338   2.405   3.704
 3895TIP3    H111691   6.406   2.357   3.752
 3895TIP3    H211692   6.291   2.453   3.772
 3896TIP3   OH211693   1.360   4.334   1.696
 3896TIP3    H111694   1.345   4.358   1.605
 3896TIP3    H211695   1.448   4.298   1.698
 3897TIP3   OH211696   0.687   5.494   5.110
 3897TIP3    H111697   0.687   5.458   5.199
 3897TIP3    H211698   0.750   5.440   5.062
 3898TIP3   OH211699   0.564   2.893   3.767
 3898TIP3    H111700   0.592   2.963   3.826
 3898TIP3    H211701   0.561   2.935   3.681
 3899TIP3   OH211702   2.649   3.872   2.789
 3899TIP3    H111703   2.615   3.894   2.876
 3899TIP3    H211704   2.607   3.789   2.768
 3900TIP3   OH211705   2.974   1.294   0.659
 3900TIP3    H111706   2.898   1.247   0.625
 3900TIP3    H211707   2.990   1.257   0.745
 3901TIP3   OH211708   2.617   3.289   3.390
 3901TIP3    H111709   2.522   3.285   3.396
 3901TIP3    H211710   2.635   3.366   3.336
 3902TIP3   OH211711   0.235   4.959   2.802
 3902TIP3    H111712   0.268   4.998   2.883
 3902TIP3    H211713   0.157   4.910   2.829
 3903TIP3   OH211714   5.120   0.220   3.381
 3903TIP3    H111715   5.067   0.293   3.414
 3903TIP3    H211716   5.207   0.234   3.419
 3904TIP3   OH211717   3.430   4.968   4.434
 3904TIP3    H111718   3.427   4.954   4.529
 3904TIP3    H211719   3.497   5.036   4.422
 3905TIP3   OH211720   2.805   4.858   4.045
 3905TIP3    H111721   2.739   4.923   4.068
 3905TIP3    H211722   2.876   4.909   4.006
 3906TIP3   OH211723   4.498   1.442   2.861
 3906TIP3    H111724   4.572   1.443   2.922
 3906TIP3    H211725   4.432   1.389   2.905
 3907TIP3   OH211726   6.032   2.806   2.770
 3907TIP3    H111727   6.072   2.873   2.714
 3907TIP3    H211728   5.988   2.747   2.709
 3908TIP3   OH211729   6.136   2.967   3.221
 3908TIP3    H111730   6.156   2.920   3.302
 3908TIP3    H211731   6.137   3.059   3.247
 3909TIP3   OH211732   1.506   2.521   3.611
 3909TIP3    H111733   1.473   2.446   3.562
 3909TIP3    H211734   1.541   2.483   3.692
 3910TIP3   OH211735   1.380   1.010   4.982
 3910TIP3    H111736   1.336   1.003   5.066
 3910TIP3    H211737   1.387   1.104   4.966
 3911TIP3   OH211738   5.240   0.626   4.504
 3911TIP3    H111739   5.291   0.706   4.514
 3911TIP3    H211740   5.218   0.623   4.411
 3912TIP3   OH211741   5.711   2.129   2.563
 3912TIP3    H111742   5.758   2.191   2.508
 3912TIP3    H211743   5.639   2.098   2.508
 3913TIP3   OH211744   1.325   1.627   3.066
 3913TIP3    H111745   1.381   1.704   3.067
 3913TIP3    H211746   1.318   1.602   2.974
 3914TIP3   OH211747   4.844   1.145   1.978
 3914TIP3    H111748   4.786   1.211   1.940
 3914TIP3    H211749   4.929   1.187   1.982
 3915TIP3   OH211750   0.075   2.891   3.989
 3915TIP3    H111751   0.158   2.925   3.955
 3915TIP3    H211752   0.088   2.796   3.991
 3916TIP3   OH211753   5.873   1.412   3.612
 3916TIP3    H111754   5.924   1.457   3.679
 3916TIP3    H211755   5.922   1.424   3.531
 3917TIP3   OH211756   4.639   0.158   2.668
 3917TIP3    H111757   4.594   0.235   2.634
 3917TIP3    H211758   4.659   0.180   2.759
 3918TIP3   OH211759   0.188   3.199   4.710
 3918TIP3    H111760   0.148   3.192   4.623
 3918TIP3    H211761   0.114   3.202   4.770
 3919TIP3   OH211762   1.014   5.977   1.273
 3919TIP3    H111763   0.930   5.993   1.316
 3919TIP3    H211764   1.076   5.966   1.346
 3920TIP3   OH211765   4.543   2.115   0.563
 3920TIP3    H111766   4.581   2.196   0.596
 3920TIP3    H211767   4.548   2.124   0.467
 3921TIP3   OH211768   3.010   2.993   4.005
 3921TIP3    H111769   3.004   2.972   3.912
 3921TIP3    H211770   2.939   2.943   4.045
 3922TIP3   OH211771   5.806   3.448   4.352
 3922TIP3    H111772   5.743   3.391   4.397
 3922TIP3    H211773   5.845   3.500   4.422
 3923TIP3   OH211774   5.793   1.553   4.911
 3923TIP3    H111775   5.860   1.487   4.892
 3923TIP3    H211776   5.766   1.534   5.001
 3924TIP3   OH211777   3.886   4.425   3.565
 3924TIP3    H111778   3.947   4.498   3.554
 3924TIP3    H211779   3.802   4.467   3.584
 3925TIP3   OH211780   4.306   1.204   3.193
 3925TIP3    H111781   4.326   1.112   3.211
 3925TIP3    H211782   4.321   1.248   3.276
 3926TIP3   OH211783   4.943   4.514   4.903
 3926TIP3    H111784   4.931   4.563   4.984
 3926TIP3    H211785   4.971   4.427   4.932
 3927TIP3   OH211786   3.394   0.337   4.151
 3927TIP3    H111787   3.446   0.257   4.141
 3927TIP3    H211788   3.391   0.375   4.063
 3928TIP3   OH211789   5.244   2.419   1.036
 3928TIP3    H111790   5.240   2.510   1.067
 3928TIP3    H211791   5.162   2.380   1.065
 3929TIP3   OH211792   1.370   3.951   1.723
 3929TIP3    H111793   1.346   3.986   1.809
 3929TIP3    H211794   1.360   3.857   1.732
 3930TIP3   OH211795   2.838   4.100   4.535
 3930TIP3    H111796   2.822   4.042   4.460
 3930TIP3    H211797   2.751   4.118   4.570
 3931TIP3   OH211798   2.035   1.628   5.021
 3931TIP3    H111799   1.980   1.671   4.955
 3931TIP3    H211800   1.976   1.613   5.095
 3932TIP3   OH211801   2.171   4.434   0.966
 3932TIP3    H111802   2.128   4.394   1.042
 3932TIP3    H211803   2.162   4.369   0.896
 3933TIP3   OH211804   2.273   4.971   0.784
 3933TIP3    H111805   2.222   5.049   0.761
 3933TIP3    H211806   2.332   5.001   0.853
 3934TIP3   OH211807   5.300   2.407   1.609
 3934TIP3    H111808   5.288   2.472   1.539
 3934TIP3    H211809   5.304   2.323   1.564
 3935TIP3   OH211810   4.553   3.727   2.127
 3935TIP3    H111811   4.628   3.717   2.069
 3935TIP3    H211812   4.482   3.680   2.083
 3936TIP3   OH211813   2.650   3.789   4.957
 3936TIP3    H111814   2.678   3.698   4.950
 3936TIP3    H211815   2.676   3.829   4.874
 3937TIP3   OH211816   3.196   2.497   1.477
 3937TIP3    H111817   3.171   2.405   1.472
 3937TIP3    H211818   3.113   2.545   1.473
 3938TIP3   OH211819   2.830   2.315   2.165
 3938TIP3    H111820   2.841   2.288   2.074
 3938TIP3    H211821   2.920   2.321   2.199
 3939TIP3   OH211822   1.675   4.648   1.404
 3939TIP3    H111823   1.748   4.701   1.437
 3939TIP3    H211824   1.597   4.698   1.428
 3940TIP3   OH211825   5.232   1.461   3.290
 3940TIP3    H111826   5.307   1.519   3.302
 3940TIP3    H211827   5.268   1.373   3.300
 3941TIP3   OH211828   6.004   0.521   0.788
 3941TIP3    H111829   5.935   0.484   0.842
 3941TIP3    H211830   6.022   0.606   0.827
 3942TIP3   OH211831   2.934   3.176   1.784
 3942TIP3    H111832   3.001   3.110   1.768
 3942TIP3    H211833   2.852   3.132   1.761
 3943TIP3   OH211834   6.293   2.373   1.037
 3943TIP3    H111835   6.289   2.449   1.094
 3943TIP3    H211836   6.311   2.299   1.095
 3944TIP3   OH211837   2.006   4.499   4.290
 3944TIP3    H111838   2.024   4.494   4.384
 3944TIP3    H211839   2.067   4.436   4.250
 3945TIP3   OH211840   2.366   5.743   0.957
 3945TIP3    H111841   2.369   5.747   0.861
 3945TIP3    H211842   2.427   5.673   0.980
 3946TIP3   OH211843   3.604   1.726   2.781
 3946TIP3    H111844   3.627   1.761   2.695
 3946TIP3    H211845   3.557   1.797   2.824
 3947TIP3   OH211846   2.159   0.341   3.751
 3947TIP3    H111847   2.142   0.265   3.694
 3947TIP3    H211848   2.152   0.416   3.692
 3948TIP3   OH211849   0.352   1.033   0.327
 3948TIP3    H111850   0.347   0.991   0.413
 3948TIP3    H211851   0.276   1.001   0.279
 3949TIP3   OH211852   0.686   0.879   3.799
 3949TIP3    H111853   0.669   0.805   3.858
 3949TIP3    H211854   0.706   0.839   3.714
 3950TIP3   OH211855   3.578   2.551   2.651
 3950TIP3    H111856   3.512   2.519   2.591
 3950TIP3    H211857   3.602   2.474   2.704
 3951TIP3   OH211858   4.422   3.149   0.233
 3951TIP3    H111859   4.454   3.128   0.321
 3951TIP3    H211860   4.499   3.139   0.177
 3952TIP3   OH211861   4.765   1.063   1.369
 3952TIP3    H111862   4.679   1.088   1.404
 3952TIP3    H211863   4.749   0.982   1.321
 3953TIP3   OH211864   3.188   0.264   0.747
 3953TIP3    H111865   3.189   0.201   0.819
 3953TIP3    H211866   3.209   0.348   0.788
 3954TIP3   OH211867   4.275   3.669   4.274
 3954TIP3    H111868   4.339   3.598   4.280
 3954TIP3    H211869   4.261   3.697   4.364
 3955TIP3   OH211870   3.395   4.872   3.944
 3955TIP3    H111871   3.424   4.952   3.899
 3955TIP3    H211872   3.356   4.904   4.026
 3956TIP3   OH211873   5.597   3.212   2.251
 3956TIP3    H111874   5.560   3.287   2.204
 3956TIP3    H211875   5.593   3.236   2.343
 3957TIP3   OH211876   4.693   1.378   1.911
 3957TIP3    H111877   4.616   1.356   1.859
 3957TIP3    H211878   4.660   1.384   2.001
 3958TIP3   OH211879   3.276   0.677   3.563
 3958TIP3    H111880   3.294   0.699   3.654
 3958TIP3    H211881   3.242   0.588   3.566
 3959TIP3   OH211882   6.228   0.152   1.383
 3959TIP3    H111883   6.235   0.197   1.467
 3959TIP3    H211884   6.150   0.189   1.342
 3960TIP3   OH211885   2.565   0.369   1.100
 3960TIP3    H111886   2.485   0.406   1.064
 3960TIP3    H211887   2.544   0.349   1.191
 3961TIP3   OH211888   3.207   5.560   0.141
 3961TIP3    H111889   3.301   5.567   0.156
 3961TIP3    H211890   3.169   5.631   0.193
 3962TIP3   OH211891   2.565   4.955   4.139
 3962TIP3    H111892   2.603   4.868   4.156
 3962TIP3    H211893   2.501   4.967   4.208
 3963TIP3   OH211894   0.046   0.216   4.130
 3963TIP3    H111895   0.086   0.254   4.208
 3963TIP3    H211896  -0.041   0.256   4.126
 3964TIP3   OH211897   4.869   4.610   2.104
 3964TIP3    H111898   4.855   4.631   2.197
 3964TIP3    H211899   4.963   4.620   2.090
 3965TIP3   OH211900   1.532   1.441   5.164
 3965TIP3    H111901   1.490   1.356   5.175
 3965TIP3    H211902   1.575   1.457   5.248
 3966TIP3   OH211903   5.798   3.270   0.565
 3966TIP3    H111904   5.847   3.345   0.600
 3966TIP3    H211905   5.751   3.306   0.489
 3967TIP3   OH211906   6.082   3.362   2.057
 3967TIP3    H111907   6.126   3.412   2.126
 3967TIP3    H211908   5.994   3.347   2.091
 3968TIP3   OH211909   1.026   4.770   1.691
 3968TIP3    H111910   0.986   4.827   1.625
 3968TIP3    H211911   0.980   4.792   1.773
 3969TIP3   OH211912   4.491   0.717   3.187
 3969TIP3    H111913   4.454   0.635   3.157
 3969TIP3    H211914   4.569   0.730   3.132
 3970TIP3   OH211915   4.005   2.861   5.113
 3970TIP3    H111916   3.918   2.860   5.072
 3970TIP3    H211917   4.062   2.815   5.052
 3971TIP3   OH211918   4.363   1.710   0.341
 3971TIP3    H111919   4.289   1.762   0.372
 3971TIP3    H211920   4.392   1.661   0.419
 3972TIP3   OH211921   2.516   1.386   2.915
 3972TIP3    H111922   2.517   1.446   2.990
 3972TIP3    H211923   2.491   1.302   2.952
 3973TIP3   OH211924   0.179   5.638   4.387
 3973TIP3    H111925   0.111   5.661   4.449
 3973TIP3    H211926   0.200   5.547   4.408
 3974TIP3   OH211927   3.396   2.590   4.782
 3974TIP3    H111928   3.327   2.655   4.797
 3974TIP3    H211929   3.386   2.528   4.854
 3975TIP3   OH211930   6.206   5.836   1.585
 3975TIP3    H111931   6.271   5.776   1.620
 3975TIP3    H211932   6.180   5.798   1.501
 3976TIP3   OH211933   4.291   1.687   3.142
 3976TIP3    H111934   4.254   1.718   3.224
 3976TIP3    H211935   4.218   1.687   3.081
 3977TIP3   OH211936   0.418   0.342   1.604
 3977TIP3    H111937   0.482   0.352   1.674
 3977TIP3    H211938   0.350   0.286   1.641
 3978TIP3   OH211939   5.962   3.674   1.400
 3978TIP3    H111940   5.959   3.617   1.477
 3978TIP3    H211941   5.894   3.739   1.416
 3979TIP3   OH211942   0.779   3.773   4.790
 3979TIP3    H111943   0.832   3.757   4.868
 3979TIP3    H211944   0.803   3.861   4.762
 3980TIP3   OH211945   2.146   4.575   3.813
 3980TIP3    H111946   2.138   4.620   3.896
 3980TIP3    H211947   2.235   4.592   3.783
 3981TIP3   OH211948   5.648   2.950   4.695
 3981TIP3    H111949   5.655   3.028   4.640
 3981TIP3    H211950   5.623   2.983   4.781
 3982TIP3   OH211951   4.354   0.057   3.643
 3982TIP3    H111952   4.443   0.081   3.617
 3982TIP3    H211953   4.310   0.141   3.658
 3983TIP3   OH211954   1.960   5.379   4.834
 3983TIP3    H111955   1.933   5.327   4.758
 3983TIP3    H211956   1.905   5.458   4.829
 3984TIP3   OH211957   1.414   1.921   2.047
 3984TIP3    H111958   1.497   1.951   2.083
 3984TIP3    H211959   1.352   1.932   2.119
 3985TIP3   OH211960   4.703   2.507   0.970
 3985TIP3    H111961   4.715   2.420   0.933
 3985TIP3    H211962   4.783   2.523   1.021
 3986TIP3   OH211963   1.148   5.643   4.228
 3986TIP3    H111964   1.070   5.688   4.259
 3986TIP3    H211965   1.220   5.701   4.251
 3987TIP3   OH211966   5.889   5.003   4.596
 3987TIP3    H111967   5.939   5.084   4.603
 3987TIP3    H211968   5.813   5.026   4.542
 3988TIP3   OH211969   5.585   1.347   3.515
 3988TIP3    H111970   5.647   1.377   3.582
 3988TIP3    H211971   5.621   1.379   3.433
 3989TIP3   OH211972   4.843   1.184   5.029
 3989TIP3    H111973   4.930   1.220   5.015
 3989TIP3    H211974   4.836   1.172   5.123
 3990TIP3   OH211975   3.327   2.900   2.973
 3990TIP3    H111976   3.255   2.926   3.031
 3990TIP3    H211977   3.322   2.961   2.900
 3991TIP3   OH211978   2.042   5.389   2.598
 3991TIP3    H111979   1.998   5.469   2.567
 3991TIP3    H211980   2.134   5.413   2.602
 3992TIP3   OH211981   4.563   5.685   1.863
 3992TIP3    H111982   4.482   5.734   1.848
 3992TIP3    H211983   4.573   5.682   1.958
 3993TIP3   OH211984   5.935   4.396   2.234
 3993TIP3    H111985   5.966   4.330   2.171
 3993TIP3    H211986   5.859   4.355   2.275
 3994TIP3   OH211987   0.292   2.517   3.704
 3994TIP3    H111988   0.300   2.443   3.643
 3994TIP3    H211989   0.380   2.527   3.741
 3995TIP3   OH211990   5.009   4.592   3.794
 3995TIP3    H111991   4.954   4.661   3.832
 3995TIP3    H211992   4.969   4.573   3.710
 3996TIP3   OH211993   1.911   2.352   1.289
 3996TIP3    H111994   1.867   2.330   1.371
 3996TIP3    H211995   1.865   2.300   1.223
 3997TIP3   OH211996   0.209   5.168   1.895
 3997TIP3    H111997   0.171   5.235   1.838
 3997TIP3    H211998   0.225   5.093   1.838
 3998TIP3   OH211999   1.661   0.789   4.392
 3998TIP3    H112000   1.646   0.806   4.485
 3998TIP3    H212001   1.603   0.717   4.371
 3999TIP3   OH212002   5.711   4.218   2.358
 3999TIP3    H112003   5.714   4.127   2.329
 3999TIP3    H212004   5.789   4.228   2.414
 4000TIP3   OH212005   2.336   1.721   4.146
 4000TIP3    H112006   2.364   1.810   4.168
 4000TIP3    H212007   2.413   1.667   4.163
 4001TIP3   OH212008   2.390   0.635   4.963
 4001TIP3    H112009   2.376   0.728   4.976
 4001TIP3    H212010   2.317   0.607   4.908
 4002TIP3   OH212011   1.554   4.029   1.029
 4002TIP3    H112012   1.470   4.018   0.984
 4002TIP3    H212013   1.530   4.065   1.115
 4003TIP3   OH212014   6.014   3.881   4.174
 4003TIP3    H112015   6.078   3.846   4.112
 4003TIP3    H212016   6.034   3.974   4.178
 4004TIP3   OH212017   5.857   1.862   0.056
 4004TIP3    H112018   5.808   1.848   0.137
 4004TIP3    H212019   5.827   1.793  -0.003
 4005TIP3   OH212020   1.585   0.607   0.605
 4005TIP3    H112021   1.544   0.521   0.598
 4005TIP3    H212022   1.560   0.638   0.692
 4006TIP3   OH212023   1.377   5.207   3.869
 4006TIP3    H112024   1.322   5.188   3.793
 4006TIP3    H212025   1.433   5.279   3.841
 4007TIP3   OH212026   2.747   1.343   4.474
 4007TIP3    H112027   2.787   1.417   4.428
 4007TIP3    H212028   2.792   1.339   4.558
 4008TIP3   OH212029   0.188   4.897   3.393
 4008TIP3    H112030   0.264   4.878   3.448
 4008TIP3    H212031   0.204   4.986   3.360
 4009TIP3   OH212032   3.830   5.582   0.493
 4009TIP3    H112033   3.817   5.492   0.522
 4009TIP3    H212034   3.910   5.610   0.536
 4010TIP3   OH212035   6.023   4.144   2.822
 4010TIP3    H112036   6.072   4.164   2.902
 4010TIP3    H212037   5.942   4.104   2.853
 4011TIP3   OH212038   2.185   1.101   4.227
 4011TIP3    H112039   2.117   1.113   4.293
 4011TIP3    H212040   2.138   1.080   4.147
 4012TIP3   OH212041   2.018   3.238   0.704
 4012TIP3    H112042   2.010   3.260   0.797
 4012TIP3    H212043   1.937   3.191   0.684
 4013TIP3   OH212044   2.315   0.263   4.257
 4013TIP3    H112045   2.309   0.168   4.249
 4013TIP3    H212046   2.268   0.296   4.180
 4014TIP3   OH212047   1.067   4.607   0.011
 4014TIP3    H112048   1.147   4.637  -0.031
 4014TIP3    H212049   1.078   4.513   0.022
 4015TIP3   OH212050   4.912   4.025   4.815
 4015TIP3    H112051   4.874   3.986   4.737
 4015TIP3    H212052   4.996   3.982   4.826
 4016TIP3   OH212053   5.646   2.199   4.242
 4016TIP3    H112054   5.656   2.109   4.272
 4016TIP3    H212055   5.552   2.217   4.250
 4017TIP3   OH212056   4.309   4.168   3.033
 4017TIP3    H112057   4.236   4.149   3.092
 4017TIP3    H212058   4.387   4.157   3.087
 4018TIP3   OH212059   5.685   3.037   3.523
 4018TIP3    H112060   5.745   3.110   3.541
 4018TIP3    H212061   5.733   2.982   3.460
 4019TIP3   OH212062   0.300   3.083   3.299
 4019TIP3    H112063   0.236   3.030   3.347
 4019TIP3    H212064   0.276   3.173   3.321
 4020TIP3   OH212065   0.794   1.879   2.990
 4020TIP3    H112066   0.820   1.957   3.040
 4020TIP3    H212067   0.857   1.875   2.918
 4021TIP3   OH212068   3.426   2.421   3.443
 4021TIP3    H112069   3.380   2.457   3.368
 4021TIP3    H212070   3.504   2.380   3.407
 4022TIP3   OH212071   3.652   1.449   2.291
 4022TIP3    H112072   3.687   1.387   2.356
 4022TIP3    H212073   3.629   1.394   2.216
 4023TIP3   OH212074   3.612   3.874   2.274
 4023TIP3    H112075   3.551   3.888   2.202
 4023TIP3    H212076   3.615   3.957   2.320
 4024TIP3   OH212077   2.720   2.715   0.948
 4024TIP3    H112078   2.696   2.750   1.034
 4024TIP3    H212079   2.672   2.769   0.886
 4025TIP3   OH212080   0.704   4.643   4.071
 4025TIP3    H112081   0.690   4.738   4.065
 4025TIP3    H212082   0.774   4.625   4.009
 4026TIP3   OH212083   4.000   5.944   2.707
 4026TIP3    H112084   4.050   6.020   2.738
 4026TIP3    H212085   3.951   5.978   2.632
 4027TIP3   OH212086   6.151   2.803   3.448
 4027TIP3    H112087   6.231   2.754   3.469
 4027TIP3    H212088   6.114   2.825   3.533
 4028TIP3   OH212089   0.213   3.630   0.389
 4028TIP3    H112090   0.143   3.695   0.389
 4028TIP3    H212091   0.189   3.569   0.319
 4029TIP3   OH212092   0.643   1.638   1.738
 4029TIP3    H112093   0.682   1.604   1.657
 4029TIP3    H212094   0.708   1.620   1.805
 4030TIP3   OH212095   1.124   3.208   4.138
 4030TIP3    H112096   1.145   3.156   4.215
 4030TIP3    H212097   1.031   3.230   4.148
 4031TIP3   OH212098   2.067   4.009   1.501
 4031TIP3    H112099   2.020   4.088   1.475
 4031TIP3    H212100   2.026   3.982   1.583
 4032TIP3   OH212101   2.844   4.419   1.448
 4032TIP3    H112102   2.755   4.443   1.422
 4032TIP3    H212103   2.899   4.447   1.375
 4033TIP3   OH212104   1.282   0.440   1.141
 4033TIP3    H112105   1.252   0.508   1.201
 4033TIP3    H212106   1.203   0.405   1.102
 4034TIP3   OH212107   3.248   0.188   1.961
 4034TIP3    H112108   3.247   0.107   1.910
 4034TIP3    H212109   3.238   0.258   1.897
 4035TIP3   OH212110   1.510   5.331   2.037
 4035TIP3    H112111   1.508   5.253   1.982
 4035TIP3    H212112   1.585   5.318   2.095
 4036TIP3   OH212113   5.821   0.295   2.103
 4036TIP3    H112114   5.914   0.270   2.105
 4036TIP3    H212115   5.811   0.355   2.177
 4037TIP3   OH212116   2.942   2.386   4.331
 4037TIP3    H112117   2.877   2.444   4.292
 4037TIP3    H212118   2.894   2.339   4.399
 4038TIP3   OH212119   0.878   3.528   3.085
 4038TIP3    H112120   0.816   3.592   3.121
 4038TIP3    H212121   0.951   3.529   3.147
 4039TIP3   OH212122   6.297   0.764   0.257
 4039TIP3    H112123   6.269   0.780   0.347
 4039TIP3    H212124   6.217   0.736   0.212
 4040TIP3   OH212125   2.157   4.988   2.720
 4040TIP3    H112126   2.073   5.013   2.681
 4040TIP3    H212127   2.174   4.900   2.687
 4041TIP3   OH212128   4.851   0.655   3.720
 4041TIP3    H112129   4.813   0.569   3.740
 4041TIP3    H212130   4.848   0.702   3.803
 4042TIP3   OH212131   0.880   4.977   0.268
 4042TIP3    H112132   0.829   4.921   0.327
 4042TIP3    H212133   0.821   4.994   0.194
 4043TIP3   OH212134   3.055   0.412   4.929
 4043TIP3    H112135   3.067   0.420   4.834
 4043TIP3    H212136   3.055   0.502   4.961
 4044TIP3   OH212137   3.783   1.485   1.418
 4044TIP3    H112138   3.741   1.534   1.347
 4044TIP3    H212139   3.856   1.540   1.444
 4045TIP3   OH212140   3.658   5.997   0.329
 4045TIP3    H112141   3.645   5.977   0.237
 4045TIP3    H212142   3.700   6.083   0.330
 4046TIP3   OH212143   3.345   2.211   2.781
 4046TIP3    H112144   3.262   2.219   2.827
 4046TIP3    H212145   3.322   2.223   2.689
 4047TIP3   OH212146   4.624   5.311   1.839
 4047TIP3    H112147   4.625   5.240   1.903
 4047TIP3    H212148   4.582   5.274   1.762
 4048TIP3   OH212149   5.988   4.373   1.131
 4048TIP3    H112150   6.072   4.382   1.085
 4048TIP3    H212151   6.013   4.355   1.222
 4049TIP3   OH212152   2.398   4.731   3.834
 4049TIP3    H112153   2.475   4.676   3.820
 4049TIP3    H212154   2.399   4.749   3.928
 4050TIP3   OH212155   6.135   4.513   5.008
 4050TIP3    H112156   6.049   4.497   5.048
 4050TIP3    H212157   6.196   4.467   5.064
 4051TIP3   OH212158   1.118   3.991   2.479
 4051TIP3    H112159   1.106   4.069   2.533
 4051TIP3    H212160   1.096   3.918   2.537
 4052TIP3   OH212161   4.775   5.012   0.622
 4052TIP3    H112162   4.818   4.989   0.705
 4052TIP3    H212163   4.830   4.972   0.555
 4053TIP3   OH212164   2.940   2.095   3.936
 4053TIP3    H112165   2.942   2.060   4.025
 4053TIP3    H212166   2.877   2.040   3.889
 4054TIP3   OH212167   2.326   4.036   4.766
 4054TIP3    H112168   2.328   4.000   4.678
 4054TIP3    H212169   2.264   4.109   4.761
 4055TIP3   OH212170   4.237   2.419   2.845
 4055TIP3    H112171   4.311   2.444   2.900
 4055TIP3    H212172   4.253   2.326   2.825
 4056TIP3   OH212173   3.352   1.060   0.245
 4056TIP3    H112174   3.294   0.986   0.228
 4056TIP3    H212175   3.425   1.023   0.294
 4057TIP3   OH212176   0.290   3.713   0.811
 4057TIP3    H112177   0.331   3.747   0.732
 4057TIP3    H212178   0.205   3.680   0.783
 4058TIP3   OH212179   1.664   4.376   2.624
 4058TIP3    H112180   1.608   4.298   2.625
 4058TIP3    H212181   1.626   4.432   2.557
 4059TIP3   OH212182   1.675   4.258   0.054
 4059TIP3    H112183   1.734   4.316   0.102
 4059TIP3    H212184   1.593   4.260   0.103
 4060TIP3   OH212185   4.189   2.008   2.442
 4060TIP3    H112186   4.282   2.025   2.459
 4060TIP3    H212187   4.188   1.925   2.395
 4061TIP3   OH212188   4.885   1.669   3.595
 4061TIP3    H112189   4.973   1.705   3.592
 4061TIP3    H212190   4.853   1.674   3.505
 4062TIP3   OH212191   5.929   2.603   4.387
 4062TIP3    H112192   5.869   2.528   4.386
 4062TIP3    H212193   6.000   2.576   4.445
 4063TIP3   OH212194   1.316   0.684   1.796
 4063TIP3    H112195   1.269   0.644   1.868
 4063TIP3    H212196   1.386   0.622   1.776
 4064TIP3   OH212197   2.626   2.157   3.134
 4064TIP3    H112198   2.548   2.174   3.187
 4064TIP3    H212199   2.693   2.215   3.171
 4065TIP3   OH212200   5.220   1.210   2.462
 4065TIP3    H112201   5.189   1.140   2.404
 4065TIP3    H212202   5.140   1.252   2.493
 4066TIP3   OH212203   1.158   2.389   4.335
 4066TIP3    H112204   1.173   2.426   4.422
 4066TIP3    H212205   1.063   2.395   4.323
 4067TIP3   OH212206   2.473   3.674   2.722
 4067TIP3    H112207   2.461   3.594   2.774
 4067TIP3    H212208   2.386   3.715   2.720
 4068TIP3   OH212209   4.923   3.492   2.902
 4068TIP3    H112210   5.014   3.470   2.921
 4068TIP3    H212211   4.888   3.520   2.986
 4069TIP3   OH212212   0.959   5.390   4.186
 4069TIP3    H112213   0.903   5.450   4.236
 4069TIP3    H212214   0.898   5.337   4.134
 4070TIP3   OH212215   0.415   2.136   0.491
 4070TIP3    H112216   0.421   2.041   0.491
 4070TIP3    H212217   0.324   2.154   0.515
 4071TIP3   OH212218   6.040   0.774   2.284
 4071TIP3    H112219   5.953   0.772   2.324
 4071TIP3    H212220   6.063   0.682   2.272
 4072TIP3   OH212221   1.858   4.800   0.559
 4072TIP3    H112222   1.822   4.822   0.473
 4072TIP3    H212223   1.948   4.773   0.541
 4073TIP3   OH212224   5.649   1.714   3.795
 4073TIP3    H112225   5.740   1.712   3.767
 4073TIP3    H212226   5.608   1.778   3.737
 4074TIP3   OH212227   0.453   5.223   2.047
 4074TIP3    H112228   0.532   5.237   1.996
 4074TIP3    H212229   0.381   5.243   1.988
 4075TIP3   OH212230   3.435   3.739   1.533
 4075TIP3    H112231   3.530   3.730   1.544
 4075TIP3    H212232   3.415   3.824   1.573
 4076TIP3   OH212233   5.659   0.598   0.079
 4076TIP3    H112234   5.653   0.621   0.172
 4076TIP3    H212235   5.568   0.584   0.053
 4077TIP3   OH212236   4.424   3.272   4.162
 4077TIP3    H112237   4.372   3.326   4.102
 4077TIP3    H212238   4.374   3.273   4.244
 4078TIP3   OH212239   1.684   2.214   1.786
 4078TIP3    H112240   1.716   2.155   1.718
 4078TIP3    H212241   1.605   2.171   1.820
 4079TIP3   OH212242   5.174   5.079   1.922
 4079TIP3    H112243   5.129   5.159   1.897
 4079TIP3    H212244   5.217   5.049   1.842
 4080TIP3   OH212245   2.078   1.592   1.557
 4080TIP3    H112246   2.138   1.574   1.630
 4080TIP3    H212247   2.101   1.680   1.528
 4081TIP3   OH212248   4.229   4.354   1.754
 4081TIP3    H112249   4.298   4.419   1.763
 4081TIP3    H212250   4.174   4.367   1.831
 4082TIP3   OH212251   5.837   5.596   1.339
 4082TIP3    H112252   5.873   5.673   1.295
 4082TIP3    H212253   5.906   5.530   1.331
 4083TIP3   OH212254   4.706   3.234   2.260
 4083TIP3    H112255   4.779   3.194   2.213
 4083TIP3    H212256   4.743   3.313   2.299
 4084TIP3   OH212257   0.355   3.099   1.276
 4084TIP3    H112258   0.424   3.073   1.337
 4084TIP3    H212259   0.304   3.019   1.261
 4085TIP3   OH212260   4.773   2.894   3.576
 4085TIP3    H112261   4.865   2.920   3.564
 4085TIP3    H212262   4.777   2.799   3.589
 4086TIP3   OH212263   5.351   5.509   0.360
 4086TIP3    H112264   5.296   5.579   0.327
 4086TIP3    H212265   5.300   5.470   0.432
 4087TIP3   OH212266   2.166   3.668   2.738
 4087TIP3    H112267   2.092   3.690   2.682
 4087TIP3    H212268   2.158   3.726   2.813
 4088TIP3   OH212269   3.043   2.940   0.681
 4088TIP3    H112270   3.125   2.946   0.730
 4088TIP3    H212271   3.035   2.847   0.658
 4089TIP3   OH212272   5.879   2.338   4.070
 4089TIP3    H112273   5.788   2.342   4.101
 4089TIP3    H212274   5.873   2.363   3.978
 4090TIP3   OH212275   4.941   4.913   2.010
 4090TIP3    H112276   5.001   4.932   1.938
 4090TIP3    H212277   4.973   4.965   2.083
 4091TIP3   OH212278   5.987   1.431   0.802
 4091TIP3    H112279   6.026   1.510   0.765
 4091TIP3    H212280   5.977   1.371   0.728
 4092TIP3   OH212281   6.087   2.368   1.986
 4092TIP3    H112282   6.016   2.305   1.973
 4092TIP3    H212283   6.159   2.332   1.934
 4093TIP3   OH212284   1.881   5.342   0.288
 4093TIP3    H112285   1.792   5.314   0.268
 4093TIP3    H212286   1.916   5.272   0.343
 4094TIP3   OH212287   5.796   5.723   2.092
 4094TIP3    H112288   5.731   5.792   2.086
 4094TIP3    H212289   5.865   5.749   2.031
 4095TIP3   OH212290   3.498   2.631   4.200
 4095TIP3    H112291   3.528   2.692   4.132
 4095TIP3    H212292   3.410   2.605   4.173
 4096TIP3   OH212293   3.654   2.752   1.450
 4096TIP3    H112294   3.589   2.682   1.456
 4096TIP3    H212295   3.729   2.719   1.499
 4097TIP3   OH212296   0.441   3.760   3.229
 4097TIP3    H112297   0.375   3.815   3.270
 4097TIP3    H212298   0.491   3.819   3.173
 4098TIP3   OH212299   5.052   4.434   3.406
 4098TIP3    H112300   5.026   4.364   3.466
 4098TIP3    H212301   5.020   4.406   3.321
 4099TIP3   OH212302   3.975   2.075   1.204
 4099TIP3    H112303   4.069   2.088   1.217
 4099TIP3    H212304   3.956   2.115   1.119
 4100TIP3   OH212305   1.046   5.613   2.125
 4100TIP3    H112306   1.110   5.546   2.149
 4100TIP3    H212307   0.964   5.583   2.164
 4101TIP3   OH212308   1.304   4.935   4.359
 4101TIP3    H112309   1.365   4.869   4.390
 4101TIP3    H212310   1.296   4.918   4.265
 4102TIP3   OH212311   0.382   2.590   1.350
 4102TIP3    H112312   0.321   2.561   1.282
 4102TIP3    H212313   0.468   2.589   1.307
 4103TIP3   OH212314   4.303   3.039   2.161
 4103TIP3    H112315   4.311   2.947   2.136
 4103TIP3    H212316   4.304   3.038   2.256
 4104TIP3   OH212317   6.097   1.009   3.510
 4104TIP3    H112318   6.063   0.951   3.579
 4104TIP3    H212319   6.019   1.039   3.463
 4105TIP3   OH212320   2.472   3.494   2.389
 4105TIP3    H112321   2.409   3.542   2.441
 4105TIP3    H212322   2.556   3.537   2.406
 4106TIP3   OH212323   4.964   4.938   0.391
 4106TIP3    H112324   4.914   4.976   0.319
 4106TIP3    H212325   5.052   4.926   0.356
 4107TIP3   OH212326   2.975   1.607   2.006
 4107TIP3    H112327   3.051   1.615   1.949
 4107TIP3    H212328   2.920   1.540   1.964
 4108TIP3   OH212329   5.126   2.603   3.348
 4108TIP3    H112330   5.154   2.650   3.426
 4108TIP3    H212331   5.178   2.523   3.348
 4109TIP3   OH212332   4.361   2.699   4.575
 4109TIP3    H112333   4.271   2.676   4.594
 4109TIP3    H212334   4.395   2.626   4.522
 4110TIP3   OH212335   2.184  -0.026   4.237
 4110TIP3    H112336   2.244  -0.088   4.196
 4110TIP3    H212337   2.215  -0.019   4.328
 4111TIP3   OH212338   3.592   5.936   4.320
 4111TIP3    H112339   3.670   5.934   4.376
 4111TIP3    H212340   3.622   5.898   4.237
 4112TIP3   OH212341   3.412   2.822   0.078
 4112TIP3    H112342   3.348   2.857   0.017
 4112TIP3    H212343   3.495   2.827   0.031
 4113TIP3   OH212344   0.690   4.194   1.091
 4113TIP3    H112345   0.719   4.240   1.012
 4113TIP3    H212346   0.719   4.104   1.077
 4114TIP3   OH212347   1.351   1.863   2.490
 4114TIP3    H112348   1.302   1.781   2.487
 4114TIP3    H212349   1.433   1.841   2.534
 4115TIP3   OH212350   5.490   3.068   1.125
 4115TIP3    H112351   5.499   3.163   1.120
 4115TIP3    H212352   5.580   3.035   1.128
 4116TIP3   OH212353   1.191   3.411   5.139
 4116TIP3    H112354   1.101   3.433   5.160
 4116TIP3    H212355   1.207   3.448   5.052
 4117TIP3   OH212356   4.816   3.822   3.532
 4117TIP3    H112357   4.893   3.850   3.582
 4117TIP3    H212358   4.837   3.843   3.441
 4118TIP3   OH212359   0.339   3.373   2.294
 4118TIP3    H112360   0.403   3.405   2.230
 4118TIP3    H212361   0.347   3.435   2.367
 4119TIP3   OH212362   0.458   5.571   4.080
 4119TIP3    H112363   0.524   5.605   4.019
 4119TIP3    H212364   0.492   5.593   4.167
 4120TIP3   OH212365   2.690   3.985   4.337
 4120TIP3    H112366   2.708   3.954   4.248
 4120TIP3    H212367   2.614   3.934   4.365
 4121TIP3   OH212368   1.704   1.218   0.881
 4121TIP3    H112369   1.616   1.247   0.907
 4121TIP3    H212370   1.721   1.264   0.799
 4122TIP3   OH212371   4.228   5.217   2.231
 4122TIP3    H112372   4.179   5.213   2.313
 4122TIP3    H212373   4.162   5.235   2.165
 4123TIP3   OH212374   5.589   1.799   0.982
 4123TIP3    H112375   5.639   1.869   0.941
 4123TIP3    H212376   5.537   1.843   1.049
 4124TIP3   OH212377   0.188   0.757   2.726
 4124TIP3    H112378   0.224   0.757   2.815
 4124TIP3    H212379   0.144   0.672   2.717
 4125TIP3   OH212380   4.757   1.356   3.823
 4125TIP3    H112381   4.685   1.306   3.863
 4125TIP3    H212382   4.833   1.336   3.877
 4126TIP3   OH212383   5.220   0.941   4.735
 4126TIP3    H112384   5.161   1.015   4.721
 4126TIP3    H212385   5.266   0.930   4.652
 4127TIP3   OH212386   1.459   4.066   0.593
 4127TIP3    H112387   1.422   4.000   0.652
 4127TIP3    H212388   1.544   4.030   0.567
 4128TIP3   OH212389   4.290   1.246   2.921
 4128TIP3    H112390   4.261   1.246   3.012
 4128TIP3    H212391   4.365   1.186   2.920
 4129TIP3   OH212392   1.229   1.623   2.539
 4129TIP3    H112393   1.315   1.582   2.527
 4129TIP3    H212394   1.172   1.580   2.476
 4130TIP3   OH212395   2.467   3.075   4.859
 4130TIP3    H112396   2.417   3.049   4.937
 4130TIP3    H212397   2.426   3.156   4.830
 4131TIP3   OH212398   3.881   0.191   4.423
 4131TIP3    H112399   3.855   0.148   4.341
 4131TIP3    H212400   3.930   0.124   4.470
 4132TIP3   OH212401   2.728   1.686   3.252
 4132TIP3    H112402   2.739   1.608   3.197
 4132TIP3    H212403   2.818   1.714   3.272
 4133TIP3   OH212404   1.411   3.029   3.042
 4133TIP3    H112405   1.494   2.998   3.078
 4133TIP3    H212406   1.436   3.084   2.968
 4134TIP3   OH212407   5.696   0.881   4.783
 4134TIP3    H112408   5.607   0.850   4.769
 4134TIP3    H212409   5.694   0.972   4.754
 4135TIP3   OH212410   4.607   5.892   3.857
 4135TIP3    H112411   4.514   5.896   3.837
 4135TIP3    H212412   4.650   5.931   3.781
 4136TIP3   OH212413   3.467   4.180   2.229
 4136TIP3    H112414   3.433   4.227   2.153
 4136TIP3    H212415   3.393   4.176   2.290
 4137TIP3   OH212416   1.164   3.452   1.095
 4137TIP3    H112417   1.158   3.387   1.165
 4137TIP3    H212418   1.204   3.405   1.022
 4138TIP3   OH212419   3.294   0.036   1.491
 4138TIP3    H112420   3.294   0.132   1.496
 4138TIP3    H212421   3.264   0.008   1.578
 4139TIP3   OH212422   4.589   2.311   2.792
 4139TIP3    H112423   4.581   2.259   2.872
 4139TIP3    H212424   4.548   2.395   2.814
 4140TIP3   OH212425   0.721   3.455   4.936
 4140TIP3    H112426   0.775   3.376   4.938
 4140TIP3    H212427   0.730   3.487   4.846
 4141TIP3   OH212428   1.354   5.940   5.116
 4141TIP3    H112429   1.437   5.948   5.071
 4141TIP3    H212430   1.370   5.877   5.186
 4142TIP3   OH212431   3.665   4.834   4.172
 4142TIP3    H112432   3.706   4.911   4.211
 4142TIP3    H212433   3.588   4.868   4.127
 4143TIP3   OH212434   5.329   4.261   1.012
 4143TIP3    H112435   5.403   4.208   1.041
 4143TIP3    H212436   5.321   4.329   1.078
 4144TIP3   OH212437   2.839   2.236   4.521
 4144TIP3    H112438   2.930   2.235   4.553
 4144TIP3    H212439   2.800   2.157   4.557
 4145TIP3   OH212440   5.265   5.172   4.323
 4145TIP3    H112441   5.184   5.215   4.295
 4145TIP3    H212442   5.240   5.122   4.401
 4146TIP3   OH212443   3.185   2.256   1.698
 4146TIP3    H112444   3.183   2.268   1.604
 4146TIP3    H212445   3.229   2.333   1.732
 4147TIP3   OH212446   2.119   2.794   0.854
 4147TIP3    H112447   2.050   2.860   0.858
 4147TIP3    H212448   2.187   2.826   0.914
 4148TIP3   OH212449   6.058   5.545   3.656
 4148TIP3    H112450   6.042   5.473   3.595
 4148TIP3    H212451   5.984   5.541   3.717
 4149TIP3   OH212452   0.194   4.264   3.232
 4149TIP3    H112453   0.229   4.327   3.169
 4149TIP3    H212454   0.099   4.281   3.234
 4150TIP3   OH212455   1.012   2.511   5.064
 4150TIP3    H112456   1.023   2.511   5.160
 4150TIP3    H212457   0.924   2.478   5.051
 4151TIP3   OH212458   1.231   3.143   3.894
 4151TIP3    H112459   1.194   3.209   3.952
 4151TIP3    H212460   1.281   3.085   3.952
 4152TIP3   OH212461   0.990   3.669   1.454
 4152TIP3    H112462   0.903   3.671   1.413
 4152TIP3    H212463   0.995   3.750   1.504
 4153TIP3   OH212464   5.360   3.782   3.642
 4153TIP3    H112465   5.421   3.715   3.612
 4153TIP3    H212466   5.408   3.828   3.711
 4154TIP3   OH212467   4.048   1.198   0.112
 4154TIP3    H112468   4.088   1.242   0.037
 4154TIP3    H212469   3.984   1.138   0.075
 4155TIP3   OH212470   1.912   0.415   2.292
 4155TIP3    H112471   1.836   0.370   2.330
 4155TIP3    H212472   1.963   0.445   2.368
 4156TIP3   OH212473   1.104   1.056   2.268
 4156TIP3    H112474   1.170   1.001   2.225
 4156TIP3    H212475   1.033   0.995   2.290
 4157TIP3   OH212476   0.868   4.912   4.294
 4157TIP3    H112477   0.920   4.837   4.267
 4157TIP3    H212478   0.908   4.986   4.247
 4158TIP3   OH212479   1.072   5.330   1.174
 4158TIP3    H112480   1.086   5.402   1.236
 4158TIP3    H212481   1.122   5.257   1.211
 4159TIP3   OH212482   1.440   5.866   4.207
 4159TIP3    H112483   1.451   5.772   4.188
 4159TIP3    H212484   1.391   5.867   4.290
 4160TIP3   OH212485   6.194   3.186   3.599
 4160TIP3    H112486   6.270   3.132   3.575
 4160TIP3    H212487   6.219   3.226   3.682
 4161TIP3   OH212488   3.515   4.692   2.419
 4161TIP3    H112489   3.446   4.749   2.452
 4161TIP3    H212490   3.469   4.628   2.363
 4162TIP3   OH212491   3.345   5.550   4.757
 4162TIP3    H112492   3.351   5.497   4.836
 4162TIP3    H212493   3.326   5.639   4.788
 4163TIP3   OH212494   5.612   1.153   1.624
 4163TIP3    H112495   5.579   1.219   1.564
 4163TIP3    H212496   5.570   1.072   1.595
 4164TIP3   OH212497   4.097   0.079   2.631
 4164TIP3    H112498   4.151   0.128   2.570
 4164TIP3    H212499   4.034   0.033   2.576
 4165TIP3   OH212500   3.359   2.318   3.681
 4165TIP3    H112501   3.264   2.320   3.696
 4165TIP3    H212502   3.370   2.361   3.596
 4166TIP3   OH212503   4.818   2.241   0.815
 4166TIP3    H112504   4.764   2.282   0.748
 4166TIP3    H212505   4.896   2.297   0.819
 4167TIP3   OH212506   4.003   5.795   1.439
 4167TIP3    H112507   3.994   5.703   1.417
 4167TIP3    H212508   3.915   5.831   1.425
 4168TIP3   OH212509   2.491   0.129   0.257
 4168TIP3    H112510   2.507   0.122   0.351
 4168TIP3    H212511   2.518   0.044   0.222
 4169TIP3   OH212512   0.768   4.386   3.309
 4169TIP3    H112513   0.863   4.388   3.300
 4169TIP3    H212514   0.737   4.342   3.230
 4170TIP3   OH212515   1.126   5.095   3.466
 4170TIP3    H112516   1.175   5.028   3.418
 4170TIP3    H212517   1.036   5.063   3.468
 4171TIP3   OH212518   3.591   4.717   1.245
 4171TIP3    H112519   3.619   4.730   1.155
 4171TIP3    H212520   3.566   4.624   1.249
 4172TIP3   OH212521   3.068   4.726   2.558
 4172TIP3    H112522   3.024   4.726   2.473
 4172TIP3    H212523   3.004   4.763   2.618
 4173TIP3   OH212524   2.701   5.409   1.370
 4173TIP3    H112525   2.675   5.384   1.459
 4173TIP3    H212526   2.663   5.342   1.314
 4174TIP3   OH212527   0.476   0.216   3.659
 4174TIP3    H112528   0.497   0.127   3.633
 4174TIP3    H212529   0.398   0.207   3.714
 4175TIP3   OH212530   3.354   4.770   2.122
 4175TIP3    H112531   3.358   4.786   2.027
 4175TIP3    H212532   3.387   4.851   2.161
 4176TIP3   OH212533   2.193   2.863   4.436
 4176TIP3    H112534   2.206   2.860   4.531
 4176TIP3    H212535   2.098   2.862   4.425
 4177TIP3   OH212536   4.842   4.504   3.602
 4177TIP3    H112537   4.903   4.430   3.599
 4177TIP3    H212538   4.788   4.494   3.524
 4178TIP3   OH212539   5.316   3.101   2.587
 4178TIP3    H112540   5.392   3.152   2.557
 4178TIP3    H212541   5.341   3.010   2.574
 4179TIP3   OH212542   3.170   3.633   3.811
 4179TIP3    H112543   3.150   3.573   3.883
 4179TIP3    H212544   3.168   3.578   3.732
 4180TIP3   OH212545   0.857   3.369   4.137
 4180TIP3    H112546   0.848   3.431   4.066
 4180TIP3    H212547   0.889   3.421   4.211
 4181TIP3   OH212548   2.586   4.180   3.498
 4181TIP3    H112549   2.542   4.099   3.521
 4181TIP3    H212550   2.649   4.155   3.431
 4182TIP3   OH212551   4.505   4.953   0.616
 4182TIP3    H112552   4.492   4.862   0.590
 4182TIP3    H212553   4.599   4.966   0.610
 4183TIP3   OH212554   0.777   0.782   4.508
 4183TIP3    H112555   0.712   0.804   4.575
 4183TIP3    H212556   0.753   0.695   4.478
 4184TIP3   OH212557   0.978   4.200   2.732
 4184TIP3    H112558   0.968   4.198   2.637
 4184TIP3    H212559   1.043   4.268   2.748
 4185TIP3   OH212560   5.609   1.997   3.353
 4185TIP3    H112561   5.597   2.007   3.258
 4185TIP3    H212562   5.523   1.974   3.386
 4186TIP3   OH212563   3.118   2.188   3.717
 4186TIP3    H112564   3.110   2.107   3.666
 4186TIP3    H212565   3.078   2.167   3.801
 4187TIP3   OH212566   5.606   0.714   3.768
 4187TIP3    H112567   5.681   0.666   3.802
 4187TIP3    H212568   5.612   0.801   3.808
 4188TIP3   OH212569   4.768   1.563   2.407
 4188TIP3    H112570   4.714   1.639   2.386
 4188TIP3    H212571   4.705   1.495   2.434
 4189TIP3   OH212572   3.043   3.866   0.190
 4189TIP3    H112573   3.126   3.912   0.205
 4189TIP3    H212574   2.985   3.897   0.259
 4190TIP3   OH212575   3.744   4.920   2.898
 4190TIP3    H112576   3.817   4.973   2.866
 4190TIP3    H212577   3.760   4.912   2.992
 4191TIP3   OH212578   4.002   5.683   1.147
 4191TIP3    H112579   4.020   5.628   1.224
 4191TIP3    H212580   3.971   5.622   1.081
 4192TIP3   OH212581   2.332   5.042   2.155
 4192TIP3    H112582   2.335   5.133   2.126
 4192TIP3    H212583   2.396   4.997   2.100
 4193TIP3   OH212584   3.855   5.644   1.644
 4193TIP3    H112585   3.765   5.636   1.612
 4193TIP3    H212586   3.886   5.554   1.652
 4194TIP3   OH212587   2.675   0.888   3.761
 4194TIP3    H112588   2.716   0.953   3.704
 4194TIP3    H212589   2.648   0.818   3.702
 4195TIP3   OH212590   0.573   1.810   2.044
 4195TIP3    H112591   0.629   1.833   1.970
 4195TIP3    H212592   0.565   1.715   2.039
 4196TIP3   OH212593   1.615   3.212   0.425
 4196TIP3    H112594   1.618   3.265   0.345
 4196TIP3    H212595   1.521   3.199   0.442
 4197TIP3   OH212596   5.529   3.790   2.781
 4197TIP3    H112597   5.441   3.809   2.750
 4197TIP3    H212598   5.535   3.835   2.865
 4198TIP3   OH212599   4.503   2.263   1.751
 4198TIP3    H112600   4.574   2.199   1.750
 4198TIP3    H212601   4.533   2.332   1.810
 4199TIP3   OH212602   0.929   5.594   0.220
 4199TIP3    H112603   0.885   5.509   0.219
 4199TIP3    H212604   0.987   5.590   0.296
 4200TIP3   OH212605   0.580   2.878   0.342
 4200TIP3    H112606   0.649   2.944   0.343
 4200TIP3    H212607   0.611   2.810   0.401
 4201TIP3   OH212608   1.062   5.936   1.760
 4201TIP3    H112609   1.060   5.943   1.856
 4201TIP3    H212610   0.972   5.954   1.732
 4202TIP3   OH212611   1.778   2.138   0.911
 4202TIP3    H112612   1.789   2.047   0.937
 4202TIP3    H212613   1.755   2.184   0.991
 4203TIP3   OH212614   3.736   4.622   2.902
 4203TIP3    H112615   3.773   4.644   2.987
 4203TIP3    H212616   3.785   4.675   2.839
 4204TIP3   OH212617   5.711   1.525   2.822
 4204TIP3    H112618   5.698   1.444   2.871
 4204TIP3    H212619   5.667   1.510   2.738
 4205TIP3   OH212620   1.118   0.613   3.887
 4205TIP3    H112621   1.038   0.629   3.838
 4205TIP3    H212622   1.187   0.654   3.835
 4206TIP3   OH212623   1.449   0.847   4.569
 4206TIP3    H112624   1.432   0.772   4.512
 4206TIP3    H212625   1.367   0.897   4.569
 4207TIP3   OH212626   1.912   2.484   4.094
 4207TIP3    H112627   1.946   2.463   4.181
 4207TIP3    H212628   1.989   2.491   4.038
 4208TIP3   OH212629   5.060   5.370   3.744
 4208TIP3    H112630   5.053   5.377   3.840
 4208TIP3    H212631   4.994   5.431   3.711
 4209TIP3   OH212632   0.507   2.348   2.556
 4209TIP3    H112633   0.575   2.297   2.513
 4209TIP3    H212634   0.554   2.410   2.612
 4210TIP3   OH212635   2.957   5.487   1.403
 4210TIP3    H112636   2.865   5.467   1.419
 4210TIP3    H212637   3.004   5.411   1.439
 4211TIP3   OH212638   3.217   3.906   3.891
 4211TIP3    H112639   3.202   3.812   3.878
 4211TIP3    H212640   3.140   3.935   3.940
 4212TIP3   OH212641   5.272   0.189   4.478
 4212TIP3    H112642   5.333   0.129   4.436
 4212TIP3    H212643   5.327   0.256   4.518
 4213TIP3   OH212644   0.870   4.725   1.900
 4213TIP3    H112645   0.937   4.667   1.936
 4213TIP3    H212646   0.809   4.738   1.972
 4214TIP3   OH212647   2.857   4.643   3.921
 4214TIP3    H112648   2.948   4.618   3.935
 4214TIP3    H212649   2.847   4.726   3.968
 4215TIP3   OH212650   1.813   5.648   1.345
 4215TIP3    H112651   1.906   5.625   1.339
 4215TIP3    H212652   1.787   5.617   1.432
 4216TIP3   OH212653   4.564   5.810   0.915
 4216TIP3    H112654   4.543   5.902   0.899
 4216TIP3    H212655   4.539   5.795   1.006
 4217TIP3   OH212656   2.753   5.706   3.583
 4217TIP3    H112657   2.675   5.762   3.578
 4217TIP3    H212658   2.749   5.668   3.671
 4218TIP3   OH212659   3.280   3.420   2.460
 4218TIP3    H112660   3.355   3.425   2.519
 4218TIP3    H212661   3.261   3.327   2.453
 4219TIP3   OH212662   3.076   2.233   0.373
 4219TIP3    H112663   3.164   2.204   0.395
 4219TIP3    H212664   3.086   2.325   0.350
 4220TIP3   OH212665   6.261   3.382   1.689
 4220TIP3    H112666   6.239   3.474   1.678
 4220TIP3    H212667   6.309   3.378   1.772
 4221TIP3   OH212668   5.251   1.774   0.960
 4221TIP3    H112669   5.215   1.688   0.938
 4221TIP3    H212670   5.274   1.767   1.052
 4222TIP3   OH212671   1.934   4.604   2.576
 4222TIP3    H112672   1.928   4.671   2.507
 4222TIP3    H212673   1.933   4.521   2.528
 4223TIP3   OH212674   3.469   0.369   3.302
 4223TIP3    H112675   3.447   0.298   3.362
 4223TIP3    H212676   3.386   0.390   3.259
 4224TIP3   OH212677   2.617   3.879   3.976
 4224TIP3    H112678   2.635   3.907   3.887
 4224TIP3    H212679   2.572   3.954   4.016
 4225TIP3   OH212680   1.517   5.411   5.142
 4225TIP3    H112681   1.566   5.375   5.067
 4225TIP3    H212682   1.425   5.391   5.122
 4226TIP3   OH212683   4.738   1.263   1.151
 4226TIP3    H112684   4.698   1.205   1.216
 4226TIP3    H212685   4.819   1.219   1.126
 4227TIP3   OH212686   5.148   3.976   2.474
 4227TIP3    H112687   5.078   4.039   2.459
 4227TIP3    H212688   5.211   4.022   2.529
 4228TIP3   OH212689   1.303   3.930   1.370
 4228TIP3    H112690   1.333   4.005   1.319
 4228TIP3    H212691   1.289   3.861   1.305
 4229TIP3   OH212692   4.235   0.695   1.400
 4229TIP3    H112693   4.320   0.719   1.439
 4229TIP3    H212694   4.198   0.779   1.372
 4230TIP3   OH212695   3.453   5.227   2.081
 4230TIP3    H112696   3.431   5.148   2.130
 4230TIP3    H212697   3.488   5.194   1.998
 4231TIP3   OH212698   5.503   1.090   4.162
 4231TIP3    H112699   5.447   1.042   4.102
 4231TIP3    H212700   5.453   1.169   4.184
 4232TIP3   OH212701   3.320   4.821   1.851
 4232TIP3    H112702   3.304   4.900   1.800
 4232TIP3    H212703   3.234   4.797   1.885
 4233TIP3   OH212704   5.591   1.427   3.855
 4233TIP3    H112705   5.682   1.398   3.848
 4233TIP3    H212706   5.588   1.509   3.805
 4234TIP3   OH212707   1.473   4.660   5.128
 4234TIP3    H112708   1.448   4.570   5.149
 4234TIP3    H212709   1.400   4.694   5.077
 4235TIP3   OH212710   6.165   0.746   3.115
 4235TIP3    H112711   6.147   0.790   3.198
 4235TIP3    H212712   6.258   0.724   3.119
 4236TIP3   OH212713   3.381   3.157   3.456
 4236TIP3    H112714   3.290   3.181   3.439
 4236TIP3    H212715   3.421   3.149   3.369
 4237TIP3   OH212716   2.238   1.047   3.590
 4237TIP3    H112717   2.274   1.096   3.663
 4237TIP3    H212718   2.310   0.994   3.557
 4238TIP3   OH212719   3.179   0.526   2.127
 4238TIP3    H112720   3.250   0.470   2.096
 4238TIP3    H212721   3.151   0.576   2.050
 4239TIP3   OH212722   4.652   0.450   2.573
 4239TIP3    H112723   4.598   0.486   2.643
 4239TIP3    H212724   4.696   0.526   2.534
 4240TIP3   OH212725   6.097   2.680   0.750
 4240TIP3    H112726   6.009   2.642   0.757
 4240TIP3    H212727   6.089   2.766   0.792
 4241TIP3   OH212728   5.049   3.686   1.475
 4241TIP3    H112729   5.075   3.737   1.399
 4241TIP3    H212730   5.107   3.715   1.545
 4242TIP3   OH212731   2.843   0.320   4.699
 4242TIP3    H112732   2.754   0.284   4.701
 4242TIP3    H212733   2.853   0.364   4.784
 4243TIP3   OH212734   0.800   5.772   3.689
 4243TIP3    H112735   0.850   5.820   3.755
 4243TIP3    H212736   0.821   5.817   3.607
 4244TIP3   OH212737   6.309   0.649   1.461
 4244TIP3    H112738   6.350   0.563   1.471
 4244TIP3    H212739   6.265   0.664   1.545
 4245TIP3   OH212740   4.315   4.466   3.597
 4245TIP3    H112741   4.363   4.404   3.543
 4245TIP3    H212742   4.350   4.552   3.573
 4246TIP3   OH212743   5.343   0.279   0.700
 4246TIP3    H112744   5.345   0.350   0.637
 4246TIP3    H212745   5.296   0.209   0.655
 4247TIP3   OH212746   3.808   5.485   4.740
 4247TIP3    H112747   3.730   5.438   4.710
 4247TIP3    H212748   3.880   5.445   4.692
 4248TIP3   OH212749   2.810   5.404   2.087
 4248TIP3    H112750   2.900   5.415   2.057
 4248TIP3    H212751   2.765   5.484   2.059
 4249TIP3   OH212752   4.809   5.610   1.757
 4249TIP3    H112753   4.718   5.636   1.769
 4249TIP3    H212754   4.827   5.551   1.830
 4250TIP3   OH212755   0.433   1.625   3.705
 4250TIP3    H112756   0.367   1.597   3.642
 4250TIP3    H212757   0.491   1.682   3.655
 4251TIP3   OH212758   1.571   4.007   2.028
 4251TIP3    H112759   1.635   3.937   2.014
 4251TIP3    H212760   1.487   3.962   2.032
 4252TIP3   OH212761   5.026   5.023   2.243
 4252TIP3    H112762   5.077   4.947   2.272
 4252TIP3    H212763   4.947   5.020   2.297
 4253TIP3   OH212764   3.530   1.079   1.260
 4253TIP3    H112765   3.580   1.102   1.182
 4253TIP3    H212766   3.594   1.082   1.331
 4254TIP3   OH212767   4.843   3.542   3.458
 4254TIP3    H112768   4.925   3.522   3.502
 4254TIP3    H212769   4.817   3.628   3.492
 4255TIP3   OH212770   0.371   1.605   2.326
 4255TIP3    H112771   0.346   1.513   2.320
 4255TIP3    H212772   0.463   1.604   2.353
 4256TIP3   OH212773   2.736   3.912   0.130
 4256TIP3    H112774   2.749   3.825   0.166
 4256TIP3    H212775   2.822   3.936   0.094
 4257TIP3   OH212776   2.607   4.119   0.684
 4257TIP3    H112777   2.662   4.197   0.681
 4257TIP3    H212778   2.537   4.141   0.745
 4258TIP3   OH212779   5.998   2.568   2.364
 4258TIP3    H112780   6.004   2.652   2.409
 4258TIP3    H212781   6.037   2.584   2.278
 4259TIP3   OH212782   0.504   0.145   2.823
 4259TIP3    H112783   0.434   0.109   2.878
 4259TIP3    H212784   0.467   0.227   2.790
 4260TIP3   OH212785   1.523   5.097   0.446
 4260TIP3    H112786   1.476   5.056   0.374
 4260TIP3    H212787   1.463   5.090   0.520
 4261TIP3   OH212788   1.319   4.604   1.647
 4261TIP3    H112789   1.232   4.627   1.678
 4261TIP3    H212790   1.341   4.523   1.694
 4262TIP3   OH212791   5.473   1.626   3.296
 4262TIP3    H112792   5.505   1.679   3.223
 4262TIP3    H212793   5.535   1.553   3.302
 4263TIP3   OH212794   0.589   1.530   2.103
 4263TIP3    H112795   0.628   1.487   2.180
 4263TIP3    H212796   0.511   1.478   2.084
 4264TIP3   OH212797   4.085   1.552   0.359
 4264TIP3    H112798   4.064   1.633   0.312
 4264TIP3    H212799   4.076   1.576   0.452
 4265TIP3   OH212800   0.763   0.374   4.015
 4265TIP3    H112801   0.754   0.394   3.921
 4265TIP3    H212802   0.673   0.365   4.046
 4266TIP3   OH212803   2.548   3.337   4.103
 4266TIP3    H112804   2.606   3.275   4.057
 4266TIP3    H212805   2.474   3.347   4.044
 4267TIP3   OH212806   3.572   0.121   4.090
 4267TIP3    H112807   3.653   0.116   4.141
 4267TIP3    H212808   3.559   0.033   4.057
 4268TIP3   OH212809   0.810   4.268   1.328
 4268TIP3    H112810   0.862   4.331   1.277
 4268TIP3    H212811   0.749   4.230   1.265
 4269TIP3   OH212812   5.783   5.900   0.849
 4269TIP3    H112813   5.709   5.872   0.902
 4269TIP3    H212814   5.766   5.863   0.762
 4270TIP3   OH212815   3.435   2.938   4.399
 4270TIP3    H112816   3.487   2.963   4.323
 4270TIP3    H212817   3.344   2.947   4.370
 4271TIP3   OH212818   2.495   2.623   3.023
 4271TIP3    H112819   2.446   2.586   3.098
 4271TIP3    H212820   2.434   2.615   2.950
 4272TIP3   OH212821   3.580   2.300   2.824
 4272TIP3    H112822   3.504   2.245   2.804
 4272TIP3    H212823   3.656   2.245   2.802
 4273TIP3   OH212824   0.973   1.893   4.102
 4273TIP3    H112825   0.956   1.811   4.148
 4273TIP3    H212826   0.921   1.886   4.022
 4274TIP3   OH212827   3.255   2.217   4.879
 4274TIP3    H112828   3.233   2.305   4.908
 4274TIP3    H212829   3.273   2.169   4.960
 4275TIP3   OH212830   4.071   4.965   1.280
 4275TIP3    H112831   4.153   4.924   1.256
 4275TIP3    H212832   4.005   4.896   1.270
 4276TIP3   OH212833   3.205   4.197   3.705
 4276TIP3    H112834   3.236   4.124   3.759
 4276TIP3    H212835   3.254   4.273   3.737
 4277TIP3   OH212836   4.903   2.422   3.384
 4277TIP3    H112837   4.860   2.482   3.444
 4277TIP3    H212838   4.982   2.468   3.355
 4278TIP3   OH212839   3.314   1.524   3.925
 4278TIP3    H112840   3.248   1.501   3.990
 4278TIP3    H212841   3.273   1.594   3.874
 4279TIP3   OH212842   1.650   2.179   3.582
 4279TIP3    H112843   1.635   2.235   3.659
 4279TIP3    H212844   1.725   2.125   3.606
 4280TIP3   OH212845   1.719   4.337   0.448
 4280TIP3    H112846   1.753   4.408   0.393
 4280TIP3    H212847   1.763   4.259   0.416
 4281TIP3   OH212848   4.861   5.142   3.122
 4281TIP3    H112849   4.863   5.203   3.196
 4281TIP3    H212850   4.803   5.071   3.151
 4282TIP3   OH212851   2.092   5.178  -0.012
 4282TIP3    H112852   2.147   5.253   0.009
 4282TIP3    H212853   2.019   5.216  -0.062
 4283TIP3   OH212854   3.746   0.463   3.446
 4283TIP3    H112855   3.675   0.459   3.382
 4283TIP3    H212856   3.762   0.556   3.458
 4284TIP3   OH212857   4.160   3.169   1.301
 4284TIP3    H112858   4.099   3.241   1.314
 4284TIP3    H212859   4.140   3.108   1.372
 4285TIP3   OH212860   2.139   3.330   4.645
 4285TIP3    H112861   2.109   3.399   4.586
 4285TIP3    H212862   2.213   3.290   4.599
 4286TIP3   OH212863   5.482   2.029   2.432
 4286TIP3    H112864   5.397   2.069   2.445
 4286TIP3    H212865   5.524   2.082   2.364
 4287TIP3   OH212866   2.802   1.959   4.675
 4287TIP3    H112867   2.894   1.977   4.657
 4287TIP3    H212868   2.773   1.904   4.602
 4288TIP3   OH212869   3.962   3.649   4.857
 4288TIP3    H112870   3.921   3.679   4.938
 4288TIP3    H212871   3.892   3.652   4.792
 4289TIP3   OH212872   4.011   4.466   1.907
 4289TIP3    H112873   4.000   4.560   1.888
 4289TIP3    H212874   3.931   4.426   1.874
 4290TIP3   OH212875   4.032   5.649   2.675
 4290TIP3    H112876   3.955   5.593   2.666
 4290TIP3    H212877   3.997   5.736   2.693
 4291TIP3   OH212878   3.045   5.661   2.158
 4291TIP3    H112879   3.039   5.750   2.123
 4291TIP3    H212880   3.027   5.671   2.252
 4292TIP3   OH212881   5.519   4.430   3.869
 4292TIP3    H112882   5.428   4.403   3.857
 4292TIP3    H212883   5.531   4.501   3.805
 4293TIP3   OH212884   2.238   2.590   0.728
 4293TIP3    H112885   2.273   2.529   0.792
 4293TIP3    H212886   2.200   2.661   0.780
 4294TIP3   OH212887   1.692   4.312   1.218
 4294TIP3    H112888   1.724   4.292   1.130
 4294TIP3    H212889   1.636   4.389   1.206
 4295TIP3   OH212890   1.219   4.040   0.438
 4295TIP3    H112891   1.246   3.962   0.389
 4295TIP3    H212892   1.297   4.065   0.488
 4296TIP3   OH212893   0.960   1.572   3.257
 4296TIP3    H112894   0.990   1.615   3.178
 4296TIP3    H212895   0.868   1.596   3.265
 4297TIP3   OH212896   5.705   0.418   3.492
 4297TIP3    H112897   5.635   0.481   3.475
 4297TIP3    H212898   5.660   0.338   3.519
 4298TIP3   OH212899   5.655   5.866   3.448
 4298TIP3    H112900   5.565   5.898   3.459
 4298TIP3    H212901   5.665   5.857   3.354
 4299TIP3   OH212902   6.152   0.614   5.118
 4299TIP3    H112903   6.180   0.664   5.041
 4299TIP3    H212904   6.089   0.671   5.163
 4300TIP3   OH212905   2.471   3.382   3.134
 4300TIP3    H112906   2.501   3.469   3.159
 4300TIP3    H212907   2.375   3.389   3.138
 4301TIP3   OH212908   4.155   5.393   0.026
 4301TIP3    H112909   4.188   5.384   0.115
 4301TIP3    H212910   4.064   5.421   0.037
 4302TIP3   OH212911   2.073   3.771   3.380
 4302TIP3    H112912   2.020   3.829   3.434
 4302TIP3    H212913   2.134   3.830   3.335
 4303TIP3   OH212914   6.155   0.264   1.629
 4303TIP3    H112915   6.121   0.206   1.696
 4303TIP3    H212916   6.111   0.348   1.644
 4304TIP3   OH212917   2.123   2.185   1.386
 4304TIP3    H112918   2.064   2.259   1.369
 4304TIP3    H212919   2.065   2.113   1.409
 4305TIP3   OH212920   2.084   1.056   3.368
 4305TIP3    H112921   2.144   1.073   3.441
 4305TIP3    H212922   1.997   1.074   3.404
 4306TIP3   OH212923   3.385   0.440   4.913
 4306TIP3    H112924   3.374   0.535   4.917
 4306TIP3    H212925   3.471   0.424   4.952
 4307TIP3   OH212926   5.494   1.025   2.153
 4307TIP3    H112927   5.486   0.968   2.230
 4307TIP3    H212928   5.514   0.965   2.081
 4308TIP3   OH212929   6.226   5.498   0.932
 4308TIP3    H112930   6.229   5.564   1.001
 4308TIP3    H212931   6.167   5.536   0.866
 4309TIP3   OH212932   2.047   0.355   3.277
 4309TIP3    H112933   2.039   0.450   3.276
 4309TIP3    H212934   2.100   0.334   3.200
 4310TIP3   OH212935   1.741   3.508   1.070
 4310TIP3    H112936   1.646   3.519   1.073
 4310TIP3    H212937   1.776   3.596   1.067
 4311TIP3   OH212938   0.152   1.376   1.060
 4311TIP3    H112939   0.227   1.322   1.035
 4311TIP3    H212940   0.097   1.317   1.111
 4312TIP3   OH212941   2.161   2.564   4.056
 4312TIP3    H112942   2.218   2.508   4.003
 4312TIP3    H212943   2.213   2.587   4.132
 4313TIP3   OH212944   2.531   5.020   3.477
 4313TIP3    H112945   2.467   4.993   3.543
 4313TIP3    H212946   2.487   5.091   3.429
 4314TIP3   OH212947   5.062   2.914   3.525
 4314TIP3    H112948   5.109   2.867   3.594
 4314TIP3    H212949   5.120   2.986   3.501
 4315TIP3   OH212950   2.808   5.396   0.212
 4315TIP3    H112951   2.856   5.382   0.293
 4315TIP3    H212952   2.805   5.491   0.202
 4316TIP3   OH212953   5.650   3.884   4.766
 4316TIP3    H112954   5.615   3.849   4.685
 4316TIP3    H212955   5.745   3.888   4.752
 4317TIP3   OH212956   2.805   5.648   0.066
 4317TIP3    H112957   2.813   5.730   0.115
 4317TIP3    H212958   2.784   5.675  -0.023
 4318TIP3   OH212959   0.782   1.916   4.482
 4318TIP3    H112960   0.838   1.945   4.411
 4318TIP3    H212961   0.841   1.871   4.543
 4319TIP3   OH212962   1.135   2.613   3.571
 4319TIP3    H112963   1.222   2.647   3.551
 4319TIP3    H212964   1.141   2.589   3.664
 4320TIP3   OH212965   0.575   4.995   0.218
 4320TIP3    H112966   0.615   4.973   0.302
 4320TIP3    H212967   0.484   4.966   0.226
 4321TIP3   OH212968   4.951   4.550   4.201
 4321TIP3    H112969   4.982   4.638   4.179
 4321TIP3    H212970   4.856   4.560   4.211
 4322TIP3   OH212971   4.267   3.499   2.598
 4322TIP3    H112972   4.317   3.571   2.637
 4322TIP3    H212973   4.332   3.447   2.551
 4323TIP3   OH212974   3.521   0.003   3.289
 4323TIP3    H112975   3.522  -0.007   3.384
 4323TIP3    H212976   3.430   0.022   3.268
 4324TIP3   OH212977   3.765   5.608   0.190
 4324TIP3    H112978   3.855   5.626   0.166
 4324TIP3    H212979   3.769   5.585   0.283
 4325TIP3   OH212980   4.003   1.587   1.515
 4325TIP3    H112981   4.047   1.657   1.466
 4325TIP3    H212982   4.054   1.580   1.596
 4326TIP3   OH212983   3.887   0.869   4.909
 4326TIP3    H112984   3.808   0.918   4.934
 4326TIP3    H212985   3.872   0.843   4.818
 4327TIP3   OH212986   4.525   2.007   4.815
 4327TIP3    H112987   4.454   1.965   4.766
 4327TIP3    H212988   4.579   1.934   4.846
 4328TIP3   OH212989   0.160   0.581   4.433
 4328TIP3    H112990   0.141   0.617   4.520
 4328TIP3    H212991   0.255   0.585   4.426
 4329TIP3   OH212992   3.258   5.692   4.354
 4329TIP3    H112993   3.198   5.616   4.353
 4329TIP3    H212994   3.340   5.656   4.387
 4330TIP3   OH212995   5.240   4.603   3.262
 4330TIP3    H112996   5.260   4.697   3.264
 4330TIP3    H212997   5.165   4.593   3.321
 4331TIP3   OH212998   4.087   2.628   4.614
 4331TIP3    H112999   4.029   2.600   4.686
 4331TIP3    H213000   4.077   2.559   4.548
 4332TIP3   OH213001   5.298   5.489   2.630
 4332TIP3    H113002   5.298   5.559   2.696
 4332TIP3    H213003   5.332   5.412   2.676
 4333TIP3   OH213004   4.237   4.260   0.528
 4333TIP3    H113005   4.308   4.291   0.472
 4333TIP3    H213006   4.200   4.185   0.481
 4334TIP3   OH213007   4.745   1.204   4.743
 4334TIP3    H113008   4.736   1.293   4.709
 4334TIP3    H213009   4.757   1.216   4.837
 4335TIP3   OH213010   1.095   5.783   3.265
 4335TIP3    H113011   1.135   5.739   3.189
 4335TIP3    H213012   1.051   5.860   3.228
 4336TIP3   OH213013   0.668   2.728   0.957
 4336TIP3    H113014   0.760   2.738   0.931
 4336TIP3    H213015   0.659   2.785   1.033
 4337TIP3   OH213016   2.072   3.492   2.097
 4337TIP3    H113017   2.046   3.404   2.070
 4337TIP3    H213018   2.167   3.490   2.099
 4338TIP3   OH213019   5.274   4.762   3.916
 4338TIP3    H113020   5.265   4.794   4.005
 4338TIP3    H213021   5.258   4.668   3.922
 4339TIP3   OH213022   5.262   1.083   1.419
 4339TIP3    H113023   5.179   1.130   1.416
 4339TIP3    H213024   5.271   1.046   1.331
 4340TIP3   OH213025   2.851   1.649   1.118
 4340TIP3    H113026   2.834   1.555   1.108
 4340TIP3    H213027   2.814   1.688   1.039
 4341TIP3   OH213028   2.672   3.507   4.271
 4341TIP3    H113029   2.617   3.433   4.247
 4341TIP3    H213030   2.750   3.499   4.216
 4342TIP3   OH213031   1.300   3.506   3.750
 4342TIP3    H113032   1.352   3.426   3.746
 4342TIP3    H213033   1.324   3.555   3.672
 4343TIP3   OH213034   6.012   2.311   2.732
 4343TIP3    H113035   5.983   2.352   2.814
 4343TIP3    H213036   6.086   2.255   2.758
 4344TIP3   OH213037   5.613   5.419   1.123
 4344TIP3    H113038   5.547   5.366   1.078
 4344TIP3    H213039   5.691   5.364   1.122
 4345TIP3   OH213040   0.105   4.587   2.159
 4345TIP3    H113041   0.038   4.604   2.226
 4345TIP3    H213042   0.058   4.588   2.076
 4346TIP3   OH213043   0.998   4.840   4.722
 4346TIP3    H113044   1.029   4.784   4.651
 4346TIP3    H213045   0.997   4.783   4.799
 4347TIP3   OH213046   5.318   5.668   3.587
 4347TIP3    H113047   5.232   5.683   3.547
 4347TIP3    H213048   5.301   5.671   3.681
 4348TIP3   OH213049   3.826   5.878   2.227
 4348TIP3    H113050   3.886   5.845   2.161
 4348TIP3    H213051   3.740   5.847   2.199
 4349TIP3   OH213052   5.721   5.766   2.687
 4349TIP3    H113053   5.642   5.733   2.644
 4349TIP3    H213054   5.792   5.720   2.644
 4350TIP3   OH213055   1.896   1.772   2.694
 4350TIP3    H113056   1.989   1.789   2.682
 4350TIP3    H213057   1.872   1.821   2.773
 4351TIP3   OH213058   2.009   5.143   4.634
 4351TIP3    H113059   2.102   5.146   4.656
 4351TIP3    H213060   2.006   5.162   4.540
 4352TIP3   OH213061   2.516   1.880   0.404
 4352TIP3    H113062   2.560   1.907   0.484
 4352TIP3    H213063   2.461   1.806   0.431
 4353TIP3   OH213064   0.401   3.490   3.175
 4353TIP3    H113065   0.474   3.457   3.122
 4353TIP3    H213066   0.440   3.554   3.234
 4354TIP3   OH213067   2.093   2.181   0.347
 4354TIP3    H113068   2.165   2.156   0.405
 4354TIP3    H213069   2.130   2.177   0.259
 4355TIP3   OH213070   4.335   5.753   4.524
 4355TIP3    H113071   4.394   5.825   4.547
 4355TIP3    H213072   4.272   5.749   4.596
 4356TIP3   OH213073   1.247   4.697   2.938
 4356TIP3    H113074   1.308   4.631   2.906
 4356TIP3    H213075   1.293   4.780   2.928
 4357TIP3   OH213076   0.712   5.948   4.750
 4357TIP3    H113077   0.696   5.891   4.825
 4357TIP3    H213078   0.779   6.010   4.781
 4358TIP3   OH213079   5.383   5.815   0.757
 4358TIP3    H113080   5.343   5.747   0.812
 4358TIP3    H213081   5.405   5.769   0.676
 4359TIP3   OH213082   2.051   1.754   3.146
 4359TIP3    H113083   2.063   1.672   3.098
 4359TIP3    H213084   2.071   1.823   3.082
 4360TIP3   OH213085   0.607   1.502   2.987
 4360TIP3    H113086   0.653   1.432   2.941
 4360TIP3    H213087   0.523   1.509   2.941
 4361TIP3   OH213088   0.957   3.799   1.851
 4361TIP3    H113089   0.933   3.888   1.824
 4361TIP3    H213090   0.893   3.743   1.807
 4362TIP3   OH213091   5.528   3.490   4.830
 4362TIP3    H113092   5.574   3.574   4.821
 4362TIP3    H213093   5.594   3.424   4.811
 4363TIP3   OH213094   1.616   1.377   4.476
 4363TIP3    H113095   1.564   1.450   4.511
 4363TIP3    H213096   1.612   1.310   4.544
 4364TIP3   OH213097   3.379   2.081   4.644
 4364TIP3    H113098   3.449   2.018   4.627
 4364TIP3    H213099   3.375   2.088   4.739
 4365TIP3   OH213100   2.170   4.824   1.431
 4365TIP3    H113101   2.234   4.822   1.502
 4365TIP3    H213102   2.205   4.888   1.369
 4366TIP3   OH213103   4.987   4.235   3.597
 4366TIP3    H113104   4.947   4.171   3.538
 4366TIP3    H213105   5.030   4.182   3.664
 4367TIP3   OH213106   0.499   1.376   0.554
 4367TIP3    H113107   0.563   1.374   0.626
 4367TIP3    H213108   0.552   1.361   0.476
 4368TIP3   OH213109   2.960   4.117   3.521
 4368TIP3    H113110   3.019   4.165   3.580
 4368TIP3    H213111   3.005   4.117   3.437
 4369TIP3   OH213112   3.347   1.189   4.972
 4369TIP3    H113113   3.385   1.212   5.056
 4369TIP3    H213114   3.422   1.170   4.916
 4370TIP3   OH213115   2.403   0.446   3.739
 4370TIP3    H113116   2.327   0.407   3.782
 4370TIP3    H213117   2.466   0.461   3.809
 4371TIP3   OH213118   1.166   1.471   2.264
 4371TIP3    H113119   1.251   1.457   2.222
 4371TIP3    H213120   1.118   1.526   2.202
 4372TIP3   OH213121   5.149   1.623   2.309
 4372TIP3    H113122   5.241   1.632   2.283
 4372TIP3    H213123   5.099   1.656   2.235
 4373TIP3   OH213124   3.875   1.968   4.466
 4373TIP3    H113125   3.897   1.879   4.438
 4373TIP3    H213126   3.915   1.976   4.553
 4374TIP3   OH213127   2.973   0.711   3.321
 4374TIP3    H113128   3.050   0.655   3.328
 4374TIP3    H213129   3.003   0.789   3.274
 4375TIP3   OH213130   0.116   4.115   4.449
 4375TIP3    H113131   0.184   4.157   4.395
 4375TIP3    H213132   0.085   4.043   4.395
 4376TIP3   OH213133   3.967   4.486   4.030
 4376TIP3    H113134   4.012   4.563   4.066
 4376TIP3    H213135   3.988   4.488   3.937
 4377TIP3   OH213136   2.671   2.005   0.629
 4377TIP3    H113137   2.757   2.033   0.597
 4377TIP3    H213138   2.683   1.912   0.649
 4378TIP3   OH213139   3.240   0.024   0.206
 4378TIP3    H113140   3.148   0.017   0.231
 4378TIP3    H213141   3.242  -0.004   0.114
 4379TIP3   OH213142   2.222   2.902   3.533
 4379TIP3    H113143   2.266   2.848   3.599
 4379TIP3    H213144   2.222   2.990   3.570
 4380TIP3   OH213145   2.600   1.048   0.004
 4380TIP3    H113146   2.644   0.981  -0.049
 4380TIP3    H213147   2.665   1.073   0.070
 4381TIP3   OH213148   4.628   5.422   2.813
 4381TIP3    H113149   4.666   5.333   2.815
 4381TIP3    H213150   4.702   5.479   2.834
 4382TIP3   OH213151   2.077   0.819   3.216
 4382TIP3    H113152   2.071   0.911   3.241
 4382TIP3    H213153   2.149   0.815   3.154
 4383TIP3   OH213154   2.112   1.160   1.785
 4383TIP3    H113155   2.036   1.217   1.785
 4383TIP3    H213156   2.178   1.207   1.734
 4384TIP3   OH213157   0.431   5.974   3.272
 4384TIP3    H113158   0.499   5.953   3.335
 4384TIP3    H213159   0.350   5.938   3.309
 4385TIP3   OH213160   1.594   5.316   0.297
 4385TIP3    H113161   1.569   5.257   0.226
 4385TIP3    H213162   1.573   5.267   0.377
 4386TIP3   OH213163  -0.025   3.367   4.319
 4386TIP3    H113164  -0.088   3.314   4.368
 4386TIP3    H213165   0.031   3.406   4.386
 4387TIP3   OH213166   2.019   5.571   0.332
 4387TIP3    H113167   2.019   5.476   0.337
 4387TIP3    H213168   2.111   5.595   0.318
 4388TIP3   OH213169   1.193   0.231   4.206
 4388TIP3    H113170   1.199   0.319   4.243
 4388TIP3    H213171   1.160   0.244   4.117
 4389TIP3   OH213172   2.854   3.966   0.814
 4389TIP3    H113173   2.773   3.951   0.862
 4389TIP3    H213174   2.881   3.878   0.785
 4390TIP3   OH213175   5.371   5.902   5.063
 4390TIP3    H113176   5.281   5.873   5.052
 4390TIP3    H213177   5.423   5.844   5.007
 4391TIP3   OH213178   1.013   1.308   3.265
 4391TIP3    H113179   0.978   1.296   3.353
 4391TIP3    H213180   0.996   1.399   3.244
 4392TIP3   OH213181   0.452   5.264   3.188
 4392TIP3    H113182   0.513   5.257   3.261
 4392TIP3    H213183   0.508   5.261   3.110
 4393TIP3   OH213184   0.051   2.123   1.937
 4393TIP3    H113185   0.012   2.074   1.865
 4393TIP3    H213186   0.016   2.081   2.016
 4394TIP3   OH213187   2.889   3.816   2.141
 4394TIP3    H113188   2.801   3.841   2.171
 4394TIP3    H213189   2.874   3.744   2.080
 4395TIP3   OH213190   0.337   2.066   4.779
 4395TIP3    H113191   0.308   2.108   4.860
 4395TIP3    H213192   0.290   1.982   4.777
 4396TIP3   OH213193   1.046   1.943   1.510
 4396TIP3    H113194   1.107   1.872   1.486
 4396TIP3    H213195   1.028   1.928   1.603
 4397TIP3   OH213196   0.678   1.825   1.149
 4397TIP3    H113197   0.762   1.854   1.184
 4397TIP3    H213198   0.639   1.773   1.220
 4398TIP3   OH213199   5.253   4.019   3.519
 4398TIP3    H113200   5.313   3.967   3.573
 4398TIP3    H213201   5.274   4.110   3.540
 4399TIP3   OH213202   5.177   0.447   0.041
 4399TIP3    H113203   5.083   0.462   0.048
 4399TIP3    H213204   5.190   0.359   0.076
 4400TIP3   OH213205   4.802   1.103   3.684
 4400TIP3    H113206   4.791   1.188   3.725
 4400TIP3    H213207   4.892   1.104   3.650
 4401TIP3   OH213208   3.686   3.311   4.994
 4401TIP3    H113209   3.770   3.336   5.033
 4401TIP3    H213210   3.681   3.362   4.913
 4402TIP3   OH213211   5.929   0.735   0.575
 4402TIP3    H113212   6.023   0.747   0.566
 4402TIP3    H213213   5.904   0.794   0.646
 4403TIP3   OH213214   4.627   3.728   4.520
 4403TIP3    H113215   4.648   3.734   4.426
 4403TIP3    H213216   4.617   3.634   4.537
 4404TIP3   OH213217   2.622   5.627   0.883
 4404TIP3    H113218   2.643   5.645   0.792
 4404TIP3    H213219   2.638   5.533   0.893
 4405TIP3   OH213220   4.464   0.635   1.179
 4405TIP3    H113221   4.442   0.727   1.162
 4405TIP3    H213222   4.423   0.616   1.264
 4406TIP3   OH213223   2.504   2.079   2.565
 4406TIP3    H113224   2.452   2.086   2.485
 4406TIP3    H213225   2.556   2.159   2.568
 4407TIP3   OH213226   4.874   4.834   3.518
 4407TIP3    H113227   4.966   4.807   3.511
 4407TIP3    H213228   4.876   4.929   3.509
 4408TIP3   OH213229   6.282   2.028   3.354
 4408TIP3    H113230   6.355   2.024   3.416
 4408TIP3    H213231   6.263   2.121   3.344
 4409TIP3   OH213232   2.954   4.211   0.728
 4409TIP3    H113233   2.928   4.126   0.765
 4409TIP3    H213234   3.033   4.235   0.776
 4410TIP3   OH213235   1.946   1.664   1.825
 4410TIP3    H113236   1.997   1.740   1.798
 4410TIP3    H213237   1.908   1.690   1.909
 4411TIP3   OH213238   3.477   5.454   0.616
 4411TIP3    H113239   3.457   5.492   0.530
 4411TIP3    H213240   3.540   5.515   0.655
 4412TIP3   OH213241   1.321   1.360   3.150
 4412TIP3    H113242   1.322   1.445   3.105
 4412TIP3    H213243   1.412   1.343   3.172
 4413TIP3   OH213244   3.400   1.229   3.452
 4413TIP3    H113245   3.487   1.215   3.490
 4413TIP3    H213246   3.360   1.294   3.509
 4414TIP3   OH213247   5.488   1.790   5.064
 4414TIP3    H113248   5.559   1.824   5.118
 4414TIP3    H213249   5.413   1.844   5.086
 4415TIP3   OH213250   0.032   2.028   2.417
 4415TIP3    H113251   0.112   2.003   2.370
 4415TIP3    H213252   0.058   2.105   2.468
 4416TIP3   OH213253   4.449   3.861   0.583
 4416TIP3    H113254   4.505   3.936   0.561
 4416TIP3    H213255   4.441   3.865   0.678
 4417TIP3   OH213256   4.523   3.968   3.431
 4417TIP3    H113257   4.592   3.910   3.464
 4417TIP3    H213258   4.472   3.913   3.372
 4418TIP3   OH213259   1.281   0.351   3.760
 4418TIP3    H113260   1.288   0.269   3.809
 4418TIP3    H213261   1.313   0.418   3.820
 4419TIP3   OH213262   3.801   0.411   4.088
 4419TIP3    H113263   3.740   0.380   4.156
 4419TIP3    H213264   3.754   0.481   4.044
 4420TIP3   OH213265   1.975   1.044   0.790
 4420TIP3    H113266   1.895   0.991   0.795
 4420TIP3    H213267   1.994   1.069   0.880
 4421TIP3   OH213268   3.501   4.525   0.643
 4421TIP3    H113269   3.569   4.499   0.581
 4421TIP3    H213270   3.514   4.467   0.718
 4422TIP3   OH213271   3.265   1.566   2.197
 4422TIP3    H113272   3.342   1.559   2.253
 4422TIP3    H213273   3.228   1.652   2.218
 4423TIP3   OH213274   0.489   2.677   2.164
 4423TIP3    H113275   0.551   2.698   2.234
 4423TIP3    H213276   0.477   2.583   2.169
 4424TIP3   OH213277   1.877   0.161   2.167
 4424TIP3    H113278   1.786   0.139   2.186
 4424TIP3    H213279   1.882   0.256   2.183
 4425TIP3   OH213280   5.485   1.103   0.350
 4425TIP3    H113281   5.424   1.100   0.277
 4425TIP3    H213282   5.555   1.042   0.326
 4426TIP3   OH213283   1.798   2.389   4.409
 4426TIP3    H113284   1.754   2.305   4.397
 4426TIP3    H213285   1.790   2.409   4.502
 4427TIP3   OH213286   6.296   2.029   3.061
 4427TIP3    H113287   6.320   1.937   3.046
 4427TIP3    H213288   6.240   2.026   3.138
 4428TIP3   OH213289   5.204   0.944   3.269
 4428TIP3    H113290   5.240   0.891   3.198
 4428TIP3    H213291   5.127   0.987   3.231
 4429TIP3   OH213292   3.569   2.802   3.973
 4429TIP3    H113293   3.634   2.773   3.909
 4429TIP3    H213294   3.500   2.843   3.919
 4430TIP3   OH213295   6.174   5.484   4.512
 4430TIP3    H113296   6.151   5.571   4.546
 4430TIP3    H213297   6.219   5.441   4.585
 4431TIP3   OH213298   4.011   1.829   1.709
 4431TIP3    H113299   4.035   1.912   1.669
 4431TIP3    H213300   4.001   1.849   1.802
 4432TIP3   OH213301   1.686   2.160   2.804
 4432TIP3    H113302   1.681   2.116   2.719
 4432TIP3    H213303   1.613   2.124   2.854
 4433TIP3   OH213304   3.035   4.483   0.722
 4433TIP3    H113305   2.983   4.418   0.676
 4433TIP3    H213306   3.120   4.442   0.734
 4434TIP3   OH213307   0.826   0.858   5.045
 4434TIP3    H113308   0.839   0.949   5.074
 4434TIP3    H213309   0.741   0.860   5.000
 4435TIP3   OH213310   1.633   3.120   2.373
 4435TIP3    H113311   1.553   3.168   2.396
 4435TIP3    H213312   1.638   3.049   2.437
 4436TIP3   OH213313   4.732   5.159   2.850
 4436TIP3    H113314   4.765   5.140   2.938
 4436TIP3    H213315   4.665   5.093   2.834
 4437TIP3   OH213316   3.981   4.918   3.565
 4437TIP3    H113317   4.036   4.981   3.519
 4437TIP3    H213318   3.962   4.959   3.650
 4438TIP3   OH213319   4.282   0.644   3.963
 4438TIP3    H113320   4.346   0.667   4.030
 4438TIP3    H213321   4.212   0.599   4.010
 4439TIP3   OH213322   0.633   5.167   2.699
 4439TIP3    H113323   0.648   5.256   2.669
 4439TIP3    H213324   0.551   5.141   2.657
 4440TIP3   OH213325   5.999   5.811   1.953
 4440TIP3    H113326   6.028   5.748   1.887
 4440TIP3    H213327   6.075   5.867   1.968
 4441TIP3   OH213328   4.954   1.231   0.540
 4441TIP3    H113329   5.000   1.147   0.545
 4441TIP3    H213330   5.024   1.296   0.540
 4442TIP3   OH213331   0.964   3.883   1.225
 4442TIP3    H113332   1.023   3.905   1.297
 4442TIP3    H213333   0.928   3.798   1.249
 4443TIP3   OH213334   6.066   0.612   1.340
 4443TIP3    H113335   6.136   0.664   1.378
 4443TIP3    H213336   6.017   0.675   1.286
 4444TIP3   OH213337   0.364   1.204   0.989
 4444TIP3    H113338   0.445   1.249   1.011
 4444TIP3    H213339   0.349   1.145   1.063
 4445TIP3   OH213340   3.940   1.123   2.129
 4445TIP3    H113341   4.009   1.062   2.102
 4445TIP3    H213342   3.860   1.071   2.127
 4446TIP3   OH213343   1.618   1.364   3.050
 4446TIP3    H113344   1.677   1.337   2.980
 4446TIP3    H213345   1.657   1.329   3.130
 4447TIP3   OH213346   4.797   1.963   1.383
 4447TIP3    H113347   4.863   2.014   1.430
 4447TIP3    H213348   4.754   1.910   1.451
 4448TIP3   OH213349   2.300   3.930   4.522
 4448TIP3    H113350   2.245   3.859   4.490
 4448TIP3    H213351   2.297   3.996   4.453
 4449TIP3   OH213352   0.658   3.164   2.212
 4449TIP3    H113353   0.608   3.244   2.198
 4449TIP3    H213354   0.742   3.180   2.169
 4450TIP3   OH213355   3.145   5.065   2.129
 4450TIP3    H113356   3.238   5.065   2.154
 4450TIP3    H213357   3.147   5.073   2.033
 4451TIP3   OH213358   2.259   5.189   4.749
 4451TIP3    H113359   2.324   5.128   4.715
 4451TIP3    H213360   2.266   5.183   4.844
 4452TIP3   OH213361   2.401   5.083   1.776
 4452TIP3    H113362   2.397   5.172   1.812
 4452TIP3    H213363   2.449   5.033   1.841
 4453TIP3   OH213364   4.788   3.473   1.306
 4453TIP3    H113365   4.778   3.567   1.294
 4453TIP3    H213366   4.865   3.463   1.362
 4454TIP3   OH213367   4.703   3.207   1.049
 4454TIP3    H113368   4.641   3.246   0.988
 4454TIP3    H213369   4.789   3.225   1.011
 4455TIP3   OH213370   1.358   2.300   0.643
 4455TIP3    H113371   1.361   2.207   0.662
 4455TIP3    H213372   1.282   2.311   0.585
 4456TIP3   OH213373   0.991   2.039   0.505
 4456TIP3    H113374   0.906   2.082   0.519
 4456TIP3    H213375   1.054   2.111   0.506
 4457TIP3   OH213376   0.557   5.457   0.766
 4457TIP3    H113377   0.605   5.525   0.719
 4457TIP3    H213378   0.476   5.445   0.717
 4458TIP3   OH213379   1.407   0.735   0.419
 4458TIP3    H113380   1.446   0.749   0.333
 4458TIP3    H213381   1.467   0.676   0.464
 4459TIP3   OH213382   3.753   1.662   2.413
 4459TIP3    H113383   3.765   1.629   2.502
 4459TIP3    H213384   3.713   1.589   2.365
 4460TIP3   OH213385   5.055   2.693   0.578
 4460TIP3    H113386   5.101   2.743   0.646
 4460TIP3    H213387   5.013   2.759   0.523
 4461TIP3   OH213388   6.162   3.028   2.640
 4461TIP3    H113389   6.252   3.019   2.609
 4461TIP3    H213390   6.126   3.101   2.590
 4462TIP3   OH213391   0.641   3.741   0.118
 4462TIP3    H113392   0.609   3.652   0.133
 4462TIP3    H213393   0.565   3.797   0.132
 4463TIP3   OH213394   0.698   5.625   2.566
 4463TIP3    H113395   0.705   5.538   2.527
 4463TIP3    H213396   0.697   5.609   2.661
 4464TIP3   OH213397   4.692   4.210   4.212
 4464TIP3    H113398   4.705   4.171   4.125
 4464TIP3    H213399   4.691   4.304   4.196
 4465TIP3   OH213400   4.404   0.226   0.745
 4465TIP3    H113401   4.384   0.256   0.833
 4465TIP3    H213402   4.378   0.299   0.689
 4466TIP3   OH213403   0.608   0.248   5.157
 4466TIP3    H113404   0.678   0.289   5.107
 4466TIP3    H213405   0.651   0.215   5.235
 4467TIP3   OH213406   2.508   3.417   4.505
 4467TIP3    H113407   2.549   3.483   4.450
 4467TIP3    H213408   2.534   3.334   4.465
 4468TIP3   OH213409   4.527   0.542   4.441
 4468TIP3    H113410   4.505   0.611   4.504
 4468TIP3    H213411   4.502   0.579   4.356
 4469TIP3   OH213412   2.956   5.815   3.853
 4469TIP3    H113413   3.037   5.782   3.815
 4469TIP3    H213414   2.902   5.737   3.865
 4470TIP3   OH213415   4.171   0.124   4.066
 4470TIP3    H113416   4.084   0.161   4.083
 4470TIP3    H213417   4.153   0.041   4.023
 4471TIP3   OH213418   4.866   1.131   2.313
 4471TIP3    H113419   4.888   1.182   2.235
 4471TIP3    H213420   4.940   1.072   2.325
 4472TIP3   OH213421   5.585   4.230   1.141
 4472TIP3    H113422   5.555   4.309   1.186
 4472TIP3    H213423   5.678   4.245   1.125
 4473TIP3   OH213424   5.648   4.850   3.583
 4473TIP3    H113425   5.712   4.784   3.610
 4473TIP3    H213426   5.569   4.829   3.633
 4474TIP3   OH213427   3.092   0.317   0.191
 4474TIP3    H113428   3.121   0.248   0.251
 4474TIP3    H213429   3.102   0.279   0.104
 4475TIP3   OH213430   2.367   1.940   2.751
 4475TIP3    H113431   2.413   1.994   2.687
 4475TIP3    H213432   2.435   1.912   2.812
 4476TIP3   OH213433   5.971   4.091   4.792
 4476TIP3    H113434   5.994   4.175   4.753
 4476TIP3    H213435   5.936   4.113   4.878
 4477TIP3   OH213436   5.040   5.968   0.435
 4477TIP3    H113437   5.086   5.971   0.519
 4477TIP3    H213438   5.093   6.022   0.377
 4478TIP3   OH213439   2.031   1.156   0.536
 4478TIP3    H113440   1.993   1.152   0.624
 4478TIP3    H213441   2.121   1.184   0.550
 4479TIP3   OH213442   3.166   3.952   4.507
 4479TIP3    H113443   3.092   3.902   4.472
 4479TIP3    H213444   3.132   4.040   4.518
 4480TIP3   OH213445   2.132   2.817   1.450
 4480TIP3    H113446   2.066   2.749   1.461
 4480TIP3    H213447   2.084   2.899   1.459
 4481TIP3   OH213448   0.803   4.657   1.554
 4481TIP3    H113449   0.820   4.633   1.463
 4481TIP3    H213450   0.886   4.639   1.599
 4482TIP3   OH213451   5.070   4.549   4.646
 4482TIP3    H113452   5.027   4.560   4.731
 4482TIP3    H213453   5.163   4.558   4.665
 4483TIP3   OH213454   6.002   1.903   2.336
 4483TIP3    H113455   5.980   1.897   2.243
 4483TIP3    H213456   5.932   1.854   2.380
 4484TIP3   OH213457   3.816   2.424   2.362
 4484TIP3    H113458   3.909   2.400   2.361
 4484TIP3    H213459   3.810   2.493   2.428
 4485TIP3   OH213460   0.073   2.266   1.533
 4485TIP3    H113461   0.045   2.317   1.610
 4485TIP3    H213462   0.083   2.177   1.566
 4486TIP3   OH213463   4.692   3.449   5.056
 4486TIP3    H113464   4.716   3.524   5.003
 4486TIP3    H213465   4.672   3.380   4.993
 4487TIP3   OH213466   2.564   1.855   2.906
 4487TIP3    H113467   2.533   1.914   2.975
 4487TIP3    H213468   2.659   1.854   2.916
 4488TIP3   OH213469   4.888   3.543   3.187
 4488TIP3    H113470   4.982   3.554   3.203
 4488TIP3    H213471   4.849   3.542   3.275
 4489TIP3   OH213472   3.567   2.388   3.821
 4489TIP3    H113473   3.513   2.382   3.899
 4489TIP3    H213474   3.513   2.350   3.752
 4490TIP3   OH213475   3.472   3.194   3.187
 4490TIP3    H113476   3.419   3.237   3.121
 4490TIP3    H213477   3.456   3.100   3.173
 4491TIP3   OH213478   5.802   1.638   2.331
 4491TIP3    H113479   5.737   1.670   2.394
 4491TIP3    H213480   5.882   1.628   2.382
 4492TIP3   OH213481   1.459   4.480   4.167
 4492TIP3    H113482   1.475   4.542   4.096
 4492TIP3    H213483   1.545   4.466   4.207
 4493TIP3   OH213484   4.935   3.350   4.501
 4493TIP3    H113485   4.882   3.408   4.446
 4493TIP3    H213486   4.948   3.272   4.447
 4494TIP3   OH213487   5.157   0.221   4.160
 4494TIP3    H113488   5.201   0.289   4.110
 4494TIP3    H213489   5.227   0.161   4.187
 4495TIP3   OH213490   1.011   4.969   1.165
 4495TIP3    H113491   0.941   5.027   1.135
 4495TIP3    H213492   1.071   5.026   1.213
 4496TIP3   OH213493   5.499   2.698   2.787
 4496TIP3    H113494   5.586   2.738   2.791
 4496TIP3    H213495   5.497   2.638   2.861
 4497TIP3   OH213496   3.488   2.879   4.932
 4497TIP3    H113497   3.415   2.922   4.977
 4497TIP3    H213498   3.458   2.867   4.842
 4498TIP3   OH213499   3.733   5.227   2.269
 4498TIP3    H113500   3.670   5.222   2.340
 4498TIP3    H213501   3.728   5.318   2.238
 4499TIP3   OH213502   2.328   3.056  -0.012
 4499TIP3    H113503   2.372   3.138   0.009
 4499TIP3    H213504   2.374   2.991   0.042
 4500TIP3   OH213505   5.913   3.713   2.925
 4500TIP3    H113506   6.005   3.712   2.898
 4500TIP3    H213507   5.893   3.806   2.939
 4501TIP3   OH213508   0.732   0.497   4.469
 4501TIP3    H113509   0.828   0.491   4.467
 4501TIP3    H213510   0.702   0.407   4.453
 4502TIP3   OH213511   5.399   4.826   4.450
 4502TIP3    H113512   5.490   4.820   4.478
 4502TIP3    H213513   5.350   4.845   4.531
 4503TIP3   OH213514   5.380   4.137   2.982
 4503TIP3    H113515   5.335   4.160   3.064
 4503TIP3    H213516   5.420   4.052   3.000
 4504TIP3   OH213517   2.623   0.922   0.408
 4504TIP3    H113518   2.551   0.945   0.348
 4504TIP3    H213519   2.682   0.870   0.354
 4505TIP3   OH213520   4.760  -0.026   2.389
 4505TIP3    H113521   4.853  -0.027   2.368
 4505TIP3    H213522   4.757  -0.038   2.484
 4506TIP3   OH213523   4.898   2.452   2.329
 4506TIP3    H113524   4.848   2.371   2.330
 4506TIP3    H213525   4.980   2.431   2.373
 4507TIP3   OH213526   3.302   2.527   3.240
 4507TIP3    H113527   3.216   2.569   3.250
 4507TIP3    H213528   3.306   2.504   3.147
 4508TIP3   OH213529   4.366   2.844   0.206
 4508TIP3    H113530   4.307   2.806   0.271
 4508TIP3    H213531   4.404   2.920   0.251
 4509TIP3   OH213532   4.137   3.868   3.407
 4509TIP3    H113533   4.077   3.793   3.417
 4509TIP3    H213534   4.155   3.896   3.496
 4510TIP3   OH213535   2.085   3.072   1.806
 4510TIP3    H113536   2.061   3.150   1.756
 4510TIP3    H213537   2.011   3.013   1.797
 4511TIP3   OH213538   5.418   0.747   0.473
 4511TIP3    H113539   5.344   0.740   0.413
 4511TIP3    H213540   5.408   0.834   0.513
 4512TIP3   OH213541   0.736   4.196   0.157
 4512TIP3    H113542   0.758   4.283   0.125
 4512TIP3    H213543   0.647   4.181   0.125
 4513TIP3   OH213544   2.482   5.457   1.826
 4513TIP3    H113545   2.406   5.422   1.873
 4513TIP3    H213546   2.456   5.454   1.734
 4514TIP3   OH213547   2.364   4.918   3.135
 4514TIP3    H113548   2.458   4.906   3.150
 4514TIP3    H213549   2.337   4.981   3.202
 4515TIP3   OH213550   2.591   2.842   3.917
 4515TIP3    H113551   2.566   2.750   3.906
 4515TIP3    H213552   2.664   2.840   3.978
 4516TIP3   OH213553   3.975   4.018   5.026
 4516TIP3    H113554   3.923   3.994   4.949
 4516TIP3    H213555   4.063   4.034   4.992
 4517TIP3   OH213556   3.212   3.235   0.937
 4517TIP3    H113557   3.308   3.243   0.936
 4517TIP3    H213558   3.190   3.218   1.028
 4518TIP3   OH213559   1.035   4.672   4.219
 4518TIP3    H113560   0.985   4.608   4.168
 4518TIP3    H213561   1.110   4.623   4.252
 4519TIP3   OH213562   1.973   4.984   0.150
 4519TIP3    H113563   1.989   5.067   0.104
 4519TIP3    H213564   2.042   4.981   0.217
 4520TIP3   OH213565   2.678   0.648   3.197
 4520TIP3    H113566   2.678   0.719   3.261
 4520TIP3    H213567   2.656   0.570   3.249
 4521TIP3   OH213568   1.117   0.065   2.659
 4521TIP3    H113569   1.147   0.149   2.625
 4521TIP3    H213570   1.092   0.083   2.750
 4522TIP3   OH213571   3.480   0.362   4.573
 4522TIP3    H113572   3.515   0.451   4.573
 4522TIP3    H213573   3.534   0.315   4.636
 4523TIP3   OH213574   2.257   4.437   2.447
 4523TIP3    H113575   2.175   4.443   2.398
 4523TIP3    H213576   2.316   4.498   2.403
 4524TIP3   OH213577   2.627   4.912   3.215
 4524TIP3    H113578   2.654   4.872   3.298
 4524TIP3    H213579   2.633   5.006   3.231
 4525TIP3   OH213580   0.581   5.785   2.166
 4525TIP3    H113581   0.543   5.756   2.083
 4525TIP3    H213582   0.577   5.708   2.223
 4526TIP3   OH213583   1.045   0.369   4.008
 4526TIP3    H113584   0.951   0.371   3.993
 4526TIP3    H213585   1.075   0.457   3.987
 4527TIP3   OH213586   4.837   5.300   5.135
 4527TIP3    H113587   4.898   5.294   5.209
 4527TIP3    H213588   4.761   5.347   5.170
 4528TIP3   OH213589   5.363   2.033   4.548
 4528TIP3    H113590   5.349   2.127   4.556
 4528TIP3    H213591   5.362   2.016   4.453
 4529TIP3   OH213592   2.319   1.186   1.325
 4529TIP3    H113593   2.281   1.189   1.237
 4529TIP3    H213594   2.304   1.274   1.360
 4530TIP3   OH213595   5.704   0.951   3.001
 4530TIP3    H113596   5.768   0.974   2.933
 4530TIP3    H213597   5.635   0.904   2.954
 4531TIP3   OH213598   4.296   1.663   0.839
 4531TIP3    H113599   4.361   1.716   0.793
 4531TIP3    H213600   4.346   1.588   0.872
 4532TIP3   OH213601   5.523   5.621   2.509
 4532TIP3    H113602   5.451   5.563   2.534
 4532TIP3    H213603   5.481   5.703   2.485
 4533TIP3   OH213604   5.268   0.910   1.162
 4533TIP3    H113605   5.217   0.860   1.098
 4533TIP3    H213606   5.356   0.874   1.155
 4534TIP3   OH213607   5.577   3.194   1.837
 4534TIP3    H113608   5.553   3.157   1.753
 4534TIP3    H213609   5.500   3.243   1.865
 4535TIP3   OH213610   1.738   6.004   3.296
 4535TIP3    H113611   1.674   5.998   3.367
 4535TIP3    H213612   1.765   5.914   3.280
 4536TIP3   OH213613   1.714   0.874   2.150
 4536TIP3    H113614   1.801   0.912   2.163
 4536TIP3    H213615   1.731   0.787   2.114
 4537TIP3   OH213616   5.985   1.161   2.945
 4537TIP3    H113617   6.033   1.077   2.941
 4537TIP3    H213618   5.913   1.150   2.884
 4538TIP3   OH213619   5.435   5.980   1.237
 4538TIP3    H113620   5.345   5.957   1.259
 4538TIP3    H213621   5.488   5.912   1.279
 4539TIP3   OH213622   5.947   1.008   2.371
 4539TIP3    H113623   5.989   0.936   2.324
 4539TIP3    H213624   5.969   0.993   2.463
 4540TIP3   OH213625   2.002   3.821   1.294
 4540TIP3    H113626   1.999   3.899   1.349
 4540TIP3    H213627   2.044   3.755   1.348
 4541TIP3   OH213628   0.946   1.160   5.035
 4541TIP3    H113629   0.880   1.143   5.102
 4541TIP3    H213630   1.014   1.211   5.082
 4542TIP3   OH213631   2.391   2.047   4.878
 4542TIP3    H113632   2.478   2.046   4.840
 4542TIP3    H213633   2.334   2.076   4.807
 4543TIP3   OH213634   3.183   0.801   1.506
 4543TIP3    H113635   3.090   0.780   1.500
 4543TIP3    H213636   3.191   0.852   1.587
 4544TIP3   OH213637   3.158   2.079   5.154
 4544TIP3    H113638   3.202   2.000   5.185
 4544TIP3    H213639   3.224   2.148   5.160
 4545TIP3   OH213640   4.597   3.468   4.588
 4545TIP3    H113641   4.510   3.468   4.629
 4545TIP3    H213642   4.653   3.424   4.652
 4546TIP3   OH213643   0.792   1.842   0.390
 4546TIP3    H113644   0.767   1.871   0.302
 4546TIP3    H213645   0.878   1.881   0.404
 4547TIP3   OH213646   5.866   5.399   0.749
 4547TIP3    H113647   5.868   5.307   0.720
 4547TIP3    H213648   5.777   5.428   0.728
 4548TIP3   OH213649   4.780   0.795   0.619
 4548TIP3    H113650   4.790   0.792   0.714
 4548TIP3    H213651   4.869   0.791   0.585
 4549TIP3   OH213652   3.076   2.643   2.511
 4549TIP3    H113653   3.029   2.719   2.544
 4549TIP3    H213654   3.037   2.627   2.425
 4550TIP3   OH213655   3.551   3.969   1.025
 4550TIP3    H113656   3.520   3.980   0.936
 4550TIP3    H213657   3.559   3.874   1.036
 4551TIP3   OH213658   0.888   1.943   1.279
 4551TIP3    H113659   0.951   1.926   1.349
 4551TIP3    H213660   0.856   2.032   1.296
 4552TIP3   OH213661   0.311   6.005   1.638
 4552TIP3    H113662   0.292   6.010   1.545
 4552TIP3    H213663   0.335   5.913   1.653
 4553TIP3   OH213664   2.274   5.954   1.074
 4553TIP3    H113665   2.297   5.874   1.026
 4553TIP3    H213666   2.181   5.968   1.055
 4554TIP3   OH213667   3.679   2.304   0.484
 4554TIP3    H113668   3.594   2.314   0.526
 4554TIP3    H213669   3.683   2.374   0.419
 4555TIP3   OH213670   4.299   3.259   2.002
 4555TIP3    H113671   4.215   3.253   1.956
 4555TIP3    H213672   4.303   3.178   2.053
 4556TIP3   OH213673   0.829   0.502   0.958
 4556TIP3    H113674   0.769   0.562   0.914
 4556TIP3    H213675   0.838   0.538   1.046
 4557TIP3   OH213676   1.650   4.700   2.970
 4557TIP3    H113677   1.662   4.751   2.890
 4557TIP3    H213678   1.733   4.655   2.982
 4558TIP3   OH213679   0.651   1.842   4.131
 4558TIP3    H113680   0.575   1.787   4.113
 4558TIP3    H213681   0.696   1.798   4.203
 4559TIP3   OH213682   4.751   0.097   3.820
 4559TIP3    H113683   4.831   0.137   3.853
 4559TIP3    H213684   4.728   0.148   3.743
 4560TIP3   OH213685   2.208   0.817   0.167
 4560TIP3    H113686   2.253   0.752   0.220
 4560TIP3    H213687   2.128   0.772   0.137
 4561TIP3   OH213688   4.470   3.391   4.888
 4561TIP3    H113689   4.375   3.381   4.892
 4561TIP3    H213690   4.503   3.301   4.889
 4562TIP3   OH213691   3.476   2.534   1.483
 4562TIP3    H113692   3.490   2.453   1.532
 4562TIP3    H213693   3.383   2.532   1.461
 4563TIP3   OH213694   4.967   5.108   3.530
 4563TIP3    H113695   5.045   5.129   3.581
 4563TIP3    H213696   4.968   5.172   3.458
 4564TIP3   OH213697   2.291   5.455   2.664
 4564TIP3    H113698   2.348   5.478   2.590
 4564TIP3    H213699   2.351   5.428   2.733
 4565TIP3   OH213700   3.201   2.779   4.672
 4565TIP3    H113701   3.134   2.729   4.625
 4565TIP3    H213702   3.220   2.853   4.614
 4566TIP3   OH213703   2.661   1.821   0.939
 4566TIP3    H113704   2.742   1.858   0.904
 4566TIP3    H213705   2.610   1.797   0.862
 4567TIP3   OH213706   5.508   5.432   4.341
 4567TIP3    H113707   5.485   5.339   4.334
 4567TIP3    H213708   5.585   5.441   4.284
 4568TIP3   OH213709   1.871   0.172   5.105
 4568TIP3    H113710   1.917   0.248   5.139
 4568TIP3    H213711   1.921   0.097   5.137
 4569TIP3   OH213712   2.521   3.897   1.560
 4569TIP3    H113713   2.556   3.914   1.472
 4569TIP3    H213714   2.588   3.931   1.619
 4570TIP3   OH213715   4.319   4.349   4.464
 4570TIP3    H113716   4.337   4.256   4.476
 4570TIP3    H213717   4.238   4.351   4.412
 4571TIP3   OH213718   0.270   0.166   0.672
 4571TIP3    H113719   0.201   0.231   0.658
 4571TIP3    H213720   0.237   0.087   0.628
 4572TIP3   OH213721   4.381   0.051   4.829
 4572TIP3    H113722   4.351  -0.024   4.777
 4572TIP3    H213723   4.457   0.085   4.782
 4573TIP3   OH213724   3.526   5.826   1.807
 4573TIP3    H113725   3.554   5.744   1.847
 4573TIP3    H213726   3.580   5.893   1.849
 4574TIP3   OH213727   3.197   1.571   4.456
 4574TIP3    H113728   3.186   1.611   4.370
 4574TIP3    H213729   3.144   1.626   4.515
 4575TIP3   OH213730   4.260   0.448   1.321
 4575TIP3    H113731   4.230   0.537   1.340
 4575TIP3    H213732   4.243   0.436   1.228
 4576TIP3   OH213733   4.283   3.419   3.970
 4576TIP3    H113734   4.247   3.375   3.893
 4576TIP3    H213735   4.366   3.456   3.940
 4577TIP3   OH213736   2.616   1.346   0.806
 4577TIP3    H113737   2.598   1.265   0.758
 4577TIP3    H213738   2.651   1.405   0.739
 4578TIP3   OH213739   1.544   3.286   1.032
 4578TIP3    H113740   1.606   3.237   1.086
 4578TIP3    H213741   1.528   3.366   1.082
 4579TIP3   OH213742   3.266   0.040   4.986
 4579TIP3    H113743   3.305   0.085   4.910
 4579TIP3    H213744   3.341   0.011   5.037
 4580TIP3   OH213745   3.979   2.097   3.953
 4580TIP3    H113746   4.015   2.039   3.887
 4580TIP3    H213747   3.887   2.108   3.928
 4581TIP3   OH213748   1.726   4.586   3.794
 4581TIP3    H113749   1.688   4.500   3.776
 4581TIP3    H213750   1.820   4.572   3.790
 4582TIP3   OH213751   4.529   0.735   4.609
 4582TIP3    H113752   4.590   0.801   4.643
 4582TIP3    H213753   4.546   0.657   4.663
 4583TIP3   OH213754   1.815   5.715   1.060
 4583TIP3    H113755   1.815   5.689   1.152
 4583TIP3    H213756   1.907   5.732   1.040
 4584TIP3   OH213757   5.883   1.587   1.203
 4584TIP3    H113758   5.861   1.522   1.137
 4584TIP3    H213759   5.960   1.552   1.248
 4585TIP3   OH213760   4.098   2.391   2.373
 4585TIP3    H113761   4.178   2.413   2.421
 4585TIP3    H213762   4.128   2.347   2.294
 4586TIP3   OH213763   1.379   3.141   1.951
 4586TIP3    H113764   1.345   3.174   1.867
 4586TIP3    H213765   1.322   3.067   1.971
 4587TIP3   OH213766   6.092   2.859   4.004
 4587TIP3    H113767   6.099   2.792   4.072
 4587TIP3    H213768   6.178   2.860   3.963
 4588TIP3   OH213769   6.064   0.920   5.142
 4588TIP3    H113770   6.051   1.003   5.096
 4588TIP3    H213771   6.020   0.855   5.087
 4589TIP3   OH213772   3.418   5.204   1.354
 4589TIP3    H113773   3.479   5.163   1.414
 4589TIP3    H213774   3.393   5.135   1.293
 4590TIP3   OH213775   4.105   1.174   0.841
 4590TIP3    H113776   4.033   1.116   0.864
 4590TIP3    H213777   4.099   1.184   0.746
 4591TIP3   OH213778   5.345   3.304   4.590
 4591TIP3    H113779   5.336   3.378   4.650
 4591TIP3    H213780   5.348   3.227   4.648
 4592TIP3   OH213781   2.270   0.586   0.321
 4592TIP3    H113782   2.242   0.606   0.410
 4592TIP3    H213783   2.255   0.492   0.312
 4593TIP3   OH213784   2.485   5.743   2.958
 4593TIP3    H113785   2.489   5.649   2.938
 4593TIP3    H213786   2.474   5.785   2.872
 4594TIP3   OH213787   2.524   0.642   4.549
 4594TIP3    H113788   2.604   0.693   4.566
 4594TIP3    H213789   2.556   0.560   4.511
 4595TIP3   OH213790   1.309   2.680   2.205
 4595TIP3    H113791   1.345   2.680   2.294
 4595TIP3    H213792   1.214   2.679   2.218
 4596TIP3   OH213793   5.942   1.564   0.107
 4596TIP3    H113794   5.938   1.537   0.199
 4596TIP3    H213795   5.853   1.596   0.088
 4597TIP3   OH213796   6.343   1.883   4.557
 4597TIP3    H113797   6.254   1.884   4.590
 4597TIP3    H213798   6.338   1.836   4.474
 4598TIP3   OH213799   4.736   1.525   1.529
 4598TIP3    H113800   4.816   1.489   1.567
 4598TIP3    H213801   4.766   1.571   1.451
 4599TIP3   OH213802   5.259   4.884   3.183
 4599TIP3    H113803   5.173   4.862   3.148
 4599TIP3    H213804   5.301   4.935   3.114
 4600TIP3   OH213805   5.460   2.060   2.785
 4600TIP3    H113806   5.507   1.991   2.737
 4600TIP3    H213807   5.382   2.017   2.818
 4601TIP3   OH213808   3.018   4.201   1.981
 4601TIP3    H113809   3.041   4.294   1.974
 4601TIP3    H213810   2.933   4.194   1.939
 4602TIP3   OH213811   2.345   5.165   0.137
 4602TIP3    H113812   2.432   5.132   0.114
 4602TIP3    H213813   2.300   5.090   0.174
 4603TIP3   OH213814   0.459   4.226   4.927
 4603TIP3    H113815   0.395   4.193   4.864
 4603TIP3    H213816   0.470   4.154   4.990
 4604TIP3   OH213817   1.543   3.491   1.696
 4604TIP3    H113818   1.546   3.581   1.665
 4604TIP3    H213819   1.625   3.479   1.744
 4605TIP3   OH213820   1.226   3.396   2.587
 4605TIP3    H113821   1.242   3.302   2.600
 4605TIP3    H213822   1.273   3.439   2.658
 4606TIP3   OH213823   2.687   1.324   4.166
 4606TIP3    H113824   2.685   1.242   4.215
 4606TIP3    H213825   2.596   1.338   4.138
 4607TIP3   OH213826   1.646   0.107   4.726
 4607TIP3    H113827   1.704   0.058   4.667
 4607TIP3    H213828   1.698   0.182   4.754
 4608TIP3   OH213829   1.753   2.618   2.094
 4608TIP3    H113830   1.810   2.589   2.165
 4608TIP3    H213831   1.729   2.708   2.116
 4609TIP3   OH213832   0.257   5.233   5.156
 4609TIP3    H113833   0.289   5.169   5.093
 4609TIP3    H213834   0.162   5.233   5.144
 4610TIP3   OH213835   0.827   2.281   4.777
 4610TIP3    H113836   0.874   2.291   4.695
 4610TIP3    H213837   0.745   2.239   4.753
 4611TIP3   OH213838   3.208   4.422   4.134
 4611TIP3    H113839   3.215   4.504   4.085
 4611TIP3    H213840   3.196   4.450   4.225
 4612TIP3   OH213841   3.698   2.159   3.868
 4612TIP3    H113842   3.674   2.247   3.838
 4612TIP3    H213843   3.632   2.101   3.830
 4613TIP3   OH213844   0.039   4.256   2.058
 4613TIP3    H113845  -0.021   4.281   1.988
 4613TIP3    H213846  -0.004   4.285   2.139
 4614TIP3   OH213847   0.323   0.971   0.596
 4614TIP3    H113848   0.267   1.016   0.660
 4614TIP3    H213849   0.407   0.962   0.639
 4615TIP3   OH213850   0.677   5.585   1.406
 4615TIP3    H113851   0.765   5.563   1.437
 4615TIP3    H213852   0.621   5.515   1.438
 4616TIP3   OH213853   4.521   3.449   1.178
 4616TIP3    H113854   4.601   3.439   1.230
 4616TIP3    H213855   4.531   3.388   1.105
 4617TIP3   OH213856   4.103   3.780   2.151
 4617TIP3    H113857   4.066   3.693   2.133
 4617TIP3    H213858   4.175   3.788   2.089
 4618TIP3   OH213859   3.233   4.516   1.369
 4618TIP3    H113860   3.190   4.461   1.304
 4618TIP3    H213861   3.191   4.601   1.360
 4619TIP3   OH213862   3.025   5.017   3.939
 4619TIP3    H113863   3.092   5.040   4.004
 4619TIP3    H213864   2.995   5.100   3.904
 4620TIP3   OH213865   0.228   1.183   2.940
 4620TIP3    H113866   0.294   1.118   2.918
 4620TIP3    H213867   0.201   1.221   2.856
 4621TIP3   OH213868   1.599   2.133   4.906
 4621TIP3    H113869   1.643   2.094   4.982
 4621TIP3    H213870   1.550   2.062   4.867
 4622TIP3   OH213871   1.944   1.175   1.537
 4622TIP3    H113872   1.888   1.248   1.564
 4622TIP3    H213873   2.004   1.162   1.610
 4623TIP3   OH213874   4.113   1.798   1.414
 4623TIP3    H113875   4.107   1.880   1.462
 4623TIP3    H213876   4.194   1.805   1.364
 4624TIP3   OH213877   2.399   4.930   0.531
 4624TIP3    H113878   2.476   4.876   0.516
 4624TIP3    H213879   2.388   4.931   0.626
 4625TIP3   OH213880   3.913   1.036   3.060
 4625TIP3    H113881   3.824   1.045   3.026
 4625TIP3    H213882   3.911   0.954   3.109
 4626TIP3   OH213883   3.022   1.941   4.404
 4626TIP3    H113884   3.064   2.021   4.438
 4626TIP3    H213885   3.038   1.876   4.472
 4627TIP3   OH213886   5.563   0.015   1.450
 4627TIP3    H113887   5.604  -0.054   1.398
 4627TIP3    H213888   5.636   0.069   1.481
 4628TIP3   OH213889   1.504   4.693   2.573
 4628TIP3    H113890   1.491   4.787   2.587
 4628TIP3    H213891   1.450   4.672   2.497
 4629TIP3   OH213892   5.684   2.359   3.191
 4629TIP3    H113893   5.746   2.316   3.131
 4629TIP3    H213894   5.737   2.424   3.238
 4630TIP3   OH213895   4.258   2.518   0.200
 4630TIP3    H113896   4.252   2.423   0.211
 4630TIP3    H213897   4.198   2.553   0.266
 4631TIP3   OH213898   0.494   0.956   1.160
 4631TIP3    H113899   0.546   1.036   1.154
 4631TIP3    H213900   0.513   0.922   1.248
 4632TIP3   OH213901   1.009   2.034   5.117
 4632TIP3    H113902   0.959   2.086   5.181
 4632TIP3    H213903   0.995   2.079   5.034
 4633TIP3   OH213904   0.260   3.557   3.959
 4633TIP3    H113905   0.236   3.506   3.882
 4633TIP3    H213906   0.192   3.625   3.965
 4634TIP3   OH213907   6.130   1.979   0.051
 4634TIP3    H113908   6.045   1.935   0.061
 4634TIP3    H213909   6.110   2.057  -0.001
 4635TIP3   OH213910   5.786   4.796   2.024
 4635TIP3    H113911   5.713   4.748   2.064
 4635TIP3    H213912   5.783   4.771   1.932
 4636TIP3   OH213913   0.281   5.514   4.998
 4636TIP3    H113914   0.285   5.423   5.025
 4636TIP3    H213915   0.361   5.529   4.948
 4637TIP3   OH213916   2.056   0.195   1.315
 4637TIP3    H113917   1.986   0.131   1.329
 4637TIP3    H213918   2.077   0.227   1.402
 4638TIP3   OH213919   5.344   1.343   4.971
 4638TIP3    H113920   5.366   1.426   4.929
 4638TIP3    H213921   5.415   1.284   4.947
 4639TIP3   OH213922   3.794   1.671   3.283
 4639TIP3    H113923   3.794   1.697   3.190
 4639TIP3    H213924   3.702   1.679   3.309
 4640TIP3   OH213925   3.643   3.748   2.548
 4640TIP3    H113926   3.669   3.755   2.456
 4640TIP3    H213927   3.631   3.838   2.578
 4641TIP3   OH213928   0.049   4.839   5.001
 4641TIP3    H113929  -0.017   4.794   4.947
 4641TIP3    H213930   0.122   4.854   4.941
 4642TIP3   OH213931   4.897   4.962   2.467
 4642TIP3    H113932   4.944   5.005   2.539
 4642TIP3    H213933   4.827   4.913   2.510
 4643TIP3   OH213934   6.246   4.011   3.594
 4643TIP3    H113935   6.196   4.080   3.638
 4643TIP3    H213936   6.247   4.038   3.502
 4644TIP3   OH213937   4.350   1.103   2.217
 4644TIP3    H113938   4.422   1.049   2.185
 4644TIP3    H213939   4.272   1.049   2.203
 4645TIP3   OH213940   1.326   5.496   1.171
 4645TIP3    H113941   1.404   5.488   1.227
 4645TIP3    H213942   1.333   5.423   1.110
 4646TIP3   OH213943   1.972   1.277   0.981
 4646TIP3    H113944   1.885   1.265   0.942
 4646TIP3    H213945   1.960   1.254   1.073
 4647TIP3   OH213946   3.499   5.214   1.794
 4647TIP3    H113947   3.504   5.177   1.705
 4647TIP3    H213948   3.407   5.234   1.807
 4648TIP3   OH213949   4.673   4.045   4.645
 4648TIP3    H113950   4.580   4.028   4.629
 4648TIP3    H213951   4.714   4.037   4.558
 4649TIP3   OH213952   2.559   1.159   1.906
 4649TIP3    H113953   2.649   1.165   1.876
 4649TIP3    H213954   2.508   1.142   1.827
 4650TIP3   OH213955   5.633   1.689   2.100
 4650TIP3    H113956   5.555   1.722   2.145
 4650TIP3    H213957   5.699   1.681   2.169
 4651TIP3   OH213958   4.567   3.251   4.432
 4651TIP3    H113959   4.472   3.245   4.421
 4651TIP3    H213960   4.580   3.336   4.475
 4652TIP3   OH213961   1.459   4.651   0.245
 4652TIP3    H113962   1.420   4.622   0.328
 4652TIP3    H213963   1.434   4.743   0.237
 4653TIP3   OH213964   5.540   4.560   4.300
 4653TIP3    H113965   5.592   4.509   4.237
 4653TIP3    H213966   5.553   4.651   4.273
 4654TIP3   OH213967   2.583   4.767   2.617
 4654TIP3    H113968   2.630   4.718   2.550
 4654TIP3    H213969   2.592   4.859   2.591
 4655TIP3   OH213970   0.509   1.104   2.176
 4655TIP3    H113971   0.518   1.033   2.240
 4655TIP3    H213972   0.542   1.182   2.222
 4656TIP3   OH213973   2.546   2.377   1.666
 4656TIP3    H113974   2.453   2.356   1.657
 4656TIP3    H213975   2.571   2.341   1.751
 4657TIP3   OH213976   3.492   4.683   3.284
 4657TIP3    H113977   3.567   4.708   3.338
 4657TIP3    H213978   3.524   4.608   3.233
 4658TIP3   OH213979   2.396   4.527   2.696
 4658TIP3    H113980   2.472   4.566   2.653
 4658TIP3    H213981   2.366   4.459   2.635
 4659TIP3   OH213982   2.518   3.240   2.691
 4659TIP3    H113983   2.522   3.206   2.780
 4659TIP3    H213984   2.430   3.277   2.684
 4660TIP3   OH213985   2.536   5.645   3.277
 4660TIP3    H113986   2.561   5.711   3.342
 4660TIP3    H213987   2.609   5.643   3.215
 4661TIP3   OH213988   5.874   5.290   3.774
 4661TIP3    H113989   5.901   5.281   3.682
 4661TIP3    H213990   5.845   5.381   3.782
 4662TIP3   OH213991   3.766   1.393   0.979
 4662TIP3    H113992   3.688   1.416   0.928
 4662TIP3    H213993   3.839   1.433   0.931
 4663TIP3   OH213994   4.970   2.214   4.658
 4663TIP3    H113995   5.005   2.302   4.655
 4663TIP3    H213996   4.881   2.222   4.623
 4664TIP3   OH213997   0.499   0.132   4.691
 4664TIP3    H113998   0.589   0.148   4.663
 4664TIP3    H213999   0.504   0.127   4.787
 4665TIP3   OH214000   4.498   4.476   1.806
 4665TIP3    H114001   4.590   4.484   1.833
 4665TIP3    H214002   4.472   4.566   1.784
 4666TIP3   OH214003   1.438   0.093   4.214
 4666TIP3    H114004   1.495   0.117   4.140
 4666TIP3    H214005   1.356   0.139   4.198
 4667TIP3   OH214006   4.014   5.324   3.872
 4667TIP3    H114007   3.954   5.397   3.886
 4667TIP3    H214008   4.068   5.350   3.797
 4668TIP3   OH214009   5.800   5.763   0.587
 4668TIP3    H114010   5.890   5.773   0.555
 4668TIP3    H214011   5.771   5.680   0.550
 4669TIP3   OH214012   6.184   2.671   3.725
 4669TIP3    H114013   6.242   2.666   3.649
 4669TIP3    H214014   6.097   2.653   3.690
 4670TIP3   OH214015   1.402   3.997   3.869
 4670TIP3    H114016   1.438   3.950   3.794
 4670TIP3    H214017   1.309   4.005   3.850
 4671TIP3   OH214018   2.942   5.953   0.335
 4671TIP3    H114019   2.939   5.931   0.428
 4671TIP3    H214020   2.858   5.923   0.300
 4672TIP3   OH214021   5.968   1.025   1.277
 4672TIP3    H114022   5.985   1.119   1.279
 4672TIP3    H214023   5.902   1.011   1.345
 4673TIP3   OH214024   3.091   4.747   1.991
 4673TIP3    H114025   2.996   4.746   1.987
 4673TIP3    H214026   3.112   4.788   2.075
 4674TIP3   OH214027   3.492   2.132   3.513
 4674TIP3    H114028   3.552   2.200   3.481
 4674TIP3    H214029   3.423   2.181   3.557
 4675TIP3   OH214030   4.289   0.905   4.820
 4675TIP3    H114031   4.207   0.862   4.795
 4675TIP3    H214032   4.354   0.835   4.816
 4676TIP3   OH214033   5.949   3.701   0.888
 4676TIP3    H114034   5.973   3.618   0.929
 4676TIP3    H214035   5.992   3.767   0.941
 4677TIP3   OH214036   1.703   3.657   0.087
 4677TIP3    H114037   1.611   3.647   0.062
 4677TIP3    H214038   1.705   3.738   0.138
 4678TIP3   OH214039   2.908   1.390   4.728
 4678TIP3    H114040   2.955   1.331   4.788
 4678TIP3    H214041   2.821   1.400   4.768
 4679TIP3   OH214042   0.149   2.165   0.632
 4679TIP3    H114043   0.112   2.110   0.702
 4679TIP3    H214044   0.075   2.219   0.603
 4680TIP3   OH214045   0.894   0.912   1.755
 4680TIP3    H114046   0.985   0.909   1.785
 4680TIP3    H214047   0.856   0.986   1.803
 4681TIP3   OH214048   1.060   5.145   3.751
 4681TIP3    H114049   1.079   5.114   3.662
 4681TIP3    H214050   1.042   5.238   3.741
 4682TIP3   OH214051   5.840   2.999   3.980
 4682TIP3    H114052   5.846   3.088   4.013
 4682TIP3    H214053   5.927   2.962   3.996
 4683TIP3   OH214054   1.343   0.813   3.466
 4683TIP3    H114055   1.343   0.778   3.377
 4683TIP3    H214056   1.254   0.846   3.479
 4684TIP3   OH214057   3.278   2.884   2.572
 4684TIP3    H114058   3.233   2.803   2.545
 4684TIP3    H214059   3.338   2.903   2.499
 4685TIP3   OH214060   4.876   2.331   5.011
 4685TIP3    H114061   4.794   2.335   4.962
 4685TIP3    H214062   4.869   2.251   5.064
 4686TIP3   OH214063   1.138   0.177   5.126
 4686TIP3    H114064   1.172   0.225   5.052
 4686TIP3    H214065   1.170   0.088   5.114
 4687TIP3   OH214066   0.985   2.023   4.326
 4687TIP3    H114067   1.071   2.000   4.360
 4687TIP3    H214068   0.980   1.980   4.241
 4688TIP3   OH214069   3.871   2.712   0.167
 4688TIP3    H114070   3.931   2.764   0.221
 4688TIP3    H214071   3.891   2.737   0.077
 4689TIP3   OH214072   2.859   2.956   3.181
 4689TIP3    H114073   2.861   3.040   3.226
 4689TIP3    H214074   2.768   2.926   3.191
 4690TIP3   OH214075   5.986   2.283   2.418
 4690TIP3    H114076   5.991   2.242   2.505
 4690TIP3    H214077   5.992   2.377   2.436
 4691TIP3   OH214078   4.160   4.852   2.121
 4691TIP3    H114079   4.097   4.883   2.056
 4691TIP3    H214080   4.209   4.930   2.146
 4692TIP3   OH214081   2.724   1.710   4.539
 4692TIP3    H114082   2.790   1.669   4.484
 4692TIP3    H214083   2.682   1.775   4.481
 4693TIP3   OH214084   1.076   3.769   3.745
 4693TIP3    H114085   1.162   3.736   3.722
 4693TIP3    H214086   1.081   3.864   3.730
 4694TIP3   OH214087   3.029   0.673   0.440
 4694TIP3    H114088   3.119   0.645   0.457
 4694TIP3    H214089   2.980   0.647   0.518
 4695TIP3   OH214090   1.380   0.116   3.861
 4695TIP3    H114091   1.446   0.049   3.842
 4695TIP3    H214092   1.297   0.068   3.866
 4696TIP3   OH214093   1.909   0.608   3.175
 4696TIP3    H114094   1.966   0.684   3.186
 4696TIP3    H214095   1.842   0.619   3.243
 4697TIP3   OH214096   6.357   3.306   1.953
 4697TIP3    H114097   6.373   3.226   2.003
 4697TIP3    H214098   6.275   3.341   1.989
 4698TIP3   OH214099   4.743   0.990   1.675
 4698TIP3    H114100   4.780   1.063   1.725
 4698TIP3    H214101   4.816   0.929   1.664
 4699TIP3   OH214102   4.984   5.267   1.315
 4699TIP3    H114103   5.031   5.199   1.267
 4699TIP3    H214104   4.936   5.314   1.247
 4700TIP3   OH214105   3.185   3.632   0.164
 4700TIP3    H114106   3.135   3.587   0.232
 4700TIP3    H214107   3.148   3.720   0.160
 4701TIP3   OH214108   1.066   1.664   2.079
 4701TIP3    H114109   0.977   1.638   2.056
 4701TIP3    H214110   1.070   1.757   2.060
 4702TIP3   OH214111   6.326   2.331   1.784
 4702TIP3    H114112   6.360   2.270   1.849
 4702TIP3    H214113   6.236   2.301   1.768
 4703TIP3   OH214114   1.337   0.304   2.795
 4703TIP3    H114115   1.371   0.366   2.860
 4703TIP3    H214116   1.326   0.357   2.716
 4704TIP3   OH214117   4.104   3.628   3.175
 4704TIP3    H114118   4.080   3.687   3.246
 4704TIP3    H214119   4.035   3.561   3.175
 4705TIP3   OH214120   1.001   4.035   2.231
 4705TIP3    H114121   0.966   3.951   2.201
 4705TIP3    H214122   1.047   4.015   2.312
 4706TIP3   OH214123   5.124   1.004   0.621
 4706TIP3    H114124   5.129   1.015   0.716
 4706TIP3    H214125   5.211   1.026   0.589
 4707TIP3   OH214126   0.231   3.184   3.668
 4707TIP3    H114127   0.261   3.159   3.755
 4707TIP3    H214128   0.189   3.105   3.634
 4708TIP3   OH214129   3.827   3.338   4.017
 4708TIP3    H114130   3.780   3.358   4.097
 4708TIP3    H214131   3.901   3.398   4.017
 4709TIP3   OH214132   4.988   3.176   3.739
 4709TIP3    H114133   5.074   3.165   3.698
 4709TIP3    H214134   4.984   3.106   3.804
 4710TIP3   OH214135   1.696   0.992   1.134
 4710TIP3    H114136   1.632   0.923   1.150
 4710TIP3    H214137   1.662   1.039   1.059
 4711TIP3   OH214138   2.574   5.112   3.895
 4711TIP3    H114139   2.517   5.060   3.839
 4711TIP3    H214140   2.569   5.070   3.981
 4712TIP3   OH214141   5.565   5.588   3.953
 4712TIP3    H114142   5.502   5.517   3.951
 4712TIP3    H214143   5.551   5.636   3.872
 4713TIP3   OH214144   4.642   2.366   3.076
 4713TIP3    H114145   4.573   2.419   3.116
 4713TIP3    H214146   4.665   2.415   2.996
 4714TIP3   OH214147   5.469   4.747   1.151
 4714TIP3    H114148   5.406   4.754   1.080
 4714TIP3    H214149   5.554   4.757   1.108
 4715TIP3   OH214150   5.706   3.877   4.289
 4715TIP3    H114151   5.764   3.839   4.223
 4715TIP3    H214152   5.766   3.920   4.351
 4716TIP3   OH214153   4.279   2.066   1.177
 4716TIP3    H114154   4.322   2.018   1.107
 4716TIP3    H214155   4.305   2.020   1.257
 4717TIP3   OH214156   1.820   0.500   4.544
 4717TIP3    H114157   1.757   0.455   4.600
 4717TIP3    H214158   1.794   0.476   4.455
 4718TIP3   OH214159   1.000   1.299   1.995
 4718TIP3    H114160   1.037   1.314   1.908
 4718TIP3    H214161   1.076   1.293   2.053
 4719TIP3   OH214162   1.014   3.783   2.139
 4719TIP3    H114163   1.022   3.696   2.177
 4719TIP3    H214164   1.000   3.766   2.045
 4720TIP3   OH214165   2.614   1.617   4.209
 4720TIP3    H114166   2.584   1.527   4.205
 4720TIP3    H214167   2.612   1.647   4.118
 4721TIP3   OH214168   3.775   2.138   2.370
 4721TIP3    H114169   3.785   2.124   2.276
 4721TIP3    H214170   3.769   2.233   2.380
 4722TIP3   OH214171   0.768   1.252   0.859
 4722TIP3    H114172   0.770   1.284   0.769
 4722TIP3    H214173   0.763   1.331   0.913
 4723TIP3   OH214174   3.658   5.926   3.188
 4723TIP3    H114175   3.610   5.893   3.264
 4723TIP3    H214176   3.734   5.972   3.226
 4724TIP3   OH214177   0.238   1.462   1.561
 4724TIP3    H114178   0.301   1.422   1.621
 4724TIP3    H214179   0.165   1.401   1.560
 4725TIP3   OH214180   4.141   4.854   0.072
 4725TIP3    H114181   4.207   4.790   0.046
 4725TIP3    H214182   4.115   4.898  -0.009
 4726TIP3   OH214183   1.733   4.403   1.937
 4726TIP3    H114184   1.751   4.490   1.901
 4726TIP3    H214185   1.661   4.417   1.999
 4727TIP3   OH214186   4.363   5.280   2.696
 4727TIP3    H114187   4.279   5.235   2.692
 4727TIP3    H214188   4.428   5.210   2.698
 4728TIP3   OH214189   4.392   4.490   4.146
 4728TIP3    H114190   4.355   4.418   4.196
 4728TIP3    H214191   4.395   4.458   4.056
 4729TIP3   OH214192   0.474   2.372   2.192
 4729TIP3    H114193   0.396   2.348   2.141
 4729TIP3    H214194   0.520   2.289   2.206
 4730TIP3   OH214195   0.206   0.455   3.455
 4730TIP3    H114196   0.284   0.480   3.505
 4730TIP3    H214197   0.155   0.536   3.449
 4731TIP3   OH214198   1.299   3.793   0.349
 4731TIP3    H114199   1.271   3.765   0.436
 4731TIP3    H214200   1.288   3.716   0.294
 4732TIP3   OH214201   3.117   1.818   1.763
 4732TIP3    H114202   3.097   1.849   1.851
 4732TIP3    H214203   3.203   1.778   1.770
 4733TIP3   OH214204   0.373   3.840   0.119
 4733TIP3    H114205   0.305   3.875   0.062
 4733TIP3    H214206   0.372   3.896   0.196
 4734TIP3   OH214207   1.719   1.322   0.062
 4734TIP3    H114208   1.733   1.228   0.075
 4734TIP3    H214209   1.641   1.342   0.114
 4735TIP3   OH214210   4.188   4.990   2.830
 4735TIP3    H114211   4.093   5.001   2.824
 4735TIP3    H214212   4.200   4.904   2.871
 4736TIP3   OH214213   5.029   5.114   5.056
 4736TIP3    H114214   4.961   5.181   5.062
 4736TIP3    H214215   5.097   5.154   5.002
 4737TIP3   OH214216   3.003   2.664   0.971
 4737TIP3    H114217   3.002   2.759   0.958
 4737TIP3    H214218   2.946   2.630   0.903
 4738TIP3   OH214219   5.850   3.524   0.684
 4738TIP3    H114220   5.885   3.585   0.619
 4738TIP3    H214221   5.886   3.555   0.767
 4739TIP3   OH214222   4.617   5.850   4.141
 4739TIP3    H114223   4.640   5.865   4.050
 4739TIP3    H214224   4.552   5.917   4.161
 4740TIP3   OH214225   4.210   1.353   4.625
 4740TIP3    H114226   4.136   1.297   4.648
 4740TIP3    H214227   4.260   1.360   4.706
 4741TIP3   OH214228   5.843   4.800   3.237
 4741TIP3    H114229   5.758   4.757   3.232
 4741TIP3    H214230   5.888   4.755   3.308
 4742TIP3   OH214231   1.964   4.086   2.624
 4742TIP3    H114232   1.953   4.181   2.619
 4742TIP3    H214233   1.889   4.050   2.576
 4743TIP3   OH214234   1.411   3.473   0.347
 4743TIP3    H114235   1.368   3.401   0.393
 4743TIP3    H214236   1.340   3.516   0.299
 4744TIP3   OH214237   1.016   5.324   2.566
 4744TIP3    H114238   1.040   5.405   2.611
 4744TIP3    H214239   1.099   5.282   2.545
 4745TIP3   OH214240   3.327   1.580   1.023
 4745TIP3    H114241   3.382   1.546   1.094
 4745TIP3    H214242   3.388   1.622   0.963
 4746TIP3   OH214243   0.503   2.742   4.293
 4746TIP3    H114244   0.510   2.832   4.260
 4746TIP3    H214245   0.437   2.747   4.362
 4747TIP3   OH214246   0.221   3.893   1.620
 4747TIP3    H114247   0.201   3.951   1.693
 4747TIP3    H214248   0.192   3.941   1.542
 4748TIP3   OH214249   3.496   1.231   5.228
 4748TIP3    H114250   3.556   1.159   5.247
 4748TIP3    H214251   3.552   1.307   5.212
 4749TIP3   OH214252   3.546   5.050   2.988
 4749TIP3    H114253   3.597   5.002   2.922
 4749TIP3    H214254   3.463   5.003   2.993
 4750TIP3   OH214255   0.659   5.882   2.417
 4750TIP3    H114256   0.618   5.873   2.331
 4750TIP3    H214257   0.648   5.797   2.459
 4751TIP3   OH214258   4.697   1.996   3.386
 4751TIP3    H114259   4.640   1.937   3.336
 4751TIP3    H214260   4.743   2.046   3.319
 4752TIP3   OH214261   4.220   5.529   2.237
 4752TIP3    H114262   4.238   5.456   2.178
 4752TIP3    H214263   4.289   5.526   2.303
 4753TIP3   OH214264   3.266   5.682   0.691
 4753TIP3    H114265   3.172   5.690   0.677
 4753TIP3    H214266   3.303   5.670   0.603
 4754TIP3   OH214267   3.618   1.219   4.911
 4754TIP3    H114268   3.567   1.260   4.841
 4754TIP3    H214269   3.707   1.251   4.898
 4755TIP3   OH214270   5.404   3.954   3.279
 4755TIP3    H114271   5.486   3.922   3.316
 4755TIP3    H214272   5.343   3.956   3.353
 4756TIP3   OH214273   2.705   4.013   3.297
 4756TIP3    H114274   2.782   3.956   3.292
 4756TIP3    H214275   2.727   4.088   3.240
 4757TIP3   OH214276   1.231   5.830   0.399
 4757TIP3    H114277   1.180   5.751   0.381
 4757TIP3    H214278   1.198   5.894   0.337
 4758TIP3   OH214279   0.134   0.283   3.231
 4758TIP3    H114280   0.165   0.210   3.284
 4758TIP3    H214281   0.143   0.359   3.288
 4759TIP3   OH214282   0.194   1.893   4.249
 4759TIP3    H114283   0.219   1.964   4.307
 4759TIP3    H214284   0.158   1.826   4.306
 4760TIP3   OH214285   0.387   4.575   1.310
 4760TIP3    H114286   0.335   4.652   1.336
 4760TIP3    H214287   0.332   4.500   1.333
 4761TIP3   OH214288   3.773   5.946   4.533
 4761TIP3    H114289   3.833   5.887   4.579
 4761TIP3    H214290   3.759   6.018   4.594
 4762TIP3   OH214291   1.360   5.634   1.512
 4762TIP3    H114292   1.430   5.691   1.542
 4762TIP3    H214293   1.400   5.580   1.444
 4763TIP3   OH214294   0.209   5.919   2.313
 4763TIP3    H114295   0.220   5.827   2.335
 4763TIP3    H214296   0.114   5.929   2.300
 4764TIP3   OH214297   2.862   0.826   1.873
 4764TIP3    H114298   2.787   0.805   1.928
 4764TIP3    H214299   2.824   0.868   1.796
 4765TIP3   OH214300   2.963   0.068   0.243
 4765TIP3    H114301   2.951   0.110   0.158
 4765TIP3    H214302   2.917   0.124   0.305
 4766TIP3   OH214303   5.281   5.609   1.647
 4766TIP3    H114304   5.224   5.681   1.674
 4766TIP3    H214305   5.361   5.651   1.615
 4767TIP3   OH214306   4.104   5.143   3.442
 4767TIP3    H114307   4.169   5.198   3.396
 4767TIP3    H214308   4.020   5.184   3.422
 4768TIP3   OH214309   2.498   2.082   0.833
 4768TIP3    H114310   2.529   2.056   0.746
 4768TIP3    H214311   2.409   2.113   0.819
 4769TIP3   OH214312   1.560   1.253   2.613
 4769TIP3    H114313   1.650   1.224   2.597
 4769TIP3    H214314   1.510   1.217   2.540
 4770TIP3   OH214315   5.704   0.398   0.710
 4770TIP3    H114316   5.665   0.313   0.689
 4770TIP3    H214317   5.727   0.435   0.624
 4771TIP3   OH214318   4.337   2.671  -0.043
 4771TIP3    H114319   4.401   2.611  -0.080
 4771TIP3    H214320   4.307   2.629   0.037
 4772TIP3   OH214321   2.283   1.563   1.783
 4772TIP3    H114322   2.376   1.585   1.794
 4772TIP3    H214323   2.237   1.620   1.844
 4773TIP3   OH214324   4.286   0.913   3.171
 4773TIP3    H114325   4.359   0.851   3.165
 4773TIP3    H214326   4.244   0.892   3.255
 4774TIP3   OH214327   4.191   5.834   3.529
 4774TIP3    H114328   4.116   5.889   3.508
 4774TIP3    H214329   4.254   5.850   3.459
 4775TIP3   OH214330   6.231   5.279   2.489
 4775TIP3    H114331   6.310   5.229   2.511
 4775TIP3    H214332   6.182   5.285   2.571
 4776TIP3   OH214333   1.241   4.569   4.891
 4776TIP3    H114334   1.150   4.586   4.869
 4776TIP3    H214335   1.283   4.552   4.806
 4777TIP3   OH214336   0.805   5.319   0.841
 4777TIP3    H114337   0.825   5.289   0.752
 4777TIP3    H214338   0.714   5.349   0.836
 4778TIP3   OH214339   3.647   1.759   1.013
 4778TIP3    H114340   3.610   1.683   1.058
 4778TIP3    H214341   3.735   1.768   1.049
 4779TIP3   OH214342   2.790   4.337   3.600
 4779TIP3    H114343   2.843   4.262   3.626
 4779TIP3    H214344   2.705   4.299   3.576
 4780TIP3   OH214345   0.870   2.383   0.589
 4780TIP3    H114346   0.824   2.416   0.512
 4780TIP3    H214347   0.866   2.287   0.581
 4781TIP3   OH214348   0.102   3.902   4.255
 4781TIP3    H114349   0.056   3.827   4.293
 4781TIP3    H214350   0.194   3.876   4.255
 4782TIP3   OH214351   1.590   0.594   4.914
 4782TIP3    H114352   1.640   0.659   4.964
 4782TIP3    H214353   1.508   0.639   4.892
 4783TIP3   OH214354   4.518   0.136   0.147
 4783TIP3    H114355   4.534   0.068   0.212
 4783TIP3    H214356   4.573   0.111   0.072
 4784TIP3   OH214357   0.699   4.878   4.542
 4784TIP3    H114358   0.766   4.882   4.473
 4784TIP3    H214359   0.718   4.797   4.589
 4785TIP3   OH214360   5.902   0.435   4.332
 4785TIP3    H114361   5.839   0.371   4.367
 4785TIP3    H214362   5.851   0.514   4.317
 4786TIP3   OH214363   0.177   1.562   1.836
 4786TIP3    H114364   0.084   1.578   1.850
 4786TIP3    H214365   0.189   1.573   1.741
 4787TIP3   OH214366   5.807   5.519   1.623
 4787TIP3    H114367   5.721   5.513   1.665
 4787TIP3    H214368   5.790   5.562   1.540
 4788TIP3   OH214369   5.921   2.311   1.692
 4788TIP3    H114370   5.858   2.280   1.628
 4788TIP3    H214371   5.869   2.360   1.756
 4789TIP3   OH214372   1.034   0.776   4.606
 4789TIP3    H114373   1.002   0.725   4.680
 4789TIP3    H214374   0.957   0.791   4.552
 4790TIP3   OH214375   4.105   1.637   2.439
 4790TIP3    H114376   4.094   1.644   2.534
 4790TIP3    H214377   4.077   1.548   2.418
 4791TIP3   OH214378   0.838   3.151   0.707
 4791TIP3    H114379   0.782   3.075   0.722
 4791TIP3    H214380   0.863   3.144   0.615
 4792TIP3   OH214381   1.083   5.572   0.446
 4792TIP3    H114382   1.079   5.545   0.537
 4792TIP3    H214383   1.169   5.544   0.416
 4793TIP3   OH214384   0.054   2.162   4.423
 4793TIP3    H114385   0.118   2.117   4.477
 4793TIP3    H214386   0.080   2.143   4.333
 4794TIP3   OH214387   4.987   5.281   2.126
 4794TIP3    H114388   4.971   5.322   2.210
 4794TIP3    H214389   4.985   5.187   2.144
 4795TIP3   OH214390   3.923   0.624   2.829
 4795TIP3    H114391   3.879   0.585   2.905
 4795TIP3    H214392   3.888   0.577   2.754
 4796TIP3   OH214393   2.512   1.748   3.912
 4796TIP3    H114394   2.479   1.829   3.950
 4796TIP3    H214395   2.435   1.707   3.872
 4797TIP3   OH214396   1.117   4.904   3.827
 4797TIP3    H114397   1.067   4.857   3.761
 4797TIP3    H214398   1.090   4.996   3.817
 4798TIP3   OH214399   4.928   2.596   1.100
 4798TIP3    H114400   4.900   2.592   1.191
 4798TIP3    H214401   5.014   2.640   1.103
 4799TIP3   OH214402   0.129   0.711   0.547
 4799TIP3    H114403   0.161   0.673   0.465
 4799TIP3    H214404   0.178   0.793   0.556
 4800TIP3   OH214405   5.354   3.280   3.651
 4800TIP3    H114406   5.445   3.289   3.679
 4800TIP3    H214407   5.315   3.366   3.666
 4801TIP3   OH214408   4.793   5.510   3.688
 4801TIP3    H114409   4.725   5.448   3.714
 4801TIP3    H214410   4.799   5.571   3.761
 4802TIP3   OH214411   6.359   1.147   2.310
 4802TIP3    H114412   6.431   1.125   2.368
 4802TIP3    H214413   6.338   1.066   2.264
 4803TIP3   OH214414   2.607   5.665   2.560
 4803TIP3    H114415   2.679   5.706   2.513
 4803TIP3    H214416   2.577   5.596   2.502
 4804TIP3   OH214417   1.447   1.772   3.690
 4804TIP3    H114418   1.425   1.789   3.598
 4804TIP3    H214419   1.362   1.768   3.734
 4805TIP3   OH214420   5.582   5.511   2.123
 4805TIP3    H114421   5.622   5.598   2.128
 4805TIP3    H214422   5.614   5.465   2.200
 4806TIP3   OH214423   6.112   2.090   4.345
 4806TIP3    H114424   6.140   2.096   4.436
 4806TIP3    H214425   6.017   2.078   4.349
 4807TIP3   OH214426   4.301   2.230   1.434
 4807TIP3    H114427   4.353   2.288   1.377
 4807TIP3    H214428   4.343   2.145   1.426
 4808TIP3   OH214429   3.176   3.770   2.944
 4808TIP3    H114430   3.193   3.802   2.855
 4808TIP3    H214431   3.262   3.774   2.987
 4809TIP3   OH214432   2.413   1.429   3.583
 4809TIP3    H114433   2.369   1.502   3.625
 4809TIP3    H214434   2.495   1.466   3.550
 4810TIP3   OH214435   0.045   4.753   0.077
 4810TIP3    H114436   0.116   4.731   0.017
 4810TIP3    H214437   0.077   4.725   0.163
 4811TIP3   OH214438   5.484   4.703   0.816
 4811TIP3    H114439   5.513   4.682   0.727
 4811TIP3    H214440   5.564   4.698   0.868
 4812TIP3   OH214441   2.206   4.376   4.553
 4812TIP3    H114442   2.189   4.319   4.628
 4812TIP3    H214443   2.194   4.465   4.588
 4813TIP3   OH214444   3.367   4.282   3.952
 4813TIP3    H114445   3.314   4.332   4.015
 4813TIP3    H214446   3.441   4.340   3.932
 4814TIP3   OH214447   4.427   2.991   4.719
 4814TIP3    H114448   4.410   2.908   4.674
 4814TIP3    H214449   4.461   2.966   4.805
 4815TIP3   OH214450   2.849   4.483   2.055
 4815TIP3    H114451   2.809   4.569   2.065
 4815TIP3    H214452   2.776   4.426   2.028
 4816TIP3   OH214453   1.779   1.559   2.905
 4816TIP3    H114454   1.702   1.528   2.951
 4816TIP3    H214455   1.772   1.654   2.908
 4817TIP3   OH214456   3.779   5.089   2.537
 4817TIP3    H114457   3.685   5.099   2.549
 4817TIP3    H214458   3.788   5.051   2.449
 4818TIP3   OH214459   5.279   3.180   4.853
 4818TIP3    H114460   5.216   3.243   4.889
 4818TIP3    H214461   5.226   3.120   4.802
 4819TIP3   OH214462   5.188   4.098   1.330
 4819TIP3    H114463   5.170   4.108   1.423
 4819TIP3    H214464   5.116   4.142   1.286
 4820TIP3   OH214465   1.989   3.271   1.662
 4820TIP3    H114466   1.894   3.258   1.671
 4820TIP3    H214467   1.997   3.359   1.626
 4821TIP3   OH214468   1.450   4.891   2.953
 4821TIP3    H114469   1.504   4.966   2.977
 4821TIP3    H214470   1.498   4.815   2.984
 4822TIP3   OH214471   3.330   2.602   0.564
 4822TIP3    H114472   3.315   2.690   0.529
 4822TIP3    H214473   3.253   2.552   0.537
 4823TIP3   OH214474   5.515   2.595   1.079
 4823TIP3    H114475   5.423   2.609   1.102
 4823TIP3    H214476   5.560   2.669   1.120
 4824TIP3   OH214477   6.115   0.035   3.802
 4824TIP3    H114478   6.150   0.120   3.829
 4824TIP3    H214479   6.039   0.056   3.749
 4825TIP3   OH214480   1.483   4.145   1.261
 4825TIP3    H114481   1.570   4.180   1.242
 4825TIP3    H214482   1.424   4.196   1.205
 4826TIP3   OH214483   5.111   0.310   1.410
 4826TIP3    H114484   5.095   0.360   1.330
 4826TIP3    H214485   5.190   0.260   1.392
 4827TIP3   OH214486   2.013   0.838   5.074
 4827TIP3    H114487   2.014   0.776   5.001
 4827TIP3    H214488   2.045   0.920   5.036
 4828TIP3   OH214489   3.828   5.914   3.409
 4828TIP3    H114490   3.877   5.963   3.474
 4828TIP3    H214491   3.762   5.866   3.459
 4829TIP3   OH214492   5.261   5.585   3.144
 4829TIP3    H114493   5.175   5.546   3.129
 4829TIP3    H214494   5.323   5.522   3.108
 4830TIP3   OH214495   3.995   5.170   0.700
 4830TIP3    H114496   3.974   5.099   0.761
 4830TIP3    H214497   4.060   5.223   0.746
 4831TIP3   OH214498   6.082   0.323   1.036
 4831TIP3    H114499   6.056   0.357   1.121
 4831TIP3    H214500   6.005   0.275   1.004
 4832TIP3   OH214501   2.597   3.237   0.638
 4832TIP3    H114502   2.685   3.198   0.644
 4832TIP3    H214503   2.546   3.173   0.588
 4833TIP3   OH214504   2.610   2.846   3.171
 4833TIP3    H114505   2.567   2.782   3.114
 4833TIP3    H214506   2.597   2.810   3.259
 4834TIP3   OH214507   1.826   1.205   0.374
 4834TIP3    H114508   1.898   1.186   0.433
 4834TIP3    H214509   1.848   1.160   0.292
 4835TIP3   OH214510   3.504   2.047   1.663
 4835TIP3    H114511   3.515   1.992   1.585
 4835TIP3    H214512   3.490   1.984   1.735
 4836TIP3   OH214513   5.843   4.069   0.419
 4836TIP3    H114514   5.764   4.017   0.411
 4836TIP3    H214515   5.900   4.017   0.476
 4837TIP3   OH214516   3.928   5.275   4.296
 4837TIP3    H114517   3.908   5.365   4.321
 4837TIP3    H214518   3.943   5.229   4.379
 4838TIP3   OH214519   3.610   5.106   1.529
 4838TIP3    H114520   3.671   5.054   1.476
 4838TIP3    H214521   3.664   5.140   1.600
 4839TIP3   OH214522   0.845   2.926   4.028
 4839TIP3    H114523   0.918   2.946   3.969
 4839TIP3    H214524   0.771   2.976   3.993
 4840TIP3   OH214525   2.435   5.145   2.565
 4840TIP3    H114526   2.494   5.070   2.568
 4840TIP3    H214527   2.407   5.158   2.655
 4841TIP3   OH214528   6.273   3.782   1.421
 4841TIP3    H114529   6.215   3.730   1.365
 4841TIP3    H214530   6.358   3.778   1.377
 4842TIP3   OH214531   2.686   5.913   0.914
 4842TIP3    H114532   2.622   5.843   0.930
 4842TIP3    H214533   2.770   5.869   0.916
 4843TIP3   OH214534   5.580   2.235   2.275
 4843TIP3    H114535   5.587   2.313   2.330
 4843TIP3    H214536   5.637   2.252   2.201
 4844TIP3   OH214537   6.114   0.533   2.110
 4844TIP3    H114538   6.152   0.466   2.167
 4844TIP3    H214539   6.098   0.488   2.027
 4845TIP3   OH214540   0.894   5.244   2.045
 4845TIP3    H114541   0.918   5.336   2.036
 4845TIP3    H214542   0.881   5.232   2.139
 4846TIP3   OH214543   3.329   3.589   0.474
 4846TIP3    H114544   3.405   3.554   0.427
 4846TIP3    H214545   3.327   3.539   0.555
 4847TIP3   OH214546   5.544   5.154   1.103
 4847TIP3    H114547   5.458   5.147   1.144
 4847TIP3    H214548   5.549   5.080   1.043
 4848TIP3   OH214549   5.707   3.686   1.149
 4848TIP3    H114550   5.802   3.693   1.162
 4848TIP3    H214551   5.694   3.710   1.057
 4849TIP3   OH214552   0.353   5.215   0.572
 4849TIP3    H114553   0.340   5.151   0.503
 4849TIP3    H214554   0.278   5.205   0.630
 4850TIP3   OH214555   0.339   5.351   3.502
 4850TIP3    H114556   0.426   5.361   3.541
 4850TIP3    H214557   0.286   5.417   3.547
 4851TIP3   OH214558   2.665   4.132   2.375
 4851TIP3    H114559   2.712   4.140   2.292
 4851TIP3    H214560   2.645   4.222   2.401
 4852TIP3   OH214561   4.723   4.098   0.980
 4852TIP3    H114562   4.664   4.105   1.055
 4852TIP3    H214563   4.754   4.188   0.966
 4853TIP3   OH214564   5.080   1.037   3.802
 4853TIP3    H114565   5.073   1.131   3.791
 4853TIP3    H214566   5.170   1.016   3.775
 4854TIP3   OH214567   3.456   4.302   2.841
 4854TIP3    H114568   3.471   4.354   2.762
 4854TIP3    H214569   3.420   4.219   2.809
 4855TIP3   OH214570   6.356   3.194   3.161
 4855TIP3    H114571   6.416   3.229   3.227
 4855TIP3    H214572   6.271   3.231   3.183
 4856TIP3   OH214573   3.210   1.384   1.973
 4856TIP3    H114574   3.297   1.409   1.941
 4856TIP3    H214575   3.199   1.433   2.055
 4857TIP3   OH214576   3.820   4.997   5.011
 4857TIP3    H114577   3.868   4.981   5.092
 4857TIP3    H214578   3.736   5.033   5.040
 4858TIP3   OH214579   5.501   2.449   4.753
 4858TIP3    H114580   5.513   2.544   4.746
 4858TIP3    H214581   5.587   2.415   4.777
 4859TIP3   OH214582   1.946   4.014   2.890
 4859TIP3    H114583   2.010   4.079   2.919
 4859TIP3    H214584   1.950   4.018   2.795
 4860TIP3   OH214585   0.526  -0.029   3.126
 4860TIP3    H114586   0.531  -0.084   3.048
 4860TIP3    H214587   0.471   0.045   3.100
 4861TIP3   OH214588   3.278   5.411   4.510
 4861TIP3    H114589   3.211   5.351   4.542
 4861TIP3    H214590   3.297   5.468   4.585
 4862TIP3   OH214591   0.461   1.058   2.786
 4862TIP3    H114592   0.493   0.999   2.854
 4862TIP3    H214593   0.470   1.008   2.705
 4863TIP3   OH214594   4.221   4.565   1.061
 4863TIP3    H114595   4.183   4.524   1.139
 4863TIP3    H214596   4.168   4.532   0.989
 4864TIP3   OH214597   0.394   2.505   0.533
 4864TIP3    H114598   0.336   2.519   0.608
 4864TIP3    H214599   0.419   2.413   0.539
 4865TIP3   OH214600   5.956   2.829   2.475
 4865TIP3    H114601   5.865   2.856   2.490
 4865TIP3    H214602   5.977   2.864   2.388
 4866TIP3   OH214603   5.343   4.931   2.086
 4866TIP3    H114604   5.277   4.968   2.026
 4866TIP3    H214605   5.294   4.908   2.165
 4867TIP3   OH214606   0.447   0.922  -0.005
 4867TIP3    H114607   0.491   0.887  -0.082
 4867TIP3    H214608   0.433   0.845   0.051
 4868TIP3   OH214609   5.957   1.045   0.216
 4868TIP3    H114610   5.938   1.132   0.181
 4868TIP3    H214611   6.045   1.025   0.184
 4869TIP3   OH214612   0.007   1.672   3.330
 4869TIP3    H114613   0.064   1.731   3.281
 4869TIP3    H214614  -0.081   1.691   3.297
 4870TIP3   OH214615   2.803   0.672   3.553
 4870TIP3    H114616   2.868   0.690   3.486
 4870TIP3    H214617   2.820   0.736   3.622
 4871TIP3   OH214618   1.792   6.025   0.438
 4871TIP3    H114619   1.723   6.015   0.503
 4871TIP3    H214620   1.800   5.939   0.397
 4872TIP3   OH214621   1.393   3.594   4.478
 4872TIP3    H114622   1.369   3.506   4.449
 4872TIP3    H214623   1.319   3.622   4.532
 4873TIP3   OH214624   2.278   5.324   2.257
 4873TIP3    H114625   2.286   5.395   2.321
 4873TIP3    H214626   2.362   5.277   2.263
 4874TIP3   OH214627   1.651   3.791   1.337
 4874TIP3    H114628   1.627   3.875   1.375
 4874TIP3    H214629   1.584   3.730   1.370
 4875TIP3   OH214630   4.791   4.203   3.204
 4875TIP3    H114631   4.843   4.164   3.274
 4875TIP3    H214632   4.839   4.281   3.179
 4876TIP3   OH214633   2.272   1.320   1.643
 4876TIP3    H114634   2.273   1.389   1.710
 4876TIP3    H214635   2.264   1.366   1.560
 4877TIP3   OH214636   2.556   4.542   3.327
 4877TIP3    H114637   2.628   4.589   3.367
 4877TIP3    H214638   2.514   4.496   3.400
 4878TIP3   OH214639   3.886   3.877   3.916
 4878TIP3    H114640   3.897   3.895   3.823
 4878TIP3    H214641   3.974   3.856   3.947
 4879TIP3   OH214642   5.632   0.711   0.333
 4879TIP3    H114643   5.652   0.790   0.283
 4879TIP3    H214644   5.562   0.737   0.393
 4880TIP3   OH214645   4.679   1.010   3.465
 4880TIP3    H114646   4.721   1.004   3.551
 4880TIP3    H214647   4.661   0.919   3.441
 4881TIP3   OH214648   5.037   5.834   2.600
 4881TIP3    H114649   5.030   5.927   2.618
 4881TIP3    H214650   4.971   5.818   2.531
 4882TIP3   OH214651   4.159   0.688   2.025
 4882TIP3    H114652   4.114   0.616   1.982
 4882TIP3    H214653   4.240   0.650   2.058
 4883TIP3   OH214654   1.683   3.440   3.478
 4883TIP3    H114655   1.695   3.411   3.568
 4883TIP3    H214656   1.653   3.362   3.431
 4884TIP3   OH214657   2.472   0.585   3.990
 4884TIP3    H114658   2.454   0.668   4.035
 4884TIP3    H214659   2.506   0.527   4.058
 4885TIP3   OH214660   3.808   4.364   0.176
 4885TIP3    H114661   3.753   4.288   0.154
 4885TIP3    H214662   3.810   4.365   0.271
 4886TIP3   OH214663   4.329   3.465   4.646
 4886TIP3    H114664   4.285   3.408   4.710
 4886TIP3    H214665   4.266   3.472   4.574
 4887TIP3   OH214666   5.483   2.697   0.406
 4887TIP3    H114667   5.561   2.737   0.367
 4887TIP3    H214668   5.500   2.603   0.403
 4888TIP3   OH214669   5.036   1.944   2.276
 4888TIP3    H114670   4.967   1.914   2.217
 4888TIP3    H214671   4.990   1.991   2.346
 4889TIP3   OH214672   1.466   3.170   0.178
 4889TIP3    H114673   1.400   3.180   0.246
 4889TIP3    H214674   1.505   3.084   0.195
 4890TIP3   OH214675   4.012   0.416   2.616
 4890TIP3    H114676   3.920   0.415   2.639
 4890TIP3    H214677   4.034   0.508   2.606
 4891TIP3   OH214678   2.363   0.250   3.419
 4891TIP3    H114679   2.375   0.155   3.410
 4891TIP3    H214680   2.275   0.260   3.456
 4892TIP3   OH214681   2.218   3.072   0.632
 4892TIP3    H114682   2.156   3.137   0.666
 4892TIP3    H214683   2.296   3.084   0.686
 4893TIP3   OH214684   0.675   5.253   1.888
 4893TIP3    H114685   0.751   5.262   1.947
 4893TIP3    H214686   0.709   5.277   1.802
 4894TIP3   OH214687   1.452   4.665   4.665
 4894TIP3    H114688   1.487   4.702   4.584
 4894TIP3    H214689   1.488   4.721   4.734
 4895TIP3   OH214690   4.256   0.506   5.153
 4895TIP3    H114691   4.274   0.412   5.152
 4895TIP3    H214692   4.339   0.547   5.129
 4896TIP3   OH214693   4.289   2.167   2.740
 4896TIP3    H114694   4.348   2.124   2.679
 4896TIP3    H214695   4.330   2.155   2.826
 4897TIP3   OH214696   5.864   2.144   2.025
 4897TIP3    H114697   5.874   2.218   2.086
 4897TIP3    H214698   5.920   2.076   2.062
 4898TIP3   OH214699   4.444   5.528   3.592
 4898TIP3    H114700   4.404   5.606   3.631
 4898TIP3    H214701   4.503   5.495   3.659
 4899TIP3   OH214702   2.808   0.387   0.005
 4899TIP3    H114703   2.719   0.395  -0.027
 4899TIP3    H214704   2.839   0.303  -0.027
 4900TIP3   OH214705   3.726   5.653   3.025
 4900TIP3    H114706   3.712   5.695   3.110
 4900TIP3    H214707   3.791   5.709   2.982
 4901TIP3   OH214708   3.585   0.568   2.058
 4901TIP3    H114709   3.678   0.585   2.073
 4901TIP3    H214710   3.540   0.627   2.119
 4902TIP3   OH214711   0.402   3.170   0.996
 4902TIP3    H114712   0.405   3.109   1.069
 4902TIP3    H214713   0.337   3.235   1.022
 4903TIP3   OH214714   3.816   4.492   0.768
 4903TIP3    H114715   3.832   4.441   0.689
 4903TIP3    H214716   3.816   4.583   0.739
 4904TIP3   OH214717   5.998   2.298   0.875
 4904TIP3    H114718   6.009   2.341   0.960
 4904TIP3    H214719   6.085   2.296   0.837
 4905TIP3   OH214720   5.975   2.965   4.639
 4905TIP3    H114721   5.880   2.978   4.638
 4905TIP3    H214722   5.999   2.958   4.547
 4906TIP3   OH214723   0.911   1.682   4.827
 4906TIP3    H114724   0.922   1.697   4.920
 4906TIP3    H214725   0.954   1.756   4.785
 4907TIP3   OH214726   5.300   2.090   0.518
 4907TIP3    H114727   5.384   2.118   0.554
 4907TIP3    H214728   5.286   2.003   0.556
 4908TIP3   OH214729   4.765   4.070   1.438
 4908TIP3    H114730   4.852   4.038   1.461
 4908TIP3    H214731   4.712   4.053   1.516
 4909TIP3   OH214732   2.285   4.770   2.039
 4909TIP3    H114733   2.239   4.846   2.075
 4909TIP3    H214734   2.267   4.775   1.945
 4910TIP3   OH214735   0.926   5.166   2.315
 4910TIP3    H114736   0.874   5.091   2.346
 4910TIP3    H214737   0.967   5.201   2.394
 4911TIP3   OH214738   3.959   0.350   0.492
 4911TIP3    H114739   4.038   0.296   0.486
 4911TIP3    H214740   3.982   0.420   0.554
 4912TIP3   OH214741   1.611   4.920   1.732
 4912TIP3    H114742   1.649   4.837   1.762
 4912TIP3    H214743   1.560   4.897   1.655
 4913TIP3   OH214744   0.023   5.772   4.591
 4913TIP3    H114745   0.077   5.728   4.657
 4913TIP3    H214746   0.043   5.865   4.600
 4914TIP3   OH214747   5.062   0.754   1.365
 4914TIP3    H114748   5.054   0.823   1.299
 4914TIP3    H214749   5.148   0.715   1.348
 4915TIP3   OH214750   6.253   0.893   3.327
 4915TIP3    H114751   6.198   0.927   3.398
 4915TIP3    H214752   6.330   0.949   3.326
 4916TIP3   OH214753   5.631   0.256   2.945
 4916TIP3    H114754   5.634   0.314   3.020
 4916TIP3    H214755   5.718   0.216   2.942
 4917TIP3   OH214756   1.956   1.798   2.094
 4917TIP3    H114757   1.976   1.824   2.184
 4917TIP3    H214758   1.905   1.872   2.059
 4918TIP3   OH214759   1.273   2.977   3.465
 4918TIP3    H114760   1.344   2.928   3.507
 4918TIP3    H214761   1.195   2.953   3.515
 4919TIP3   OH214762   5.124   2.562   1.414
 4919TIP3    H114763   5.032   2.538   1.400
 4919TIP3    H214764   5.153   2.596   1.329
 4920TIP3   OH214765   0.780   3.724   0.761
 4920TIP3    H114766   0.752   3.668   0.834
 4920TIP3    H214767   0.862   3.685   0.732
 4921TIP3   OH214768   1.015   3.352   2.308
 4921TIP3    H114769   0.966   3.392   2.236
 4921TIP3    H214770   1.034   3.263   2.279
 4922TIP3   OH214771   4.937   3.202   4.894
 4922TIP3    H114772   4.950   3.133   4.828
 4922TIP3    H214773   4.896   3.274   4.846
 4923TIP3   OH214774   4.586   0.043   4.029
 4923TIP3    H114775   4.647   0.065   3.958
 4923TIP3    H214776   4.636  -0.017   4.085
 4924TIP3   OH214777   2.539   2.657   3.361
 4924TIP3    H114778   2.502   2.577   3.398
 4924TIP3    H214779   2.620   2.629   3.318
 4925TIP3   OH214780   1.469   5.063   1.958
 4925TIP3    H114781   1.500   5.019   1.879
 4925TIP3    H214782   1.378   5.085   1.939
 4926TIP3   OH214783   2.941   3.724   4.707
 4926TIP3    H114784   2.876   3.766   4.651
 4926TIP3    H214785   2.912   3.744   4.797
 4927TIP3   OH214786   5.819   3.593   2.264
 4927TIP3    H114787   5.830   3.674   2.314
 4927TIP3    H214788   5.879   3.531   2.306
 4928TIP3   OH214789   0.747   2.667   2.004
 4928TIP3    H114790   0.767   2.757   2.029
 4928TIP3    H214791   0.652   2.662   2.008
 4929TIP3   OH214792   4.080   1.223   3.693
 4929TIP3    H114793   4.102   1.137   3.658
 4929TIP3    H214794   4.148   1.241   3.759
 4930TIP3   OH214795   4.481   0.666   1.513
 4930TIP3    H114796   4.440   0.661   1.599
 4930TIP3    H214797   4.555   0.606   1.518
 4931TIP3   OH214798   2.425   1.762   2.050
 4931TIP3    H114799   2.342   1.776   2.005
 4931TIP3    H214800   2.431   1.667   2.060
 4932TIP3   OH214801   2.485   5.058   2.822
 4932TIP3    H114802   2.502   4.972   2.861
 4932TIP3    H214803   2.395   5.078   2.846
 4933TIP3   OH214804   5.875   4.453   5.040
 4933TIP3    H114805   5.794   4.485   5.080
 4933TIP3    H214806   5.873   4.358   5.054
 4934TIP3   OH214807   4.394   1.421   2.620
 4934TIP3    H114808   4.428   1.397   2.706
 4934TIP3    H214809   4.351   1.342   2.587
 4935TIP3   OH214810   5.311   5.437   4.559
 4935TIP3    H114811   5.360   5.368   4.604
 4935TIP3    H214812   5.225   5.398   4.543
 4936TIP3   OH214813   5.664   4.161   3.823
 4936TIP3    H114814   5.752   4.198   3.817
 4936TIP3    H214815   5.606   4.236   3.820
 4937TIP3   OH214816   6.054   3.269   4.433
 4937TIP3    H114817   5.980   3.324   4.408
 4937TIP3    H214818   6.080   3.302   4.519
 4938TIP3   OH214819   6.215   5.179   3.519
 4938TIP3    H114820   6.263   5.258   3.543
 4938TIP3    H214821   6.185   5.196   3.429
 4939TIP3   OH214822   3.935   2.372   4.443
 4939TIP3    H114823   3.880   2.436   4.489
 4939TIP3    H214824   3.997   2.425   4.393
 4940TIP3   OH214825   4.616   4.124   2.515
 4940TIP3    H114826   4.532   4.101   2.553
 4940TIP3    H214827   4.670   4.046   2.527
 4941TIP3   OH214828   5.306   3.769   0.570
 4941TIP3    H114829   5.253   3.690   0.578
 4941TIP3    H214830   5.246   3.835   0.536
 4942TIP3   OH214831   1.907   5.645   2.652
 4942TIP3    H114832   1.888   5.575   2.715
 4942TIP3    H214833   1.983   5.690   2.689
 4943TIP3   OH214834   3.486   4.498   1.485
 4943TIP3    H114835   3.397   4.494   1.448
 4943TIP3    H214836   3.544   4.483   1.410
 4944TIP3   OH214837   4.646   4.004   4.365
 4944TIP3    H114838   4.662   4.092   4.331
 4944TIP3    H214839   4.561   3.979   4.327
 4945TIP3   OH214840   3.805   4.631   3.185
 4945TIP3    H114841   3.802   4.705   3.246
 4945TIP3    H214842   3.791   4.555   3.240
 4946TIP3   OH214843   0.541   1.659   1.326
 4946TIP3    H114844   0.527   1.655   1.421
 4946TIP3    H214845   0.464   1.706   1.293
 4947TIP3   OH214846   5.555   1.439   2.607
 4947TIP3    H114847   5.508   1.519   2.581
 4947TIP3    H214848   5.573   1.395   2.524
 4948TIP3   OH214849   1.949   3.356   0.959
 4948TIP3    H114850   2.030   3.406   0.961
 4948TIP3    H214851   1.881   3.420   0.978
 4949TIP3   OH214852   3.199   5.273   1.528
 4949TIP3    H114853   3.252   5.213   1.476
 4949TIP3    H214854   3.258   5.345   1.548
 4950TIP3   OH214855   3.982   0.458   4.361
 4950TIP3    H114856   3.977   0.422   4.450
 4950TIP3    H214857   3.918   0.408   4.311
 4951TIP3   OH214858   1.571   4.204   3.940
 4951TIP3    H114859   1.597   4.192   4.032
 4951TIP3    H214860   1.507   4.135   3.924
 4952TIP3   OH214861   2.397   2.801   0.089
 4952TIP3    H114862   2.413   2.719   0.136
 4952TIP3    H214863   2.313   2.787   0.044
 4953TIP3   OH214864   2.426   1.101   1.671
 4953TIP3    H114865   2.363   1.170   1.651
 4953TIP3    H214866   2.494   1.110   1.604
 4954TIP3   OH214867   1.494   5.160   4.180
 4954TIP3    H114868   1.425   5.107   4.221
 4954TIP3    H214869   1.447   5.217   4.120
 4955TIP3   OH214870   5.879   1.214   3.815
 4955TIP3    H114871   5.879   1.264   3.733
 4955TIP3    H214872   5.958   1.244   3.860
 4956TIP3   OH214873   0.710   3.183   2.941
 4956TIP3    H114874   0.642   3.127   2.904
 4956TIP3    H214875   0.787   3.165   2.886
 4957TIP3   OH214876   0.463   1.040   3.472
 4957TIP3    H114877   0.495   0.951   3.488
 4957TIP3    H214878   0.486   1.057   3.381
 4958TIP3   OH214879   5.269   4.742   4.191
 4958TIP3    H114880   5.229   4.656   4.202
 4958TIP3    H214881   5.320   4.755   4.271
 4959TIP3   OH214882   4.543   0.212   1.980
 4959TIP3    H114883   4.611   0.279   1.989
 4959TIP3    H214884   4.481   0.248   1.917
 4960TIP3   OH214885   1.524   1.419   0.730
 4960TIP3    H114886   1.502   1.501   0.686
 4960TIP3    H214887   1.448   1.363   0.715
 4961TIP3   OH214888   1.927   4.726   4.161
 4961TIP3    H114889   2.003   4.740   4.105
 4961TIP3    H214890   1.951   4.651   4.215
 4962TIP3   OH214891   4.024   4.094   1.882
 4962TIP3    H114892   4.052   4.145   1.958
 4962TIP3    H214893   4.081   4.017   1.882
 4963TIP3   OH214894   4.332   4.987   4.153
 4963TIP3    H114895   4.297   5.009   4.239
 4963TIP3    H214896   4.273   4.919   4.120
 4964TIP3   OH214897   0.152   4.651   0.316
 4964TIP3    H114898   0.179   4.560   0.319
 4964TIP3    H214899   0.200   4.693   0.387
 4965TIP3   OH214900   2.543   5.777   3.796
 4965TIP3    H114901   2.578   5.865   3.796
 4965TIP3    H214902   2.463   5.782   3.848
 4966TIP3   OH214903   4.435   4.764   2.738
 4966TIP3    H114904   4.492   4.687   2.730
 4966TIP3    H214905   4.357   4.731   2.783
 4967TIP3   OH214906   2.129   0.483   4.450
 4967TIP3    H114907   2.089   0.454   4.368
 4967TIP3    H214908   2.144   0.577   4.438
 4968TIP3   OH214909   1.785   0.412   2.626
 4968TIP3    H114910   1.767   0.501   2.659
 4968TIP3    H214911   1.881   0.406   2.626
 4969TIP3   OH214912   4.214   1.676   1.101
 4969TIP3    H114913   4.223   1.692   1.007
 4969TIP3    H214914   4.192   1.583   1.108
 4970TIP3   OH214915   0.006   1.043   1.108
 4970TIP3    H114916   0.098   1.034   1.132
 4970TIP3    H214917  -0.024   1.121   1.155
 4971TIP3   OH214918   1.295   4.587   0.940
 4971TIP3    H114919   1.271   4.550   0.855
 4971TIP3    H214920   1.211   4.607   0.982
 4972TIP3   OH214921   2.025   3.812   2.542
 4972TIP3    H114922   2.019   3.897   2.586
 4972TIP3    H214923   2.025   3.833   2.449
 4973TIP3   OH214924   4.832   3.738   3.954
 4973TIP3    H114925   4.914   3.786   3.963
 4973TIP3    H214926   4.859   3.651   3.923
 4974TIP3   OH214927   0.339   1.603   0.399
 4974TIP3    H114928   0.328   1.525   0.454
 4974TIP3    H214929   0.423   1.591   0.356
 4975TIP3   OH214930   4.135   4.348   3.348
 4975TIP3    H114931   4.059   4.349   3.406
 4975TIP3    H214932   4.142   4.257   3.319
 4976TIP3   OH214933   5.021   1.566   2.558
 4976TIP3    H114934   4.929   1.566   2.529
 4976TIP3    H214935   5.070   1.592   2.480
 4977TIP3   OH214936   2.152   4.782   3.423
 4977TIP3    H114937   2.142   4.716   3.354
 4977TIP3    H214938   2.230   4.755   3.471
 4978TIP3   OH214939   4.850   5.810   1.331
 4978TIP3    H114940   4.837   5.855   1.248
 4978TIP3    H214941   4.832   5.877   1.397
 4979TIP3   OH214942   0.341   2.225   3.561
 4979TIP3    H114943   0.354   2.187   3.474
 4979TIP3    H214944   0.429   2.232   3.598
 4980TIP3   OH214945   1.781   2.670   4.657
 4980TIP3    H114946   1.844   2.598   4.660
 4980TIP3    H214947   1.818   2.737   4.715
 4981TIP3   OH214948   3.753   1.688   3.767
 4981TIP3    H114949   3.718   1.646   3.689
 4981TIP3    H214950   3.685   1.677   3.833
 4982TIP3   OH214951   4.345   2.889   1.558
 4982TIP3    H114952   4.348   2.974   1.602
 4982TIP3    H214953   4.261   2.851   1.584
 4983TIP3   OH214954   1.537   3.903   3.643
 4983TIP3    H114955   1.506   3.927   3.555
 4983TIP3    H214956   1.565   3.812   3.634
 4984TIP3   OH214957   1.767   3.205   4.802
 4984TIP3    H114958   1.715   3.176   4.877
 4984TIP3    H214959   1.703   3.241   4.741
 4985TIP3   OH214960   0.193   4.102   1.813
 4985TIP3    H114961   0.202   4.092   1.907
 4985TIP3    H214962   0.224   4.191   1.795
 4986TIP3   OH214963   5.508   3.817   0.173
 4986TIP3    H114964   5.468   3.888   0.123
 4986TIP3    H214965   5.466   3.738   0.141
 4987TIP3   OH214966   4.527   2.178   0.310
 4987TIP3    H114967   4.492   2.143   0.228
 4987TIP3    H214968   4.568   2.261   0.285
 4988TIP3   OH214969   0.106   1.506   4.813
 4988TIP3    H114970   0.165   1.463   4.751
 4988TIP3    H214971   0.025   1.519   4.763
 4989TIP3   OH214972   5.252   2.932   2.279
 4989TIP3    H114973   5.186   2.922   2.210
 4989TIP3    H214974   5.287   3.020   2.267
 4990TIP3   OH214975   4.056   0.914   1.616
 4990TIP3    H114976   3.970   0.880   1.591
 4990TIP3    H214977   4.037   0.993   1.666
 4991TIP3   OH214978   2.366   1.029   4.724
 4991TIP3    H114979   2.304   1.026   4.652
 4991TIP3    H214980   2.430   1.095   4.698
 4992TIP3   OH214981   1.853   4.067   4.646
 4992TIP3    H114982   1.791   4.100   4.710
 4992TIP3    H214983   1.813   3.985   4.615
 4993TIP3   OH214984   0.195   5.427   0.050
 4993TIP3    H114985   0.166   5.507   0.094
 4993TIP3    H214986   0.263   5.391   0.107
 4994TIP3   OH214987   2.403   1.016   5.173
 4994TIP3    H114988   2.432   0.944   5.229
 4994TIP3    H214989   2.367   0.974   5.096
 4995TIP3   OH214990   3.532   5.233   0.766
 4995TIP3    H114991   3.537   5.264   0.856
 4995TIP3    H214992   3.463   5.286   0.725
 4996TIP3   OH214993   1.069   3.392   3.850
 4996TIP3    H114994   1.139   3.432   3.798
 4996TIP3    H214995   1.054   3.454   3.921
 4997TIP3   OH214996   0.373   2.151   3.306
 4997TIP3    H114997   0.395   2.059   3.294
 4997TIP3    H214998   0.307   2.169   3.239
 4998TIP3   OH214999   3.870   1.990   0.594
 4998TIP3    H115000   3.898   2.081   0.600
 4998TIP3    H215001   3.854   1.964   0.685
 4999TIP3   OH215002   2.233   4.292   1.895
 4999TIP3    H115003   2.205   4.267   1.807
 4999TIP3    H215004   2.322   4.258   1.903
 5000TIP3   OH215005   4.283   0.617   0.970
 5000TIP3    H115006   4.353   0.597   1.032
 5000TIP3    H215007   4.292   0.551   0.902
 5001TIP3   OH215008   1.364   2.322   4.915
 5001TIP3    H115009   1.445   2.281   4.945
 5001TIP3    H215010   1.349   2.285   4.828
 5002TIP3   OH215011   2.797   5.931   3.288
 5002TIP3    H115012   2.863   5.997   3.267
 5002TIP3    H215013   2.730   5.941   3.220
 5003TIP3   OH215014   0.660   0.034   4.001
 5003TIP3    H115015   0.717   0.087   3.945
 5003TIP3    H215016   0.571   0.062   3.978
 5004TIP3   OH215017   0.783   2.419   5.002
 5004TIP3    H115018   0.746   2.503   4.975
 5004TIP3    H215019   0.782   2.366   4.922
 5005TIP3   OH215020   5.385   3.327   4.286
 5005TIP3    H115021   5.454   3.262   4.285
 5005TIP3    H215022   5.354   3.329   4.376
 5006TIP3   OH215023   5.704   5.140   4.415
 5006TIP3    H115024   5.754   5.136   4.334
 5006TIP3    H215025   5.693   5.233   4.433
 5007TIP3   OH215026   5.129   5.046   1.532
 5007TIP3    H115027   5.080   5.086   1.460
 5007TIP3    H215028   5.168   5.119   1.578
 5008TIP3   OH215029   4.961   4.373   4.455
 5008TIP3    H115030   4.961   4.432   4.380
 5008TIP3    H215031   5.002   4.424   4.525
 5009TIP3   OH215032   4.864   5.574   0.587
 5009TIP3    H115033   4.782   5.611   0.555
 5009TIP3    H215034   4.931   5.615   0.533
 5010TIP3   OH215035   0.036   2.818   4.661
 5010TIP3    H115036   0.098   2.749   4.682
 5010TIP3    H215037  -0.030   2.813   4.730
 5011TIP3   OH215038   6.254   4.808   0.426
 5011TIP3    H115039   6.320   4.760   0.477
 5011TIP3    H215040   6.222   4.745   0.362
 5012TIP3   OH215041   2.227   5.589   5.097
 5012TIP3    H115042   2.159   5.608   5.032
 5012TIP3    H215043   2.178   5.577   5.179
 5013TIP3   OH215044   4.995   0.160   2.535
 5013TIP3    H115045   4.927   0.092   2.538
 5013TIP3    H215046   4.951   0.235   2.495
 5014TIP3   OH215047   2.798   3.441   2.731
 5014TIP3    H115048   2.727   3.376   2.732
 5014TIP3    H215049   2.820   3.455   2.823
 5015TIP3   OH215050   5.129   3.148   1.422
 5015TIP3    H115051   5.212   3.103   1.407
 5015TIP3    H215052   5.066   3.078   1.439
 5016TIP3   OH215053   1.500   3.904   4.643
 5016TIP3    H115054   1.413   3.874   4.617
 5016TIP3    H215055   1.499   3.998   4.629
 5017TIP3   OH215056   5.930   2.890   0.099
 5017TIP3    H115057   5.949   2.933   0.015
 5017TIP3    H215058   5.902   2.962   0.156
 5018TIP3   OH215059   1.535   5.569   2.661
 5018TIP3    H115060   1.598   5.497   2.670
 5018TIP3    H215061   1.573   5.641   2.712
 5019TIP3   OH215062   3.528   4.768   0.072
 5019TIP3    H115063   3.501   4.690   0.024
 5019TIP3    H215064   3.607   4.742   0.119
 5020TIP3   OH215065   2.464   2.519   4.693
 5020TIP3    H115066   2.371   2.496   4.695
 5020TIP3    H215067   2.466   2.606   4.654
 5021TIP3   OH215068   6.367   3.422   2.841
 5021TIP3    H115069   6.384   3.489   2.906
 5021TIP3    H215070   6.445   3.367   2.841
 5022TIP3   OH215071   2.243   0.327   4.794
 5022TIP3    H115072   2.163   0.379   4.793
 5022TIP3    H215073   2.282   0.343   4.880
 5023TIP3   OH215074   1.986   5.301   3.116
 5023TIP3    H115075   2.072   5.342   3.125
 5023TIP3    H215076   1.985   5.231   3.181
 5024TIP3   OH215077   4.800   0.652   2.110
 5024TIP3    H115078   4.738   0.675   2.042
 5024TIP3    H215079   4.851   0.732   2.125
 5025TIP3   OH215080   1.694   1.605   2.615
 5025TIP3    H115081   1.719   1.531   2.671
 5025TIP3    H215082   1.745   1.679   2.649
 5026TIP3   OH215083   5.020   3.412   1.504
 5026TIP3    H115084   5.111   3.391   1.522
 5026TIP3    H215085   5.017   3.508   1.506
 5027TIP3   OH215086   2.475   4.810   1.465
 5027TIP3    H115087   2.555   4.856   1.436
 5027TIP3    H215088   2.474   4.729   1.414
 5028TIP3   OH215089   0.385   4.146   1.151
 5028TIP3    H115090   0.385   4.114   1.060
 5028TIP3    H215091   0.467   4.196   1.158
 5029TIP3   OH215092   6.128   2.483   3.912
 5029TIP3    H115093   6.098   2.537   3.985
 5029TIP3    H215094   6.152   2.545   3.844
 5030TIP3   OH215095   6.201   3.150   1.265
 5030TIP3    H115096   6.145   3.228   1.263
 5030TIP3    H215097   6.283   3.182   1.302
 5031TIP3   OH215098   6.226   2.958   0.493
 5031TIP3    H115099   6.234   2.864   0.504
 5031TIP3    H215100   6.297   2.982   0.434
 5032TIP3   OH215101   2.018   2.464   3.660
 5032TIP3    H115102   1.990   2.392   3.603
 5032TIP3    H215103   2.096   2.430   3.703
 5033TIP3   OH215104   3.942   1.414   4.138
 5033TIP3    H115105   3.989   1.331   4.125
 5033TIP3    H215106   3.850   1.391   4.127
 5034TIP3   OH215107   4.213   2.180   1.732
 5034TIP3    H115108   4.302   2.214   1.730
 5034TIP3    H215109   4.206   2.128   1.652
 5035TIP3   OH215110   5.963   4.601   1.854
 5035TIP3    H115111   6.022   4.526   1.857
 5035TIP3    H215112   5.885   4.569   1.809
 5036TIP3   OH215113   0.538   2.616   3.804
 5036TIP3    H115114   0.571   2.704   3.785
 5036TIP3    H215115   0.526   2.615   3.899
 5037TIP3   OH215116   6.158   1.152   3.205
 5037TIP3    H115117   6.070   1.116   3.217
 5037TIP3    H215118   6.179   1.135   3.113
 5038TIP3   OH215119   2.272   0.269   0.361
 5038TIP3    H115120   2.330   0.275   0.437
 5038TIP3    H215121   2.206   0.205   0.387
 5039TIP3   OH215122   2.657   5.903  -0.022
 5039TIP3    H115123   2.596   5.867  -0.087
 5039TIP3    H215124   2.644   5.850   0.056
 5040TIP3   OH215125   2.012   3.411   2.992
 5040TIP3    H115126   1.985   3.496   3.026
 5040TIP3    H215127   2.092   3.390   3.041
 5041TIP3   OH215128   3.735   3.485   2.478
 5041TIP3    H115129   3.815   3.495   2.529
 5041TIP3    H215130   3.683   3.563   2.499
 5042TIP3   OH215131   1.816   3.766   1.091
 5042TIP3    H115132   1.747   3.768   1.157
 5042TIP3    H215133   1.889   3.812   1.132
 5043TIP3   OH215134   1.650   5.789   0.831
 5043TIP3    H115135   1.679   5.758   0.917
 5043TIP3    H215136   1.563   5.752   0.820
 5044TIP3   OH215137   1.282   2.023   4.783
 5044TIP3    H115138   1.251   2.076   4.857
 5044TIP3    H215139   1.335   1.954   4.822
 5045TIP3   OH215140   3.101   1.185   0.215
 5045TIP3    H115141   3.080   1.263   0.266
 5045TIP3    H215142   3.192   1.166   0.237
 5046TIP3   OH215143   0.598   3.520   1.160
 5046TIP3    H115144   0.523   3.460   1.163
 5046TIP3    H215145   0.572   3.588   1.097
 5047TIP3   OH215146   2.500   3.642   4.024
 5047TIP3    H115147   2.560   3.578   3.986
 5047TIP3    H215148   2.543   3.727   4.009
 5048TIP3   OH215149   3.878   4.562   5.089
 5048TIP3    H115150   3.790   4.596   5.103
 5048TIP3    H215151   3.872   4.469   5.111
 5049TIP3   OH215152   3.670   2.695   0.613
 5049TIP3    H115153   3.728   2.765   0.585
 5049TIP3    H215154   3.625   2.668   0.534
 5050TIP3   OH215155   5.566   4.320   2.164
 5050TIP3    H115156   5.617   4.262   2.108
 5050TIP3    H215157   5.600   4.305   2.253
 5051TIP3   OH215158   3.556   3.313   4.068
 5051TIP3    H115159   3.493   3.371   4.025
 5051TIP3    H215160   3.626   3.301   4.004
 5052TIP3   OH215161   1.047   4.246   2.469
 5052TIP3    H115162   1.139   4.269   2.458
 5052TIP3    H215163   1.005   4.277   2.389
 5053TIP3   OH215164   0.820   0.137   1.165
 5053TIP3    H115165   0.771   0.193   1.225
 5053TIP3    H215166   0.890   0.192   1.131
 5054TIP3   OH215167   5.020   0.101   3.934
 5054TIP3    H115168   5.041   0.128   4.023
 5054TIP3    H215169   5.038   0.007   3.933
 5055TIP3   OH215170   3.447   5.281   1.019
 5055TIP3    H115171   3.405   5.363   1.044
 5055TIP3    H215172   3.453   5.231   1.101
 5056TIP3   OH215173   0.864   5.478   2.296
 5056TIP3    H115174   0.885   5.435   2.379
 5056TIP3    H215175   0.770   5.463   2.285
 5057TIP3   OH215176   2.493   4.364   2.157
 5057TIP3    H115177   2.454   4.279   2.176
 5057TIP3    H215178   2.549   4.382   2.232
 5058TIP3   OH215179   6.256   3.565   3.939
 5058TIP3    H115180   6.293   3.653   3.933
 5058TIP3    H215181   6.196   3.568   4.013
 5059TIP3   OH215182   4.837   1.578   1.057
 5059TIP3    H115183   4.790   1.542   0.981
 5059TIP3    H215184   4.929   1.572   1.032
 5060TIP3   OH215185   5.969   5.898   4.915
 5060TIP3    H115186   5.905   5.869   4.849
 5060TIP3    H215187   5.962   5.993   4.915
 5061TIP3   OH215188   2.429   2.964   1.320
 5061TIP3    H115189   2.372   2.996   1.250
 5061TIP3    H215190   2.388   2.883   1.350
 5062TIP3   OH215191   3.987   0.655   1.048
 5062TIP3    H115192   4.079   0.682   1.041
 5062TIP3    H215193   3.946   0.691   0.969
 5063TIP3   OH215194   6.143   1.247   2.614
 5063TIP3    H115195   6.124   1.251   2.708
 5063TIP3    H215196   6.163   1.155   2.597
 5064TIP3   OH215197   1.586   4.794   0.557
 5064TIP3    H115198   1.572   4.832   0.471
 5064TIP3    H215199   1.674   4.821   0.582
 5065TIP3   OH215200   6.305   0.749   4.924
 5065TIP3    H115201   6.352   0.770   5.004
 5065TIP3    H215202   6.373   0.723   4.862
 5066TIP3   OH215203   0.258   0.798   3.263
 5066TIP3    H115204   0.249   0.887   3.295
 5066TIP3    H215205   0.173   0.757   3.281
 5067TIP3   OH215206   2.966   5.058   2.325
 5067TIP3    H115207   2.979   4.970   2.359
 5067TIP3    H215208   3.041   5.073   2.267
 5068TIP3   OH215209   0.376   3.599   4.383
 5068TIP3    H115210   0.348   3.518   4.340
 5068TIP3    H215211   0.382   3.663   4.311
 5069TIP3   OH215212   3.984   0.664   0.017
 5069TIP3    H115213   3.963   0.621  -0.065
 5069TIP3    H215214   4.077   0.649   0.030
 5070TIP3   OH215215   5.935   5.596   0.411
 5070TIP3    H115216   5.931   5.620   0.318
 5070TIP3    H215217   5.957   5.503   0.412
 5071TIP3   OH215218   5.929   2.306   4.831
 5071TIP3    H115219   6.010   2.311   4.881
 5071TIP3    H215220   5.864   2.273   4.893
 5072TIP3   OH215221   1.993   3.572   0.774
 5072TIP3    H115222   2.008   3.544   0.684
 5072TIP3    H215223   2.077   3.557   0.818
 5073TIP3   OH215224   2.305   1.355   3.336
 5073TIP3    H115225   2.347   1.366   3.421
 5073TIP3    H215226   2.223   1.405   3.342
 5074TIP3   OH215227   3.134   2.505   0.364
 5074TIP3    H115228   3.063   2.569   0.358
 5074TIP3    H215229   3.187   2.520   0.286
 5075TIP3   OH215230   4.438   4.362   0.339
 5075TIP3    H115231   4.447   4.456   0.324
 5075TIP3    H215232   4.515   4.323   0.298
 5076TIP3   OH215233   2.220   3.880   1.121
 5076TIP3    H115234   2.297   3.918   1.164
 5076TIP3    H215235   2.151   3.883   1.187
 5077TIP3   OH215236   1.933   3.420   1.301
 5077TIP3    H115237   1.960   3.489   1.362
 5077TIP3    H215238   1.877   3.465   1.238
 5078TIP3   OH215239   5.765   3.623   2.731
 5078TIP3    H115240   5.672   3.634   2.749
 5078TIP3    H215241   5.809   3.643   2.814
 5079TIP3   OH215242   1.814   1.171   2.590
 5079TIP3    H115243   1.845   1.231   2.522
 5079TIP3    H215244   1.877   1.100   2.590
 5080TIP3   OH215245   1.844   0.789   4.597
 5080TIP3    H115246   1.865   0.699   4.571
 5080TIP3    H215247   1.814   0.831   4.517
 5081TIP3   OH215248   0.383   1.403   0.161
 5081TIP3    H115249   0.402   1.309   0.154
 5081TIP3    H215250   0.457   1.439   0.208
 5082TIP3   OH215251   3.789   0.430   4.720
 5082TIP3    H115252   3.877   0.467   4.725
 5082TIP3    H215253   3.761   0.448   4.630
 5083TIP3   OH215254   1.864   0.349   3.700
 5083TIP3    H115255   1.927   0.280   3.678
 5083TIP3    H215256   1.784   0.302   3.722
 5084TIP3   OH215257   5.438   6.012   0.938
 5084TIP3    H115258   5.449   5.947   1.007
 5084TIP3    H215259   5.401   5.963   0.865
 5085TIP3   OH215260   4.702   2.238   2.104
 5085TIP3    H115261   4.778   2.193   2.141
 5085TIP3    H215262   4.636   2.169   2.095
 5086TIP3   OH215263   1.617   3.234   4.007
 5086TIP3    H115264   1.574   3.177   3.943
 5086TIP3    H215265   1.556   3.237   4.081
 5087TIP3   OH215266   4.376   2.834   5.148
 5087TIP3    H115267   4.368   2.788   5.232
 5087TIP3    H215268   4.368   2.766   5.082
 5088TIP3   OH215269   3.457   2.971   1.887
 5088TIP3    H115270   3.497   2.990   1.972
 5088TIP3    H215271   3.489   2.883   1.864
 5089TIP3   OH215272   2.605   3.139   2.461
 5089TIP3    H115273   2.555   3.060   2.482
 5089TIP3    H215274   2.583   3.201   2.530
 5090TIP3   OH215275   5.595   3.379   4.543
 5090TIP3    H115276   5.590   3.470   4.513
 5090TIP3    H215277   5.510   3.364   4.584
 5091TIP3   OH215278   2.878   4.662   0.068
 5091TIP3    H115279   2.871   4.568   0.051
 5091TIP3    H215280   2.813   4.680   0.135
 5092TIP3   OH215281   4.084   3.763   2.690
 5092TIP3    H115282   4.173   3.745   2.658
 5092TIP3    H215283   4.028   3.705   2.639
 5093TIP3   OH215284   4.829   4.656   0.956
 5093TIP3    H115285   4.797   4.621   1.039
 5093TIP3    H215286   4.763   4.630   0.891
 5094TIP3   OH215287   3.993   2.471   3.694
 5094TIP3    H115288   4.070   2.448   3.745
 5094TIP3    H215289   4.001   2.565   3.679
 5095TIP3   OH215290   4.560   3.417   3.877
 5095TIP3    H115291   4.569   3.329   3.842
 5095TIP3    H215292   4.596   3.474   3.809
 5096TIP3   OH215293   3.727   0.222   3.548
 5096TIP3    H115294   3.771   0.227   3.633
 5096TIP3    H215295   3.710   0.312   3.524
 5097TIP3   OH215296   6.044   1.196   0.684
 5097TIP3    H115297   6.083   1.191   0.597
 5097TIP3    H215298   6.114   1.166   0.743
 5098TIP3   OH215299   6.130   2.292   1.424
 5098TIP3    H115300   6.197   2.360   1.425
 5098TIP3    H215301   6.135   2.254   1.336
 5099TIP3   OH215302   1.678   0.855   3.758
 5099TIP3    H115303   1.721   0.775   3.725
 5099TIP3    H215304   1.750   0.915   3.776
 5100TIP3   OH215305   0.528   1.654   5.039
 5100TIP3    H115306   0.504   1.661   5.132
 5100TIP3    H215307   0.556   1.563   5.029
 5101TIP3   OH215308   4.718   0.743   3.476
 5101TIP3    H115309   4.754   0.721   3.562
 5101TIP3    H215310   4.712   0.660   3.430
 5102TIP3   OH215311   4.934   4.009   1.976
 5102TIP3    H115312   4.953   3.980   2.066
 5102TIP3    H215313   4.904   3.930   1.932
 5103TIP3   OH215314   3.945   3.692   3.435
 5103TIP3    H115315   3.918   3.605   3.405
 5103TIP3    H215316   3.882   3.714   3.504
 5104TIP3   OH215317   4.441   1.602   1.528
 5104TIP3    H115318   4.436   1.621   1.435
 5104TIP3    H215319   4.428   1.508   1.535
 5105TIP3   OH215320   4.080   5.775   4.990
 5105TIP3    H115321   4.032   5.853   5.017
 5105TIP3    H215322   4.013   5.716   4.954
 5106TIP3   OH215323   3.142   4.606   2.894
 5106TIP3    H115324   3.161   4.583   2.985
 5106TIP3    H215325   3.207   4.673   2.872
 5107TIP3   OH215326   4.697   5.881   2.639
 5107TIP3    H115327   4.723   5.971   2.656
 5107TIP3    H215328   4.725   5.832   2.717
 5108TIP3   OH215329   0.047   4.427   1.191
 5108TIP3    H115330   0.138   4.424   1.162
 5108TIP3    H215331   0.047   4.378   1.273
 5109TIP3   OH215332   3.332   0.373   2.888
 5109TIP3    H115333   3.403   0.369   2.951
 5109TIP3    H215334   3.271   0.305   2.916
 5110TIP3   OH215335   5.836   2.523   2.859
 5110TIP3    H115336   5.920   2.554   2.826
 5110TIP3    H215337   5.825   2.569   2.943
 5111TIP3   OH215338   3.821   3.311   0.705
 5111TIP3    H115339   3.753   3.245   0.721
 5111TIP3    H215340   3.896   3.261   0.675
 5112TIP3   OH215341   0.124   1.046   3.389
 5112TIP3    H115342   0.169   1.052   3.473
 5112TIP3    H215343   0.116   1.137   3.360
 5113TIP3   OH215344   5.728   5.404   4.517
 5113TIP3    H115345   5.791   5.398   4.589
 5113TIP3    H215346   5.771   5.463   4.454
 5114TIP3   OH215347   5.336   5.289   2.817
 5114TIP3    H115348   5.351   5.352   2.888
 5114TIP3    H215349   5.333   5.204   2.861
 5115TIP3   OH215350   6.189   5.048   5.024
 5115TIP3    H115351   6.216   4.965   4.986
 5115TIP3    H215352   6.101   5.031   5.060
 5116TIP3   OH215353   3.653   3.403   4.337
 5116TIP3    H115354   3.580   3.392   4.399
 5116TIP3    H215355   3.675   3.496   4.342
 5117TIP3   OH215356   1.114   5.385   0.664
 5117TIP3    H115357   1.120   5.334   0.744
 5117TIP3    H215358   1.072   5.327   0.600
 5118TIP3   OH215359   3.365   3.250   3.716
 5118TIP3    H115360   3.381   3.205   3.633
 5118TIP3    H215361   3.340   3.339   3.691
 5119TIP3   OH215362   4.412   5.747   1.174
 5119TIP3    H115363   4.353   5.774   1.244
 5119TIP3    H215364   4.461   5.673   1.211
 5120TIP3   OH215365   5.512   1.654   0.154
 5120TIP3    H115366   5.562   1.640   0.074
 5120TIP3    H215367   5.573   1.632   0.225
 5121TIP3   OH215368   5.820   3.270   1.763
 5121TIP3    H115369   5.887   3.223   1.813
 5121TIP3    H215370   5.737   3.236   1.796
 5122TIP3   OH215371   5.135   3.582   0.907
 5122TIP3    H115372   5.046   3.611   0.929
 5122TIP3    H215373   5.178   3.572   0.991
 5123TIP3   OH215374   4.815   4.161   3.879
 5123TIP3    H115375   4.896   4.139   3.834
 5123TIP3    H215376   4.835   4.240   3.929
 5124TIP3   OH215377   1.789   1.390   0.612
 5124TIP3    H115378   1.700   1.423   0.618
 5124TIP3    H215379   1.797   1.355   0.523
 5125TIP3   OH215380   4.822   4.913   0.080
 5125TIP3    H115381   4.768   4.914   0.002
 5125TIP3    H215382   4.835   5.005   0.102
 5126TIP3   OH215383   4.719   4.682   0.494
 5126TIP3    H115384   4.708   4.757   0.434
 5126TIP3    H215385   4.811   4.659   0.487
 5127TIP3   OH215386   0.368   1.099   1.850
 5127TIP3    H115387   0.444   1.044   1.832
 5127TIP3    H215388   0.326   1.057   1.926
 5128TIP3   OH215389   2.264   3.138   3.674
 5128TIP3    H115390   2.291   3.093   3.754
 5128TIP3    H215391   2.187   3.189   3.699
 5129TIP3   OH215392   1.686   1.773   1.692
 5129TIP3    H115393   1.771   1.814   1.710
 5129TIP3    H215394   1.702   1.679   1.701
 5130TIP3   OH215395   6.285   2.866   2.117
 5130TIP3    H115396   6.298   2.825   2.202
 5130TIP3    H215397   6.317   2.801   2.054
 5131TIP3   OH215398   2.656   3.517   2.140
 5131TIP3    H115399   2.602   3.447   2.103
 5131TIP3    H215400   2.717   3.540   2.069
 5132TIP3   OH215401   3.615   1.792   1.896
 5132TIP3    H115402   3.665   1.786   1.815
 5132TIP3    H215403   3.676   1.765   1.964
 5133TIP3   OH215404   4.111   2.634   4.963
 5133TIP3    H115405   4.203   2.638   4.940
 5133TIP3    H215406   4.098   2.545   4.997
 5134TIP3   OH215407   3.636   3.791   4.006
 5134TIP3    H115408   3.716   3.826   3.966
 5134TIP3    H215409   3.574   3.863   4.001
 5135TIP3   OH215410   3.173   4.784   4.382
 5135TIP3    H115411   3.183   4.689   4.387
 5135TIP3    H215412   3.256   4.816   4.349
 5136TIP3   OH215413   1.065   0.746   1.036
 5136TIP3    H115414   1.104   0.744   1.123
 5136TIP3    H215415   0.971   0.739   1.052
 5137TIP3   OH215416   0.956   1.365   3.536
 5137TIP3    H115417   0.885   1.412   3.579
 5137TIP3    H215418   0.943   1.273   3.560
 5138TIP3   OH215419   6.158   5.159   3.244
 5138TIP3    H115420   6.147   5.068   3.218
 5138TIP3    H215421   6.189   5.203   3.165
 5139TIP3   OH215422   1.721   3.320   3.731
 5139TIP3    H115423   1.725   3.304   3.825
 5139TIP3    H215424   1.770   3.248   3.692
 5140TIP3   OH215425   2.835   1.923   3.378
 5140TIP3    H115426   2.775   1.990   3.410
 5140TIP3    H215427   2.871   1.960   3.298
 5141TIP3   OH215428   0.003   2.511   5.049
 5141TIP3    H115429  -0.040   2.560   5.118
 5141TIP3    H215430   0.094   2.541   5.051
 5142TIP3   OH215431   1.486   2.490   1.506
 5142TIP3    H115432   1.554   2.546   1.469
 5142TIP3    H215433   1.484   2.514   1.599
 5143TIP3   OH215434   0.813   1.520   0.479
 5143TIP3    H115435   0.811   1.424   0.478
 5143TIP3    H215436   0.803   1.543   0.572
 5144TIP3   OH215437   2.957   2.025   0.500
 5144TIP3    H115438   2.998   2.094   0.449
 5144TIP3    H215439   2.909   1.972   0.436
 5145TIP3   OH215440   0.742   2.134   0.561
 5145TIP3    H115441   0.692   2.200   0.514
 5145TIP3    H215442   0.693   2.053   0.550
 5146TIP3   OH215443   5.552   0.631   3.515
 5146TIP3    H115444   5.598   0.658   3.594
 5146TIP3    H215445   5.463   0.665   3.524
 5147TIP3   OH215446   6.280   3.302   3.829
 5147TIP3    H115447   6.271   3.393   3.855
 5147TIP3    H215448   6.297   3.255   3.911
 5148TIP3   OH215449   2.418   0.972   0.222
 5148TIP3    H115450   2.336   0.924   0.216
 5148TIP3    H215451   2.461   0.956   0.138
 5149TIP3   OH215452   0.361   3.528   2.813
 5149TIP3    H115453   0.354   3.483   2.897
 5149TIP3    H215454   0.321   3.614   2.827
 5150TIP3   OH215455   5.074   0.364   4.488
 5150TIP3    H115456   5.123   0.432   4.535
 5150TIP3    H215457   5.142   0.302   4.460
 5151TIP3   OH215458   4.205   3.331   3.727
 5151TIP3    H115459   4.139   3.352   3.660
 5151TIP3    H215460   4.287   3.323   3.678
 5152TIP3   OH215461   3.572   4.182   3.062
 5152TIP3    H115462   3.551   4.248   2.996
 5152TIP3    H215463   3.560   4.098   3.018
 5153TIP3   OH215464   5.059   2.668   3.838
 5153TIP3    H115465   5.038   2.575   3.850
 5153TIP3    H215466   5.113   2.670   3.759
 5154TIP3   OH215467   5.456   3.629   2.182
 5154TIP3    H115468   5.476   3.707   2.233
 5154TIP3    H215469   5.476   3.654   2.091
 5155TIP3   OH215470   3.039   4.242   2.792
 5155TIP3    H115471   2.985   4.307   2.838
 5155TIP3    H215472   3.098   4.208   2.859
 5156TIP3   OH215473   2.042   0.541   1.048
 5156TIP3    H115474   2.010   0.625   1.015
 5156TIP3    H215475   2.042   0.550   1.143
 5157TIP3   OH215476   1.108   3.945   5.111
 5157TIP3    H115477   1.063   3.995   5.042
 5157TIP3    H215478   1.199   3.939   5.080
 5158TIP3   OH215479   6.376   1.254   2.000
 5158TIP3    H115480   6.364   1.160   1.990
 5158TIP3    H215481   6.296   1.283   2.045
 5159TIP3   OH215482   1.092   0.496   0.860
 5159TIP3    H115483   1.125   0.582   0.836
 5159TIP3    H215484   0.999   0.509   0.876
 5160TIP3   OH215485   3.611   4.160   0.082
 5160TIP3    H115486   3.670   4.086   0.076
 5160TIP3    H215487   3.524   4.122   0.079
 5161TIP3   OH215488   3.147   5.781   1.845
 5161TIP3    H115489   3.064   5.736   1.858
 5161TIP3    H215490   3.130   5.843   1.774
 5162TIP3   OH215491   0.080   3.302   0.466
 5162TIP3    H115492   0.074   3.218   0.512
 5162TIP3    H215493  -0.010   3.325   0.445
 5163TIP3   OH215494   4.058   2.042   1.532
 5163TIP3    H115495   3.980   2.089   1.561
 5163TIP3    H215496   4.090   2.093   1.457
 5164TIP3   OH215497   1.754   4.994   4.512
 5164TIP3    H115498   1.830   4.936   4.508
 5164TIP3    H215499   1.763   5.050   4.435
 5165TIP3   OH215500   4.359   4.090   1.371
 5165TIP3    H115501   4.435   4.085   1.313
 5165TIP3    H215502   4.299   4.150   1.327
 5166TIP3   OH215503   4.261   4.062   4.854
 5166TIP3    H115504   4.223   3.977   4.832
 5166TIP3    H215505   4.327   4.043   4.921
 5167TIP3   OH215506   1.973   5.186   3.386
 5167TIP3    H115507   1.951   5.093   3.379
 5167TIP3    H215508   1.895   5.227   3.424
 5168TIP3   OH215509   3.311   4.746   1.568
 5168TIP3    H115510   3.278   4.656   1.563
 5168TIP3    H215511   3.379   4.743   1.635
 5169TIP3   OH215512   6.130   1.308   4.084
 5169TIP3    H115513   6.214   1.313   4.038
 5169TIP3    H215514   6.088   1.391   4.066
 5170TIP3   OH215515   4.984   4.357   2.656
 5170TIP3    H115516   4.972   4.411   2.577
 5170TIP3    H215517   4.895   4.342   2.688
 5171TIP3   OH215518   1.828   3.665   4.893
 5171TIP3    H115519   1.875   3.627   4.967
 5171TIP3    H215520   1.855   3.612   4.818
 5172TIP3   OH215521   2.758   4.814   4.861
 5172TIP3    H115522   2.820   4.887   4.858
 5172TIP3    H215523   2.808   4.742   4.901
 5173TIP3   OH215524   1.474   1.505   2.498
 5173TIP3    H115525   1.553   1.557   2.519
 5173TIP3    H215526   1.491   1.419   2.537
 5174TIP3   OH215527   1.272   1.583   0.194
 5174TIP3    H115528   1.301   1.631   0.271
 5174TIP3    H215529   1.177   1.586   0.197
 5175TIP3   OH215530   0.122   2.604   3.263
 5175TIP3    H115531   0.096   2.579   3.175
 5175TIP3    H215532   0.130   2.521   3.311
 5176TIP3   OH215533   3.575   4.510   2.655
 5176TIP3    H115534   3.509   4.562   2.609
 5176TIP3    H215535   3.601   4.566   2.729
 5177TIP3   OH215536   5.902   4.198   1.727
 5177TIP3    H115537   5.988   4.218   1.762
 5177TIP3    H215538   5.892   4.257   1.652
 5178TIP3   OH215539   4.330   3.047   1.778
 5178TIP3    H115540   4.251   3.100   1.772
 5178TIP3    H215541   4.381   3.087   1.849
 5179TIP3   OH215542   2.881   0.595   2.122
 5179TIP3    H115543   2.851   0.676   2.163
 5179TIP3    H215544   2.940   0.624   2.052
 5180TIP3   OH215545   4.752   0.485   5.014
 5180TIP3    H115546   4.757   0.421   4.943
 5180TIP3    H215547   4.713   0.436   5.087
 5181TIP3   OH215548   3.456   1.931   0.234
 5181TIP3    H115549   3.502   1.854   0.200
 5181TIP3    H215550   3.522   2.000   0.234
 5182TIP3   OH215551   5.272   1.737   1.244
 5182TIP3    H115552   5.262   1.644   1.224
 5182TIP3    H215553   5.268   1.741   1.340
 5183TIP3   OH215554   2.825   1.119   0.516
 5183TIP3    H115555   2.757   1.074   0.465
 5183TIP3    H215556   2.905   1.071   0.496
 5184TIP3   OH215557   4.668   5.159   3.555
 5184TIP3    H115558   4.736   5.204   3.506
 5184TIP3    H215559   4.715   5.106   3.619
 5185TIP3   OH215560   1.507   4.539   2.061
 5185TIP3    H115561   1.494   4.612   2.122
 5185TIP3    H215562   1.418   4.510   2.038
 5186TIP3   OH215563   5.259   2.203   2.468
 5186TIP3    H115564   5.191   2.187   2.534
 5186TIP3    H215565   5.210   2.214   2.386
 5187TIP3   OH215566   2.523   4.253   3.830
 5187TIP3    H115567   2.445   4.209   3.796
 5187TIP3    H215568   2.508   4.261   3.924
 5188TIP3   OH215569   0.082   1.658   0.392
 5188TIP3    H115570   0.175   1.632   0.390
 5188TIP3    H215571   0.057   1.650   0.484
 5189TIP3   OH215572   5.081   2.303   3.189
 5189TIP3    H115573   5.035   2.382   3.160
 5189TIP3    H215574   5.015   2.234   3.184
 5190TIP3   OH215575   2.168   1.397   0.331
 5190TIP3    H115576   2.258   1.386   0.362
 5190TIP3    H215577   2.166   1.352   0.247
 5191TIP3   OH215578   5.775   3.386   5.060
 5191TIP3    H115579   5.771   3.359   5.151
 5191TIP3    H215580   5.774   3.303   5.011
 5192TIP3   OH215581   0.559   5.865   0.787
 5192TIP3    H115582   0.583   5.795   0.727
 5192TIP3    H215583   0.465   5.852   0.802
 5193TIP3   OH215584   1.682   4.679   1.885
 5193TIP3    H115585   1.761   4.695   1.936
 5193TIP3    H215586   1.617   4.651   1.950
 5194TIP3   OH215587   0.546   3.174   5.140
 5194TIP3    H115588   0.528   3.185   5.046
 5194TIP3    H215589   0.542   3.079   5.154
 5195TIP3   OH215590   2.501   5.552   4.160
 5195TIP3    H115591   2.419   5.529   4.203
 5195TIP3    H215592   2.488   5.529   4.068
 5196TIP3   OH215593   5.404   4.011   4.794
 5196TIP3    H115594   5.381   4.004   4.702
 5196TIP3    H215595   5.474   3.947   4.806
 5197TIP3   OH215596   5.452   5.058   4.151
 5197TIP3    H115597   5.411   5.113   4.219
 5197TIP3    H215598   5.515   5.004   4.200
 5198TIP3   OH215599   4.790   2.778   3.065
 5198TIP3    H115600   4.858   2.802   3.002
 5198TIP3    H215601   4.832   2.784   3.151
 5199TIP3   OH215602   4.091   4.540   1.314
 5199TIP3    H115603   4.066   4.522   1.404
 5199TIP3    H215604   4.042   4.619   1.290
 5200TIP3   OH215605   2.910   2.850   2.640
 5200TIP3    H115606   2.848   2.851   2.713
 5200TIP3    H215607   2.899   2.936   2.599
 5201TIP3   OH215608   1.621   5.811   2.775
 5201TIP3    H115609   1.581   5.830   2.860
 5201TIP3    H215610   1.710   5.846   2.781
 5202TIP3   OH215611   5.761   4.132   1.397
 5202TIP3    H115612   5.782   4.225   1.401
 5202TIP3    H215613   5.680   4.124   1.448
 5203TIP3   OH215614   4.710   2.215   4.543
 5203TIP3    H115615   4.703   2.261   4.460
 5203TIP3    H215616   4.645   2.145   4.537
 5204TIP3   OH215617   3.121   5.287   4.876
 5204TIP3    H115618   3.100   5.205   4.921
 5204TIP3    H215619   3.183   5.330   4.934
 5205TIP3   OH215620   4.708   1.602   0.686
 5205TIP3    H115621   4.685   1.540   0.756
 5205TIP3    H215622   4.784   1.648   0.720
 5206TIP3   OH215623   2.893   5.231   3.604
 5206TIP3    H115624   2.906   5.231   3.698
 5206TIP3    H215625   2.854   5.146   3.584
 5207TIP3   OH215626   5.038   3.108   0.447
 5207TIP3    H115627   5.124   3.150   0.438
 5207TIP3    H215628   5.037   3.040   0.380
 5208TIP3   OH215629   4.819   0.666   0.893
 5208TIP3    H115630   4.805   0.592   0.952
 5208TIP3    H215631   4.734   0.710   0.889
 5209TIP3   OH215632   3.869   5.306   5.004
 5209TIP3    H115633   3.926   5.318   4.928
 5209TIP3    H215634   3.880   5.213   5.027
 5210TIP3   OH215635   3.267   4.563   3.698
 5210TIP3    H115636   3.288   4.530   3.611
 5210TIP3    H215637   3.174   4.583   3.695
 5211TIP3   OH215638   5.145   1.531   0.898
 5211TIP3    H115639   5.128   1.493   0.984
 5211TIP3    H215640   5.200   1.467   0.853
 5212TIP3   OH215641   2.104   2.159   4.421
 5212TIP3    H115642   2.019   2.123   4.396
 5212TIP3    H215643   2.104   2.247   4.385
 5213TIP3   OH215644   5.220   3.466   4.803
 5213TIP3    H115645   5.170   3.544   4.825
 5213TIP3    H215646   5.310   3.487   4.827
 5214TIP3   OH215647   5.016   1.089   3.138
 5214TIP3    H115648   5.015   1.040   3.056
 5214TIP3    H215649   5.064   1.169   3.118
 5215TIP3   OH215650   2.555   1.140   1.440
 5215TIP3    H115651   2.475   1.170   1.397
 5215TIP3    H215652   2.597   1.083   1.376
 5216TIP3   OH215653   2.042   3.914   3.814
 5216TIP3    H115654   2.015   3.829   3.779
 5216TIP3    H215655   2.079   3.893   3.900
 5217TIP3   OH215656   4.829   5.122   4.128
 5217TIP3    H115657   4.911   5.119   4.080
 5217TIP3    H215658   4.844   5.064   4.204
 5218TIP3   OH215659   3.204   5.934   1.135
 5218TIP3    H115660   3.180   6.001   1.071
 5218TIP3    H215661   3.138   5.866   1.125
 5219TIP3   OH215662   1.055   3.194   3.654
 5219TIP3    H115663   1.053   3.247   3.734
 5219TIP3    H215664   1.145   3.164   3.647
 5220TIP3   OH215665   5.300   2.982   0.723
 5220TIP3    H115666   5.281   2.926   0.798
 5220TIP3    H215667   5.239   3.055   0.731
 5221TIP3   OH215668   3.646   0.652   3.271
 5221TIP3    H115669   3.698   0.733   3.271
 5221TIP3    H215670   3.555   0.681   3.277
 5222TIP3   OH215671   2.632   0.020   2.963
 5222TIP3    H115672   2.572   0.008   3.036
 5222TIP3    H215673   2.605  -0.046   2.898
 5223TIP3   OH215674   5.218   3.442   3.830
 5223TIP3    H115675   5.240   3.519   3.883
 5223TIP3    H215676   5.253   3.369   3.879
 5224TIP3   OH215677   3.458   2.419   0.332
 5224TIP3    H115678   3.544   2.456   0.314
 5224TIP3    H215679   3.396   2.485   0.300
 5225TIP3   OH215680   3.446   2.019   0.703
 5225TIP3    H115681   3.398   1.945   0.665
 5225TIP3    H215682   3.434   2.090   0.640
 5226TIP3   OH215683   3.229   2.283   0.786
 5226TIP3    H115684   3.281   2.278   0.706
 5226TIP3    H215685   3.140   2.261   0.759
 5227TIP3   OH215686   0.751   0.868   1.327
 5227TIP3    H115687   0.817   0.937   1.336
 5227TIP3    H215688   0.754   0.821   1.410
 5228TIP3   OH215689   3.009   4.563   3.707
 5228TIP3    H115690   2.988   4.487   3.761
 5228TIP3    H215691   2.959   4.634   3.745
 5229TIP3   OH215692   1.742   0.041   3.001
 5229TIP3    H115693   1.832   0.048   3.033
 5229TIP3    H215694   1.736   0.105   2.931
 5230TIP3   OH215695   5.334   1.270   3.589
 5230TIP3    H115696   5.283   1.279   3.508
 5230TIP3    H215697   5.417   1.314   3.569
 5231TIP3   OH215698   2.972   2.170   0.772
 5231TIP3    H115699   2.969   2.127   0.687
 5231TIP3    H215700   3.030   2.116   0.825
 5232TIP3   OH215701   0.049   0.646   3.020
 5232TIP3    H115702   0.073   0.554   3.036
 5232TIP3    H215703   0.133   0.692   3.020
 5233TIP3   OH215704   0.317   2.827   4.995
 5233TIP3    H115705   0.225   2.852   5.003
 5233TIP3    H215706   0.345   2.865   4.911
 5234TIP3   OH215707   3.324   4.609   2.619
 5234TIP3    H115708   3.316   4.646   2.706
 5234TIP3    H215709   3.246   4.640   2.573
 5235TIP3   OH215710   2.534   5.182   0.927
 5235TIP3    H115711   2.472   5.148   0.990
 5235TIP3    H215712   2.494   5.263   0.894
 5236TIP3   OH215713   5.454   3.137   2.858
 5236TIP3    H115714   5.439   3.188   2.937
 5236TIP3    H215715   5.366   3.117   2.824
 5237TIP3   OH215716   1.350   1.732   0.435
 5237TIP3    H115717   1.412   1.731   0.508
 5237TIP3    H215718   1.286   1.664   0.457
 5238TIP3   OH215719   5.255   3.817   1.655
 5238TIP3    H115720   5.337   3.833   1.607
 5238TIP3    H215721   5.241   3.896   1.706
 5239TIP3   OH215722   2.764   1.682   2.193
 5239TIP3    H115723   2.825   1.645   2.257
 5239TIP3    H215724   2.803   1.662   2.108
 5240TIP3   OH215725   5.156   1.761   3.567
 5240TIP3    H115726   5.168   1.785   3.659
 5240TIP3    H215727   5.090   1.823   3.535
 5241TIP3   OH215728   3.613   5.484   2.382
 5241TIP3    H115729   3.626   5.506   2.474
 5241TIP3    H215730   3.611   5.569   2.337
 5242TIP3   OH215731   2.317   4.653   2.300
 5242TIP3    H115732   2.284   4.730   2.346
 5242TIP3    H215733   2.283   4.663   2.211
 5243TIP3   OH215734   3.115   4.632   3.180
 5243TIP3    H115735   3.063   4.584   3.244
 5243TIP3    H215736   3.104   4.724   3.204
 5244TIP3   OH215737   2.991   2.678   0.624
 5244TIP3    H115738   3.057   2.618   0.589
 5244TIP3    H215739   2.935   2.623   0.678
 5245TIP3   OH215740   0.756   4.448   0.022
 5245TIP3    H115741   0.793   4.508  -0.042
 5245TIP3    H215742   0.780   4.486   0.107
 5246TIP3   OH215743   2.610   5.668   1.659
 5246TIP3    H115744   2.631   5.575   1.667
 5246TIP3    H215745   2.608   5.685   1.565
 5247TIP3   OH215746   0.079   4.889   1.158
 5247TIP3    H115747   0.026   4.809   1.151
 5247TIP3    H215748   0.142   4.869   1.227
 5248TIP3   OH215749   6.085   1.645   3.296
 5248TIP3    H115750   6.074   1.712   3.363
 5248TIP3    H215751   6.042   1.567   3.333
 5249TIP3   OH215752   2.807   0.798   4.960
 5249TIP3    H115753   2.823   0.734   4.891
 5249TIP3    H215754   2.740   0.758   5.015
 5250TIP3   OH215755   1.857   0.619   3.632
 5250TIP3    H115756   1.847   0.525   3.647
 5250TIP3    H215757   1.950   0.636   3.645
 5251TIP3   OH215758   1.123   1.826   1.046
 5251TIP3    H115759   1.164   1.894   0.994
 5251TIP3    H215760   1.056   1.872   1.097
 5252TIP3   OH215761   0.727   1.976   4.958
 5252TIP3    H115762   0.641   1.937   4.945
 5252TIP3    H215763   0.785   1.901   4.974
 5253TIP3   OH215764   3.935   2.827   4.113
 5253TIP3    H115765   3.905   2.737   4.113
 5253TIP3    H215766   3.948   2.848   4.020
 5254TIP3   OH215767   4.488   4.601   4.451
 5254TIP3    H115768   4.557   4.537   4.471
 5254TIP3    H215769   4.443   4.564   4.375
 5255TIP3   OH215770   6.257   2.609   2.789
 5255TIP3    H115771   6.253   2.691   2.838
 5255TIP3    H215772   6.169   2.599   2.753
 5256TIP3   OH215773   1.609   3.643   0.365
 5256TIP3    H115774   1.526   3.596   0.371
 5256TIP3    H215775   1.674   3.583   0.402
 5257TIP3   OH215776   4.661   4.698   1.356
 5257TIP3    H115777   4.684   4.654   1.274
 5257TIP3    H215778   4.687   4.636   1.424
 5258TIP3   OH215779   3.794   5.021   1.125
 5258TIP3    H115780   3.804   5.002   1.218
 5258TIP3    H215781   3.700   5.008   1.108
 5259TIP3   OH215782   5.439   5.237   0.306
 5259TIP3    H115783   5.408   5.323   0.335
 5259TIP3    H215784   5.499   5.256   0.234
 5260TIP3   OH215785   0.814   4.398   1.956
 5260TIP3    H115786   0.837   4.403   1.863
 5260TIP3    H215787   0.722   4.425   1.959
 5261TIP3   OH215788   4.549   5.479   0.850
 5261TIP3    H115789   4.574   5.392   0.818
 5261TIP3    H215790   4.626   5.510   0.898
 5262TIP3   OH215791   4.480   1.518   4.515
 5262TIP3    H115792   4.473   1.519   4.611
 5262TIP3    H215793   4.424   1.445   4.488
 5263TIP3   OH215794   3.308   1.790   3.241
 5263TIP3    H115795   3.401   1.780   3.219
 5263TIP3    H215796   3.268   1.823   3.160
 5264TIP3   OH215797   5.031   5.620   1.982
 5264TIP3    H115798   5.002   5.650   1.895
 5264TIP3    H215799   4.963   5.558   2.009
 5265TIP3   OH215800   1.660   3.675   5.129
 5265TIP3    H115801   1.656   3.716   5.043
 5265TIP3    H215802   1.569   3.675   5.160
 5266TIP3   OH215803   0.407   1.073   5.113
 5266TIP3    H115804   0.370   1.130   5.045
 5266TIP3    H215805   0.353   0.994   5.111
 5267TIP3   OH215806   5.575   2.168   0.256
 5267TIP3    H115807   5.636   2.143   0.188
 5267TIP3    H215808   5.595   2.111   0.330
 5268TIP3   OH215809   1.828   3.236   5.194
 5268TIP3    H115810   1.907   3.287   5.209
 5268TIP3    H215811   1.759   3.301   5.182
 5269TIP3   OH215812   3.892   3.982   2.621
 5269TIP3    H115813   3.903   3.956   2.529
 5269TIP3    H215814   3.958   3.931   2.668
 5270TIP3   OH215815   1.137   1.585   0.506
 5270TIP3    H115816   1.061   1.583   0.448
 5270TIP3    H215817   1.105   1.552   0.589
 5271TIP3   OH215818   1.478   1.507   4.680
 5271TIP3    H115819   1.387   1.478   4.674
 5271TIP3    H215820   1.476   1.587   4.732
 5272TIP3   OH215821   3.133   2.210   1.443
 5272TIP3    H115822   3.163   2.119   1.450
 5272TIP3    H215823   3.076   2.210   1.366
 5273TIP3   OH215824   3.007   4.867   0.913
 5273TIP3    H115825   3.080   4.886   0.972
 5273TIP3    H215826   3.017   4.932   0.842
 5274TIP3   OH215827   2.263   1.401   2.785
 5274TIP3    H115828   2.343   1.401   2.839
 5274TIP3    H215829   2.291   1.439   2.702
 5275TIP3   OH215830   1.238   3.782   2.635
 5275TIP3    H115831   1.307   3.838   2.671
 5275TIP3    H215832   1.177   3.770   2.708
 5276TIP3   OH215833   2.564   5.028   5.125
 5276TIP3    H115834   2.487   5.081   5.108
 5276TIP3    H215835   2.580   4.981   5.043
 5277TIP3   OH215836   3.507   2.747   5.209
 5277TIP3    H115837   3.518   2.828   5.159
 5277TIP3    H215838   3.462   2.774   5.289
 5278TIP3   OH215839   3.807   2.568   4.147
 5278TIP3    H115840   3.711   2.570   4.152
 5278TIP3    H215841   3.831   2.478   4.169
 5279TIP3   OH215842   0.611   1.405   2.343
 5279TIP3    H115843   0.688   1.352   2.321
 5279TIP3    H215844   0.618   1.419   2.437
 5280TIP3   OH215845   3.992   4.535   0.048
 5280TIP3    H115846   3.925   4.471   0.073
 5280TIP3    H215847   4.062   4.523   0.112
 5281TIP3   OH215848   4.970   4.277   1.900
 5281TIP3    H115849   5.021   4.299   1.978
 5281TIP3    H215850   4.947   4.185   1.911
 5282TIP3   OH215851   0.576   4.096   2.223
 5282TIP3    H115852   0.543   4.153   2.154
 5282TIP3    H215853   0.589   4.011   2.180
 5283TIP3   OH215854   5.416   4.624   0.388
 5283TIP3    H115855   5.468   4.645   0.466
 5283TIP3    H215856   5.480   4.625   0.317
 5284TIP3   OH215857   4.528   3.154   3.751
 5284TIP3    H115858   4.478   3.170   3.670
 5284TIP3    H215859   4.593   3.089   3.725
 5285TIP3   OH215860   4.136   5.306   0.475
 5285TIP3    H115861   4.202   5.237   0.482
 5285TIP3    H215862   4.056   5.266   0.508
 5286TIP3   OH215863   3.150   4.956   1.541
 5286TIP3    H115864   3.148   5.006   1.623
 5286TIP3    H215865   3.209   4.883   1.559
 5287TIP3   OH215866   1.049   2.143   0.157
 5287TIP3    H115867   1.076   2.224   0.199
 5287TIP3    H215868   1.017   2.170   0.071
 5288TIP3   OH215869   1.662   2.142   0.266
 5288TIP3    H115870   1.723   2.101   0.327
 5288TIP3    H215871   1.707   2.221   0.237
 5289TIP3   OH215872   6.032   3.219   0.259
 5289TIP3    H115873   5.993   3.304   0.243
 5289TIP3    H215874   6.090   3.233   0.334
 5290TIP3   OH215875   1.976   4.841   4.461
 5290TIP3    H115876   1.918   4.766   4.448
 5290TIP3    H215877   1.974   4.888   4.378
 5291TIP3   OH215878   4.170   0.588   0.322
 5291TIP3    H115879   4.158   0.649   0.248
 5291TIP3    H215880   4.120   0.628   0.394
 5292TIP3   OH215881   4.084   1.744   2.958
 5292TIP3    H115882   4.119   1.688   2.888
 5292TIP3    H215883   4.062   1.826   2.915
 5293TIP3   OH215884   3.707   0.988   2.083
 5293TIP3    H115885   3.745   0.935   2.013
 5293TIP3    H215886   3.661   0.925   2.139
 5294TIP3   OH215887   1.799   3.288   2.221
 5294TIP3    H115888   1.757   3.237   2.290
 5294TIP3    H215889   1.890   3.296   2.249
 5295TIP3   OH215890   2.406   4.140   5.088
 5295TIP3    H115891   2.377   4.075   5.024
 5295TIP3    H215892   2.456   4.089   5.152
 5296TIP3   OH215893   5.310   2.112   3.341
 5296TIP3    H115894   5.226   2.145   3.308
 5296TIP3    H215895   5.319   2.026   3.300
 5297TIP3   OH215896   2.375   4.963   4.713
 5297TIP3    H115897   2.455   4.912   4.710
 5297TIP3    H215898   2.308   4.901   4.742
 5298TIP3   OH215899   4.220   4.962   2.541
 5298TIP3    H115900   4.173   5.043   2.519
 5298TIP3    H215901   4.210   4.954   2.636
 5299TIP3   OH215902   5.836   4.333   3.119
 5299TIP3    H115903   5.781   4.369   3.050
 5299TIP3    H215904   5.800   4.247   3.136
 5300TIP3   OH215905   2.442   3.495   3.603
 5300TIP3    H115906   2.377   3.503   3.534
 5300TIP3    H215907   2.497   3.574   3.594
 5301TIP3   OH215908   0.125   2.891   0.673
 5301TIP3    H115909   0.197   2.892   0.610
 5301TIP3    H215910   0.066   2.823   0.641
 5302TIP3   OH215911   4.707   5.580   0.231
 5302TIP3    H115912   4.754   5.516   0.179
 5302TIP3    H215913   4.685   5.650   0.169
 5303TIP3   OH215914   2.889   3.737   3.782
 5303TIP3    H115915   2.932   3.765   3.701
 5303TIP3    H215916   2.960   3.727   3.845
 5304TIP3   OH215917   5.076   2.293   1.757
 5304TIP3    H115918   5.098   2.201   1.741
 5304TIP3    H215919   5.154   2.342   1.731
 5305TIP3   OH215920   5.823   5.564   2.945
 5305TIP3    H115921   5.772   5.505   2.890
 5305TIP3    H215922   5.819   5.649   2.901
 5306TIP3   OH215923   2.591   1.592   5.057
 5306TIP3    H115924   2.623   1.681   5.042
 5306TIP3    H215925   2.640   1.561   5.133
 5307TIP3   OH215926   4.639   3.879   4.916
 5307TIP3    H115927   4.637   3.910   4.826
 5307TIP3    H215928   4.729   3.896   4.946
 5308TIP3   OH215929   4.060   5.827   4.310
 5308TIP3    H115930   4.059   5.907   4.362
 5308TIP3    H215931   4.040   5.757   4.372
 5309TIP3   OH215932   1.653   0.018   0.037
 5309TIP3    H115933   1.747   0.027   0.053
 5309TIP3    H215934   1.615   0.101   0.067
 5310TIP3   OH215935   5.302   0.427   4.041
 5310TIP3    H115936   5.314   0.498   3.978
 5310TIP3    H215937   5.351   0.453   4.118
 5311TIP3   OH215938   1.180   2.196   1.282
 5311TIP3    H115939   1.122   2.160   1.214
 5311TIP3    H215940   1.264   2.207   1.237
 5312TIP3   OH215941   4.432   0.388   3.518
 5312TIP3    H115942   4.404   0.479   3.523
 5312TIP3    H215943   4.378   0.350   3.449
 5313TIP3   OH215944   5.898   2.113   1.472
 5313TIP3    H115945   5.863   2.115   1.383
 5313TIP3    H215946   5.964   2.182   1.473
 5314TIP3   OH215947   0.778   0.717   1.101
 5314TIP3    H115948   0.755   0.780   1.169
 5314TIP3    H215949   0.724   0.743   1.026
 5315TIP3   OH215950   0.230   0.083   1.014
 5315TIP3    H115951   0.289   0.156   1.030
 5315TIP3    H215952   0.150   0.105   1.062
 5316TIP3   OH215953   2.052   3.721   4.694
 5316TIP3    H115954   1.980   3.784   4.691
 5316TIP3    H215955   2.010   3.637   4.712
 5317TIP3   OH215956   0.922   1.419   4.743
 5317TIP3    H115957   0.852   1.382   4.797
 5317TIP3    H215958   0.940   1.505   4.782
 5318TIP3   OH215959   1.665   0.955   1.842
 5318TIP3    H115960   1.738   0.912   1.887
 5318TIP3    H215961   1.693   1.045   1.830
 5319TIP3   OH215962   3.817   3.749   2.956
 5319TIP3    H115963   3.790   3.767   3.046
 5319TIP3    H215964   3.839   3.835   2.920
 5320TIP3   OH215965   1.949   2.474   0.416
 5320TIP3    H115966   1.888   2.513   0.479
 5320TIP3    H215967   1.967   2.386   0.451
 5321TIP3   OH215968   0.961   4.972   2.109
 5321TIP3    H115969   0.975   5.042   2.173
 5321TIP3    H215970   0.942   5.018   2.027
 5322TIP3   OH215971   0.953   1.859   3.540
 5322TIP3    H115972   1.030   1.890   3.587
 5322TIP3    H215973   0.973   1.872   3.447
 5323TIP3   OH215974   6.240   1.260   4.696
 5323TIP3    H115975   6.282   1.195   4.753
 5323TIP3    H215976   6.301   1.273   4.624
 5324TIP3   OH215977   5.628   4.550   3.315
 5324TIP3    H115978   5.582   4.632   3.299
 5324TIP3    H215979   5.617   4.500   3.234
 5325TIP3   OH215980   2.870   3.372   2.440
 5325TIP3    H115981   2.844   3.401   2.528
 5325TIP3    H215982   2.828   3.435   2.381
 5326TIP3   OH215983   4.593   1.927   3.090
 5326TIP3    H115984   4.609   1.864   3.020
 5326TIP3    H215985   4.537   1.880   3.152
 5327TIP3   OH215986   0.853   2.331   1.480
 5327TIP3    H115987   0.928   2.279   1.507
 5327TIP3    H215988   0.886   2.421   1.479
 5328TIP3   OH215989   4.079   2.334   3.211
 5328TIP3    H115990   4.015   2.327   3.282
 5328TIP3    H215991   4.072   2.250   3.165
 5329TIP3   OH215992   4.162   2.575   1.616
 5329TIP3    H115993   4.257   2.586   1.620
 5329TIP3    H215994   4.147   2.528   1.534
 5330TIP3   OH215995   2.785   2.823   4.130
 5330TIP3    H115996   2.800   2.843   4.222
 5330TIP3    H215997   2.815   2.733   4.119
 5331TIP3   OH215998   6.314   3.136   2.190
 5331TIP3    H115999   6.408   3.137   2.206
 5331TIP3    H216000   6.293   3.043   2.176
 5332TIP3   OH216001   5.432   2.733   2.352
 5332TIP3    H116002   5.378   2.663   2.317
 5332TIP3    H216003   5.386   2.813   2.326
 5333TIP3   OH216004   2.991   0.942   4.402
 5333TIP3    H116005   3.027   1.019   4.359
 5333TIP3    H216006   2.936   0.976   4.472
 5334TIP3   OH216007   3.236   0.660   2.621
 5334TIP3    H116008   3.204   0.574   2.650
 5334TIP3    H216009   3.181   0.723   2.668
 5335TIP3   OH216010   2.374   0.409   1.589
 5335TIP3    H116011   2.455   0.368   1.618
 5335TIP3    H216012   2.305   0.347   1.612
 5336TIP3   OH216013   5.668   1.015   0.639
 5336TIP3    H116014   5.729   1.000   0.566
 5336TIP3    H216015   5.688   0.945   0.701
 5337TIP3   OH216016   1.320   1.218   0.437
 5337TIP3    H116017   1.321   1.137   0.488
 5337TIP3    H216018   1.281   1.283   0.496
 5338TIP3   OH216019   1.722   5.200   4.346
 5338TIP3    H116020   1.750   5.282   4.305
 5338TIP3    H216021   1.639   5.180   4.304
 5339TIP3   OH216022   0.344   0.163   3.073
 5339TIP3    H116023   0.290   0.139   3.148
 5339TIP3    H216024   0.317   0.253   3.052
 5340TIP3   OH216025   4.393   4.674   3.831
 5340TIP3    H116026   4.337   4.659   3.755
 5340TIP3    H216027   4.456   4.603   3.828
 5341TIP3   OH216028   1.803   1.363   3.596
 5341TIP3    H116029   1.842   1.275   3.587
 5341TIP3    H216030   1.823   1.388   3.686
 5342TIP3   OH216031   1.474   3.970   4.256
 5342TIP3    H116032   1.437   4.058   4.262
 5342TIP3    H216033   1.550   3.980   4.199
 5343TIP3   OH216034   5.463   0.164   2.722
 5343TIP3    H116035   5.533   0.186   2.784
 5343TIP3    H216036   5.409   0.100   2.769
 5344TIP3   OH216037   2.330   5.546   0.422
 5344TIP3    H116038   2.323   5.508   0.335
 5344TIP3    H216039   2.330   5.641   0.408
 5345TIP3   OH216040   2.341   2.862   0.979
 5345TIP3    H116041   2.412   2.855   0.914
 5345TIP3    H216042   2.356   2.947   1.021
 5346TIP3   OH216043   0.233   5.240   1.023
 5346TIP3    H116044   0.275   5.156   1.005
 5346TIP3    H216045   0.296   5.288   1.076
 5347TIP3   OH216046   1.910   4.983   4.855
 5347TIP3    H116047   1.945   5.023   4.776
 5347TIP3    H216048   1.903   5.055   4.917
 5348TIP3   OH216049   2.853   3.730   0.408
 5348TIP3    H116050   2.921   3.670   0.439
 5348TIP3    H216051   2.799   3.677   0.349
 5349TIP3   OH216052   1.551   3.186   2.851
 5349TIP3    H116053   1.618   3.219   2.911
 5349TIP3    H216054   1.565   3.091   2.849
 5350TIP3   OH216055   4.370   5.677   0.426
 5350TIP3    H116056   4.297   5.738   0.426
 5350TIP3    H216057   4.393   5.666   0.518
 5351TIP3   OH216058   1.666   2.993   5.213
 5351TIP3    H116059   1.683   2.913   5.163
 5351TIP3    H216060   1.743   3.047   5.198
 5352TIP3   OH216061   0.779   0.888   0.142
 5352TIP3    H116062   0.787   0.824   0.213
 5352TIP3    H216063   0.685   0.905   0.135
 5353TIP3   OH216064   5.114   4.236   4.720
 5353TIP3    H116065   5.151   4.228   4.632
 5353TIP3    H216066   5.043   4.171   4.722
 5354TIP3   OH216067   4.046   2.351   2.089
 5354TIP3    H116068   4.044   2.271   2.037
 5354TIP3    H216069   3.959   2.388   2.080
 5355TIP3   OH216070   3.072   0.785   5.036
 5355TIP3    H116071   3.111   0.843   5.101
 5355TIP3    H216072   2.978   0.801   5.043
 5356TIP3   OH216073   2.403   3.056   3.877
 5356TIP3    H116074   2.465   2.985   3.893
 5356TIP3    H216075   2.369   3.079   3.964
 5357TIP3   OH216076   0.152   5.105   4.743
 5357TIP3    H116077   0.104   5.187   4.747
 5357TIP3    H216078   0.088   5.040   4.717
 5358TIP3   OH216079   4.199   0.366   2.791
 5358TIP3    H116080   4.183   0.439   2.851
 5358TIP3    H216081   4.125   0.367   2.731
 5359TIP3   OH216082   4.928   2.925   1.766
 5359TIP3    H116083   4.998   2.989   1.754
 5359TIP3    H216084   4.867   2.968   1.826
 5360TIP3   OH216085   5.327   4.073   4.037
 5360TIP3    H116086   5.326   4.070   3.941
 5360TIP3    H216087   5.291   4.159   4.059
 5361TIP3   OH216088   3.229   0.751   0.691
 5361TIP3    H116089   3.143   0.714   0.711
 5361TIP3    H216090   3.291   0.694   0.737
 5362TIP3   OH216091   6.332   0.666   1.927
 5362TIP3    H116092   6.281   0.720   1.866
 5362TIP3    H216093   6.279   0.664   2.007
 5363TIP3   OH216094   2.180   5.239   2.825
 5363TIP3    H116095   2.176   5.144   2.819
 5363TIP3    H216096   2.103   5.270   2.777
 5364TIP3   OH216097   5.908   3.205   3.565
 5364TIP3    H116098   5.998   3.218   3.535
 5364TIP3    H216099   5.898   3.263   3.641
 5365TIP3   OH216100   2.289   5.844   4.169
 5365TIP3    H116101   2.346   5.920   4.158
 5365TIP3    H216102   2.349   5.771   4.184
 5366TIP3   OH216103   1.973   0.078   3.172
 5366TIP3    H116104   1.934   0.062   3.257
 5366TIP3    H216105   2.068   0.072   3.187
 5367TIP3   OH216106   3.294   1.729   2.794
 5367TIP3    H116107   3.347   1.803   2.824
 5367TIP3    H216108   3.311   1.725   2.700
 5368TIP3   OH216109   1.138   2.791   4.708
 5368TIP3    H116110   1.212   2.830   4.755
 5368TIP3    H216111   1.093   2.865   4.668
 5369TIP3   OH216112   2.547   0.495   2.224
 5369TIP3    H116113   2.641   0.476   2.226
 5369TIP3    H216114   2.505   0.412   2.245
 5370TIP3   OH216115   2.719   2.429   3.720
 5370TIP3    H116116   2.746   2.377   3.796
 5370TIP3    H216117   2.741   2.374   3.644
 5371TIP3   OH216118   6.215   0.315   3.809
 5371TIP3    H116119   6.279   0.320   3.737
 5371TIP3    H216120   6.253   0.369   3.878
 5372TIP3   OH216121   4.895   3.799   4.646
 5372TIP3    H116122   4.944   3.724   4.613
 5372TIP3    H216123   4.824   3.811   4.582
 5373TIP3   OH216124   0.989   1.311   4.290
 5373TIP3    H116125   0.991   1.379   4.357
 5373TIP3    H216126   0.900   1.276   4.293
 5374TIP3   OH216127   5.389   2.869   0.959
 5374TIP3    H116128   5.386   2.948   1.013
 5374TIP3    H216129   5.363   2.798   1.018
 5375TIP3   OH216130   2.602   3.551   1.498
 5375TIP3    H116131   2.528   3.494   1.476
 5375TIP3    H216132   2.662   3.493   1.546
 5376TIP3   OH216133   3.463   4.529   4.449
 5376TIP3    H116134   3.476   4.575   4.366
 5376TIP3    H216135   3.498   4.442   4.434
 5377TIP3   OH216136   4.620   5.448   1.568
 5377TIP3    H116137   4.682   5.376   1.557
 5377TIP3    H216138   4.620   5.466   1.662
 5378TIP3   OH216139   5.921   5.849   1.277
 5378TIP3    H116140   5.978   5.895   1.339
 5378TIP3    H216141   5.905   5.912   1.207
 5379TIP3   OH216142   4.446   4.852   2.433
 5379TIP3    H116143   4.379   4.874   2.498
 5379TIP3    H216144   4.428   4.911   2.360
 5380TIP3   OH216145   2.178   1.708   0.342
 5380TIP3    H116146   2.252   1.692   0.401
 5380TIP3    H216147   2.142   1.621   0.325
 5381TIP3   OH216148   5.491   2.002   1.153
 5381TIP3    H116149   5.460   1.942   1.221
 5381TIP3    H216150   5.462   2.089   1.182
 5382TIP3   OH216151   0.773   5.373   0.185
 5382TIP3    H116152   0.797   5.316   0.112
 5382TIP3    H216153   0.694   5.333   0.222
 5383TIP3   OH216154   1.648   0.903   4.756
 5383TIP3    H116155   1.566   0.878   4.712
 5383TIP3    H216156   1.716   0.852   4.712
 5384TIP3   OH216157   2.424   2.139   5.190
 5384TIP3    H116158   2.513   2.176   5.186
 5384TIP3    H216159   2.415   2.091   5.107
 5385TIP3   OH216160   1.996   4.344   1.707
 5385TIP3    H116161   1.905   4.371   1.720
 5385TIP3    H216162   2.014   4.361   1.615
 5386TIP3   OH216163   4.794   1.061   4.204
 5386TIP3    H116164   4.753   0.975   4.191
 5386TIP3    H216165   4.860   1.045   4.272
 5387TIP3   OH216166   1.150   1.546   3.437
 5387TIP3    H116167   1.084   1.506   3.494
 5387TIP3    H216168   1.119   1.528   3.348
 5388TIP3   OH216169   3.956   1.498   3.450
 5388TIP3    H116170   3.925   1.582   3.415
 5388TIP3    H216171   3.915   1.432   3.396
 5389TIP3   OH216172   4.328   0.883   1.207
 5389TIP3    H116173   4.297   0.920   1.290
 5389TIP3    H216174   4.268   0.918   1.141
 5390TIP3   OH216175   3.795   4.429   4.601
 5390TIP3    H116176   3.795   4.524   4.585
 5390TIP3    H216177   3.739   4.393   4.533
 5391TIP3   OH216178   2.884   2.477   4.915
 5391TIP3    H116179   2.827   2.531   4.860
 5391TIP3    H216180   2.870   2.388   4.884
 5392TIP3   OH216181   1.647   1.846   1.334
 5392TIP3    H116182   1.612   1.767   1.377
 5392TIP3    H216183   1.739   1.847   1.361
 5393TIP3   OH216184   3.570   4.222   3.529
 5393TIP3    H116185   3.553   4.161   3.601
 5393TIP3    H216186   3.603   4.301   3.572
 5394TIP3   OH216187   1.859   2.011   3.624
 5394TIP3    H116188   1.889   1.968   3.544
 5394TIP3    H216189   1.922   1.984   3.691
 5395TIP3   OH216190   0.241   3.696   1.388
 5395TIP3    H116191   0.274   3.785   1.398
 5395TIP3    H216192   0.267   3.671   1.299
 5396TIP3   OH216193   0.825   1.267   0.585
 5396TIP3    H116194   0.901   1.216   0.559
 5396TIP3    H216195   0.750   1.220   0.548
 5397TIP3   OH216196   4.148   2.670   2.672
 5397TIP3    H116197   4.164   2.639   2.761
 5397TIP3    H216198   4.056   2.696   2.672
 5398TIP3   OH216199   5.194   3.123   3.476
 5398TIP3    H116200   5.259   3.082   3.420
 5398TIP3    H216201   5.245   3.163   3.547
 5399TIP3   OH216202   0.265   5.572   3.621
 5399TIP3    H116203   0.189   5.625   3.645
 5399TIP3    H216204   0.283   5.519   3.698
 5400TIP3   OH216205   1.737   4.779   0.281
 5400TIP3    H116206   1.748   4.817   0.194
 5400TIP3    H216207   1.652   4.735   0.278
 5401TIP3   OH216208   4.654   3.931   3.903
 5401TIP3    H116209   4.703   4.013   3.909
 5401TIP3    H216210   4.718   3.863   3.925
 5402TIP3   OH216211   3.905   2.604   1.525
 5402TIP3    H116212   3.953   2.581   1.605
 5402TIP3    H216213   3.934   2.540   1.460
 5403TIP3   OH216214   4.091   4.537   3.813
 5403TIP3    H116215   4.154   4.465   3.803
 5403TIP3    H216216   4.085   4.576   3.725
 5404TIP3   OH216217   0.794   0.793   3.565
 5404TIP3    H116218   0.721   0.779   3.504
 5404TIP3    H216219   0.858   0.726   3.540
 5405TIP3   OH216220   5.965   2.875   0.895
 5405TIP3    H116221   5.937   2.966   0.892
 5405TIP3    H216222   6.039   2.875   0.956
 5406TIP3   OH216223   0.873   2.611   1.302
 5406TIP3    H116224   0.937   2.662   1.253
 5406TIP3    H216225   0.909   2.604   1.390
 5407TIP3   OH216226   4.058   2.933   4.625
 5407TIP3    H116227   4.092   2.850   4.658
 5407TIP3    H216228   4.021   2.911   4.540
 5408TIP3   OH216229   5.735   4.826   5.117
 5408TIP3    H116230   5.713   4.767   5.190
 5408TIP3    H216231   5.694   4.786   5.041
 5409TIP3   OH216232   3.315   3.190   1.792
 5409TIP3    H116233   3.317   3.241   1.873
 5409TIP3    H216234   3.345   3.103   1.818
 5410TIP3   OH216235   3.023   4.918   3.175
 5410TIP3    H116236   3.107   4.914   3.221
 5410TIP3    H216237   3.047   4.934   3.084
 5411TIP3   OH216238   1.548   2.880   1.061
 5411TIP3    H116239   1.593   2.959   1.090
 5411TIP3    H216240   1.495   2.854   1.136
 5412TIP3   OH216241   3.007   3.981   5.083
 5412TIP3    H116242   2.974   3.895   5.058
 5412TIP3    H216243   3.079   3.962   5.143
 5413TIP3   OH216244   2.628   4.594   3.742
 5413TIP3    H116245   2.636   4.580   3.648
 5413TIP3    H216246   2.717   4.591   3.775
 5414TIP3   OH216247   1.087   5.889   2.066
 5414TIP3    H116248   1.097   5.799   2.097
 5414TIP3    H216249   1.147   5.940   2.120
 5415TIP3   OH216250   0.428   3.014   2.153
 5415TIP3    H116251   0.397   2.956   2.222
 5415TIP3    H216252   0.511   3.049   2.187
 5416TIP3   OH216253   3.754   0.648   2.387
 5416TIP3    H116254   3.837   0.681   2.352
 5416TIP3    H216255   3.760   0.553   2.377
 5417TIP3   OH216256   6.358   2.205   1.232
 5417TIP3    H116257   6.320   2.119   1.249
 5417TIP3    H216258   6.387   2.236   1.318
 5418TIP3   OH216259   3.684   3.069   0.742
 5418TIP3    H116260   3.749   3.014   0.698
 5418TIP3    H216261   3.650   3.015   0.813
 5419TIP3   OH216262   4.389   0.648   3.485
 5419TIP3    H116263   4.447   0.689   3.421
 5419TIP3    H216264   4.429   0.669   3.570
 5420TIP3   OH216265   3.214   4.156   4.268
 5420TIP3    H116266   3.204   4.062   4.259
 5420TIP3    H216267   3.297   4.177   4.225
 5421TIP3   OH216268   3.153   4.284   0.077
 5421TIP3    H116269   3.225   4.313   0.134
 5421TIP3    H216270   3.076   4.330   0.110
 5422TIP3   OH216271   5.355   4.797   4.917
 5422TIP3    H116272   5.302   4.744   4.977
 5422TIP3    H216273   5.378   4.738   4.846
 5423TIP3   OH216274   4.750   0.301   0.404
 5423TIP3    H116275   4.835   0.337   0.378
 5423TIP3    H216276   4.743   0.322   0.497
 5424TIP3   OH216277   5.911   0.203   3.461
 5424TIP3    H116278   5.839   0.209   3.398
 5424TIP3    H216279   5.894   0.273   3.524
 5425TIP3   OH216280   3.657   0.925   2.984
 5425TIP3    H116281   3.645   0.988   2.913
 5425TIP3    H216282   3.618   0.844   2.951
 5426TIP3   OH216283   4.944   2.178   1.474
 5426TIP3    H116284   4.925   2.243   1.542
 5426TIP3    H216285   5.039   2.182   1.462
 5427TIP3   OH216286  -0.002   1.749   0.679
 5427TIP3    H116287  -0.035   1.684   0.740
 5427TIP3    H216288   0.050   1.809   0.733
 5428TIP3   OH216289   4.326   0.019   1.754
 5428TIP3    H116290   4.401  -0.040   1.747
 5428TIP3    H216291   4.261  -0.018   1.693
 5429TIP3   OH216292   5.856   3.114   0.803
 5429TIP3    H116293   5.853   3.179   0.734
 5429TIP3    H216294   5.768   3.076   0.804
 5430TIP3   OH216295   1.203   0.841   2.105
 5430TIP3    H116296   1.219   0.794   2.023
 5430TIP3    H216297   1.241   0.785   2.172
 5431TIP3   OH216298   3.031   1.963   2.033
 5431TIP3    H116299   2.961   1.907   2.000
 5431TIP3    H216300   3.004   1.986   2.122
 5432TIP3   OH216301   4.768   3.076   2.550
 5432TIP3    H116302   4.847   3.026   2.526
 5432TIP3    H216303   4.779   3.095   2.643
 5433TIP3   OH216304   2.999   1.465   3.438
 5433TIP3    H116305   3.017   1.377   3.469
 5433TIP3    H216306   2.906   1.479   3.456
 5434TIP3   OH216307   0.398   2.895   2.700
 5434TIP3    H116308   0.365   2.983   2.719
 5434TIP3    H216309   0.321   2.839   2.704
 5435TIP3   OH216310   1.616   0.012   3.985
 5435TIP3    H116311   1.643  -0.010   3.896
 5435TIP3    H216312   1.697   0.032   4.031
 5436TIP3   OH216313   5.848   0.214   2.656
 5436TIP3    H116314   5.863   0.150   2.585
 5436TIP3    H216315   5.871   0.166   2.736
 5437TIP3   OH216316   1.659   3.343   2.649
 5437TIP3    H116317   1.622   3.295   2.723
 5437TIP3    H216318   1.592   3.338   2.581
 5438TIP3   OH216319   0.040   5.398   3.880
 5438TIP3    H116320   0.134   5.415   3.885
 5438TIP3    H216321   0.034   5.302   3.876
 5439TIP3   OH216322   3.805   4.275   0.433
 5439TIP3    H116323   3.858   4.319   0.500
 5439TIP3    H216324   3.852   4.193   0.416
 5440TIP3   OH216325   4.459   5.331   4.926
 5440TIP3    H116326   4.452   5.347   4.832
 5440TIP3    H216327   4.370   5.312   4.954
 5441TIP3   OH216328   3.097   1.636   2.947
 5441TIP3    H116329   3.074   1.686   3.026
 5441TIP3    H216330   3.156   1.694   2.899
 5442TIP3   OH216331   2.455   5.829   2.703
 5442TIP3    H116332   2.518   5.773   2.658
 5442TIP3    H216333   2.503   5.909   2.721
 5443TIP3   OH216334   2.988   3.844   3.549
 5443TIP3    H116335   3.066   3.831   3.494
 5443TIP3    H216336   2.979   3.939   3.554
 5444TIP3   OH216337   3.335   4.454   4.895
 5444TIP3    H116338   3.305   4.371   4.858
 5444TIP3    H216339   3.272   4.518   4.862
 5445TIP3   OH216340   6.267   1.656   4.002
 5445TIP3    H116341   6.180   1.627   4.030
 5445TIP3    H216342   6.260   1.752   4.000
 5446TIP3   OH216343   1.587   0.124   5.119
 5446TIP3    H116344   1.556   0.182   5.188
 5446TIP3    H216345   1.682   0.135   5.120
 5447TIP3   OH216346   3.571   0.855   2.280
 5447TIP3    H116347   3.607   0.787   2.337
 5447TIP3    H216348   3.493   0.886   2.325
 5448TIP3   OH216349   2.812   2.336   3.963
 5448TIP3    H116350   2.879   2.270   3.949
 5448TIP3    H216351   2.762   2.304   4.038
 5449TIP3   OH216352   5.329   5.204   3.977
 5449TIP3    H116353   5.367   5.130   4.023
 5449TIP3    H216354   5.399   5.234   3.918
 5450TIP3   OH216355   4.681   3.400   4.121
 5450TIP3    H116356   4.667   3.421   4.028
 5450TIP3    H216357   4.598   3.364   4.150
 5451TIP3   OH216358   4.819   3.503   4.337
 5451TIP3    H116359   4.797   3.456   4.256
 5451TIP3    H216360   4.779   3.589   4.326
 5452TIP3   OH216361   4.934   2.517   3.092
 5452TIP3    H116362   4.939   2.542   3.000
 5452TIP3    H216363   4.857   2.563   3.125
 5453TIP3   OH216364   1.866   0.731   1.306
 5453TIP3    H116365   1.869   0.636   1.316
 5453TIP3    H216366   1.958   0.757   1.295
 5454TIP3   OH216367   4.475   1.241   1.292
 5454TIP3    H116368   4.490   1.236   1.386
 5454TIP3    H216369   4.514   1.324   1.265
 5455TIP3   OH216370   1.484   5.782   4.820
 5455TIP3    H116371   1.413   5.825   4.772
 5455TIP3    H216372   1.470   5.689   4.806
 5456TIP3   OH216373   1.469   0.456   1.756
 5456TIP3    H116374   1.468   0.478   1.663
 5456TIP3    H216375   1.559   0.469   1.783
 5457TIP3   OH216376   3.393   1.428   2.581
 5457TIP3    H116377   3.391   1.523   2.594
 5457TIP3    H216378   3.329   1.412   2.511
 5458TIP3   OH216379   0.752   4.059   0.780
 5458TIP3    H116380   0.789   4.028   0.863
 5458TIP3    H216381   0.746   3.981   0.725
 5459TIP3   OH216382   0.180   5.690   1.941
 5459TIP3    H116383   0.123   5.618   1.912
 5459TIP3    H216384   0.147   5.713   2.027
 5460TIP3   OH216385   2.418   1.189   3.762
 5460TIP3    H116386   2.407   1.281   3.739
 5460TIP3    H216387   2.403   1.186   3.857
 5461TIP3   OH216388   6.263   4.759   1.414
 5461TIP3    H116389   6.179   4.732   1.377
 5461TIP3    H216390   6.276   4.699   1.488
 5462TIP3   OH216391   3.781   2.926   1.196
 5462TIP3    H116392   3.774   2.830   1.194
 5462TIP3    H216393   3.864   2.945   1.152
 5463TIP3   OH216394   2.486   0.929   3.456
 5463TIP3    H116395   2.540   0.931   3.376
 5463TIP3    H216396   2.492   0.839   3.487
 5464TIP3   OH216397   2.297   3.589   4.484
 5464TIP3    H116398   2.334   3.644   4.554
 5464TIP3    H216399   2.345   3.507   4.490
 5465TIP3   OH216400   3.791   4.733   4.392
 5465TIP3    H116401   3.735   4.769   4.324
 5465TIP3    H216402   3.876   4.723   4.349
 5466TIP3   OH216403   0.101   2.870   3.308
 5466TIP3    H116404   0.045   2.892   3.234
 5466TIP3    H216405   0.108   2.774   3.305
 5467TIP3   OH216406   1.031   1.892   3.287
 5467TIP3    H116407   1.045   1.818   3.228
 5467TIP3    H216408   0.976   1.952   3.238
 5468TIP3   OH216409   2.615   5.046   4.485
 5468TIP3    H116410   2.535   5.095   4.505
 5468TIP3    H216411   2.585   4.965   4.444
 5469TIP3   OH216412   0.183   2.587   4.638
 5469TIP3    H116413   0.160   2.525   4.569
 5469TIP3    H216414   0.180   2.536   4.719
 5470TIP3   OH216415   5.360   2.436   0.483
 5470TIP3    H116416   5.276   2.429   0.439
 5470TIP3    H216417   5.338   2.454   0.575
 5471TIP3   OH216418   5.632   0.716   1.409
 5471TIP3    H116419   5.668   0.641   1.361
 5471TIP3    H216420   5.640   0.691   1.502
 5472TIP3   OH216421   4.376   5.931   4.062
 5472TIP3    H116422   4.331   6.010   4.092
 5472TIP3    H216423   4.310   5.883   4.012
 5473TIP3   OH216424   3.156   2.646   3.691
 5473TIP3    H116425   3.172   2.740   3.680
 5473TIP3    H216426   3.076   2.642   3.743
 5474TIP3   OH216427   2.841   0.431   3.328
 5474TIP3    H116428   2.750   0.414   3.354
 5474TIP3    H216429   2.838   0.517   3.287
 5475TIP3   OH216430   5.276   1.490   4.421
 5475TIP3    H116431   5.309   1.427   4.484
 5475TIP3    H216432   5.253   1.566   4.473
 5476TIP3   OH216433   3.550   3.177   2.689
 5476TIP3    H116434   3.557   3.112   2.619
 5476TIP3    H216435   3.627   3.162   2.744
 5477TIP3   OH216436   5.429   4.380   0.154
 5477TIP3    H116437   5.505   4.398   0.210
 5477TIP3    H216438   5.465   4.331   0.080
 5478TIP3   OH216439   0.254   2.371   4.822
 5478TIP3    H116440   0.271   2.291   4.773
 5478TIP3    H216441   0.259   2.345   4.914
 5479TIP3   OH216442   4.751   4.355   0.897
 5479TIP3    H116443   4.703   4.411   0.836
 5479TIP3    H216444   4.843   4.376   0.881
 5480TIP3   OH216445   2.729   2.682   4.646
 5480TIP3    H116446   2.779   2.763   4.657
 5480TIP3    H216447   2.669   2.680   4.720
 5481TIP3   OH216448   4.257   4.080   4.491
 5481TIP3    H116449   4.194   4.125   4.548
 5481TIP3    H216450   4.306   4.023   4.550
 5482TIP3   OH216451   4.201   1.828   4.940
 5482TIP3    H116452   4.154   1.778   5.006
 5482TIP3    H216453   4.215   1.914   4.980
 5483TIP3   OH216454   3.807   3.452   0.056
 5483TIP3    H116455   3.792   3.474  -0.036
 5483TIP3    H216456   3.731   3.399   0.080
 5484TIP3   OH216457   4.940   1.701   0.769
 5484TIP3    H116458   4.950   1.791   0.800
 5484TIP3    H216459   5.020   1.657   0.798
 5485TIP3   OH216460   6.173   4.763   2.640
 5485TIP3    H116461   6.099   4.730   2.589
 5485TIP3    H216462   6.139   4.839   2.687
 5486TIP3   OH216463   6.100   3.554   4.162
 5486TIP3    H116464   6.101   3.459   4.161
 5486TIP3    H216465   6.009   3.578   4.144
 5487TIP3   OH216466   3.679   4.154   2.385
 5487TIP3    H116467   3.607   4.177   2.327
 5487TIP3    H216468   3.692   4.232   2.440
 5488TIP3   OH216469   2.419   2.810   1.812
 5488TIP3    H116470   2.358   2.736   1.806
 5488TIP3    H216471   2.493   2.784   1.758
 5489TIP3   OH216472   3.235   0.714   2.995
 5489TIP3    H116473   3.316   0.683   2.955
 5489TIP3    H216474   3.256   0.801   3.029
 5490TIP3   OH216475   1.610   0.132   1.541
 5490TIP3    H116476   1.636   0.090   1.623
 5490TIP3    H216477   1.523   0.168   1.558
 5491TIP3   OH216478   5.268   0.082   0.543
 5491TIP3    H116479   5.281   0.006   0.600
 5491TIP3    H216480   5.342   0.080   0.483
 5492TIP3   OH216481   3.075   3.594   4.298
 5492TIP3    H116482   3.041   3.683   4.301
 5492TIP3    H216483   3.024   3.551   4.230
 5493TIP3   OH216484   3.350   3.770   1.074
 5493TIP3    H116485   3.399   3.689   1.057
 5493TIP3    H216486   3.302   3.786   0.992
 5494TIP3   OH216487   6.235   4.571   1.990
 5494TIP3    H116488   6.147   4.583   2.026
 5494TIP3    H216489   6.226   4.501   1.926
 5495TIP3   OH216490   1.201   4.436   2.723
 5495TIP3    H116491   1.272   4.472   2.776
 5495TIP3    H216492   1.237   4.434   2.634
 5496TIP3   OH216493   6.280   5.224   1.367
 5496TIP3    H116494   6.286   5.259   1.278
 5496TIP3    H216495   6.247   5.135   1.355
 5497TIP3   OH216496   0.079   5.184   1.618
 5497TIP3    H116497   0.052   5.175   1.527
 5497TIP3    H216498   0.075   5.278   1.636
 5498TIP3   OH216499   5.096   3.875   3.051
 5498TIP3    H116500   5.147   3.810   3.099
 5498TIP3    H216501   5.016   3.829   3.026
 5499TIP3   OH216502   4.346   3.331   2.318
 5499TIP3    H116503   4.263   3.302   2.279
 5499TIP3    H216504   4.392   3.251   2.340
 5500TIP3   OH216505   3.780   1.682   2.081
 5500TIP3    H116506   3.866   1.643   2.095
 5500TIP3    H216507   3.728   1.656   2.157
 5501TIP3   OH216508   4.400   4.426   3.037
 5501TIP3    H116509   4.343   4.352   3.019
 5501TIP3    H216510   4.400   4.476   2.956
 5502TIP3   OH216511   5.874   5.536   5.117
 5502TIP3    H116512   5.921   5.607   5.073
 5502TIP3    H216513   5.806   5.510   5.054
 5503TIP3   OH216514   2.943   3.859   4.389
 5503TIP3    H116515   2.862   3.823   4.425
 5503TIP3    H216516   2.921   3.879   4.298
 5504TIP3   OH216517   5.088   2.253   0.630
 5504TIP3    H116518   5.120   2.292   0.711
 5504TIP3    H216519   5.162   2.202   0.597
 5505TIP3   OH216520   0.907   3.100   2.773
 5505TIP3    H116521   0.988   3.052   2.792
 5505TIP3    H216522   0.902   3.100   2.678
 5506TIP3   OH216523   1.199   1.668   4.493
 5506TIP3    H116524   1.171   1.758   4.480
 5506TIP3    H216525   1.202   1.656   4.588
 5507TIP3   OH216526   3.792   5.755   4.250
 5507TIP3    H116527   3.869   5.790   4.296
 5507TIP3    H216528   3.784   5.809   4.172
 5508TIP3   OH216529   5.873   2.385   0.623
 5508TIP3    H116530   5.805   2.451   0.638
 5508TIP3    H216531   5.900   2.357   0.711
 5509TIP3   OH216532   3.918   3.300   3.710
 5509TIP3    H116533   3.854   3.238   3.745
 5509TIP3    H216534   4.001   3.275   3.749
 5510TIP3   OH216535   2.945   3.320   4.727
 5510TIP3    H116536   2.851   3.325   4.738
 5510TIP3    H216537   2.965   3.383   4.657
 5511TIP3   OH216538   4.763   5.557   3.092
 5511TIP3    H116539   4.746   5.551   3.186
 5511TIP3    H216540   4.858   5.559   3.084
 5512TIP3   OH216541   0.473   4.926   3.966
 5512TIP3    H116542   0.519   4.902   4.047
 5512TIP3    H216543   0.425   4.847   3.942
 5513TIP3   OH216544   0.072   3.751   4.019
 5513TIP3    H116545   0.058   3.799   4.101
 5513TIP3    H216546   0.071   3.819   3.951
 5514TIP3   OH216547   4.780   3.358   3.695
 5514TIP3    H116548   4.753   3.331   3.607
 5514TIP3    H216549   4.848   3.294   3.719
 5515TIP3   OH216550   0.410   5.094   2.600
 5515TIP3    H116551   0.350   5.131   2.535
 5515TIP3    H216552   0.353   5.050   2.663
 5516TIP3   OH216553   4.463   2.096   3.520
 5516TIP3    H116554   4.390   2.059   3.470
 5516TIP3    H216555   4.526   2.123   3.453
 5517TIP3   OH216556   2.970   1.190   2.960
 5517TIP3    H116557   3.018   1.253   2.905
 5517TIP3    H216558   3.010   1.105   2.938
 5518TIP3   OH216559   0.290   2.161   5.043
 5518TIP3    H116560   0.380   2.157   5.075
 5518TIP3    H216561   0.242   2.101   5.101
 5519TIP3   OH216562   0.036   3.647   5.160
 5519TIP3    H116563   0.046   3.644   5.064
 5519TIP3    H216564   0.123   3.626   5.193
 5520TIP3   OH216565   5.622   5.283   1.642
 5520TIP3    H116566   5.595   5.340   1.715
 5520TIP3    H216567   5.590   5.328   1.564
 5521TIP3   OH216568   4.346   1.800   2.842
 5521TIP3    H116569   4.299   1.827   2.921
 5521TIP3    H216570   4.423   1.754   2.874
 5522TIP3   OH216571   6.272   1.955   1.329
 5522TIP3    H116572   6.285   1.864   1.302
 5522TIP3    H216573   6.329   1.964   1.406
 5523TIP3   OH216574   6.084   3.561   4.946
 5523TIP3    H116575   6.153   3.622   4.920
 5523TIP3    H216576   6.123   3.474   4.937
 5524TIP3   OH216577   1.419   2.776   3.581
 5524TIP3    H116578   1.467   2.810   3.656
 5524TIP3    H216579   1.426   2.681   3.588
 5525TIP3   OH216580   2.938   0.389   0.719
 5525TIP3    H116581   2.895   0.402   0.803
 5525TIP3    H216582   3.001   0.319   0.734
 5526TIP3   OH216583   0.925   0.185   4.902
 5526TIP3    H116584   0.911   0.092   4.885
 5526TIP3    H216585   1.019   0.198   4.889
 5527TIP3   OH216586   2.563   5.287   2.172
 5527TIP3    H116587   2.626   5.346   2.131
 5527TIP3    H216588   2.608   5.203   2.177
 5528TIP3   OH216589   2.905   4.506   2.891
 5528TIP3    H116590   2.865   4.573   2.946
 5528TIP3    H216591   2.998   4.530   2.890
 5529TIP3   OH216592   5.264   5.754   0.225
 5529TIP3    H116593   5.211   5.731   0.148
 5529TIP3    H216594   5.264   5.849   0.228
 5530TIP3   OH216595   2.725   2.810   0.591
 5530TIP3    H116596   2.760   2.898   0.604
 5530TIP3    H216597   2.802   2.757   0.570
 5531TIP3   OH216598   2.849   0.179   0.448
 5531TIP3    H116599   2.837   0.178   0.543
 5531TIP3    H216600   2.849   0.272   0.425
 5532TIP3   OH216601   0.429   0.286   0.410
 5532TIP3    H116602   0.493   0.277   0.480
 5532TIP3    H216603   0.356   0.229   0.436
 5533TIP3   OH216604   0.727   1.217   4.780
 5533TIP3    H116605   0.651   1.170   4.749
 5533TIP3    H216606   0.751   1.174   4.862
 5534TIP3   OH216607   3.419   5.409   4.014
 5534TIP3    H116608   3.475   5.331   4.016
 5534TIP3    H216609   3.452   5.464   4.084
 5535TIP3   OH216610   2.097   3.597   1.823
 5535TIP3    H116611   2.085   3.570   1.914
 5535TIP3    H216612   2.156   3.673   1.827
 5536TIP3   OH216613   3.412   3.508   3.140
 5536TIP3    H116614   3.461   3.501   3.222
 5536TIP3    H216615   3.436   3.594   3.105
 5537TIP3   OH216616   5.594   0.132   3.586
 5537TIP3    H116617   5.664   0.067   3.585
 5537TIP3    H216618   5.513   0.080   3.584
 5538TIP3   OH216619   2.970   3.241   3.746
 5538TIP3    H116620   2.890   3.291   3.732
 5538TIP3    H216621   3.038   3.292   3.702
 5539TIP3   OH216622   6.134   2.135   1.785
 5539TIP3    H116623   6.163   2.083   1.709
 5539TIP3    H216624   6.051   2.174   1.758
 5540TIP3   OH216625   0.165   3.606   1.722
 5540TIP3    H116626   0.069   3.604   1.714
 5540TIP3    H216627   0.190   3.689   1.682
 5541TIP3   OH216628   3.429   3.875   4.397
 5541TIP3    H116629   3.334   3.885   4.405
 5541TIP3    H216630   3.457   3.845   4.484
 5542TIP3   OH216631   1.565   1.303   3.333
 5542TIP3    H116632   1.604   1.389   3.350
 5542TIP3    H216633   1.579   1.254   3.414
 5543TIP3   OH216634   1.154   5.596   1.341
 5543TIP3    H116635   1.210   5.622   1.414
 5543TIP3    H216636   1.214   5.574   1.270
 5544TIP3   OH216637   3.142   0.408   2.386
 5544TIP3    H116638   3.116   0.316   2.397
 5544TIP3    H216639   3.197   0.407   2.308
 5545TIP3   OH216640   4.187   4.267   1.258
 5545TIP3    H116641   4.112   4.209   1.248
 5545TIP3    H216642   4.157   4.334   1.319
 5546TIP3   OH216643   5.253   3.251   4.047
 5546TIP3    H116644   5.319   3.246   4.117
 5546TIP3    H216645   5.184   3.306   4.083
 5547TIP3   OH216646   0.605   5.823   1.242
 5547TIP3    H116647   0.678   5.881   1.262
 5547TIP3    H216648   0.608   5.756   1.311
 5548TIP3   OH216649   5.973   0.819   3.658
 5548TIP3    H116650   6.009   0.833   3.745
 5548TIP3    H216651   6.025   0.748   3.621
 5549TIP3   OH216652   1.123   5.711   5.052
 5549TIP3    H116653   1.119   5.647   5.123
 5549TIP3    H216654   1.183   5.779   5.084
 5550TIP3   OH216655   0.650   3.320   0.947
 5550TIP3    H116656   0.585   3.257   0.979
 5550TIP3    H216657   0.601   3.378   0.889
 5551TIP3   OH216658   3.672   1.621   4.320
 5551TIP3    H116659   3.634   1.651   4.237
 5551TIP3    H216660   3.661   1.696   4.379
 5552TIP3   OH216661   4.270   2.575   3.552
 5552TIP3    H116662   4.272   2.504   3.489
 5552TIP3    H216663   4.264   2.532   3.637
 5553TIP3   OH216664   3.085   4.046   2.543
 5553TIP3    H116665   3.045   4.099   2.612
 5553TIP3    H216666   3.048   4.080   2.462
 5554TIP3   OH216667   5.809   3.961   3.699
 5554TIP3    H116668   5.795   3.993   3.610
 5554TIP3    H216669   5.756   4.020   3.754
 5555TIP3   OH216670   1.354   5.539   0.433
 5555TIP3    H116671   1.442   5.502   0.440
 5555TIP3    H216672   1.368   5.634   0.436
 5556TIP3   OH216673   4.931   2.870   1.472
 5556TIP3    H116674   4.897   2.781   1.472
 5556TIP3    H216675   4.903   2.907   1.555
 5557TIP3   OH216676   4.508   5.024   2.694
 5557TIP3    H116677   4.567   5.002   2.622
 5557TIP3    H216678   4.459   4.944   2.710
 5558TIP3   OH216679   2.764   4.158   2.141
 5558TIP3    H116680   2.820   4.230   2.111
 5558TIP3    H216681   2.745   4.108   2.061
 5559TIP3   OH216682   2.347   0.298   4.549
 5559TIP3    H116683   2.282   0.331   4.486
 5559TIP3    H216684   2.308   0.314   4.635
 5560TIP3   OH216685   5.458   0.115   2.430
 5560TIP3    H116686   5.377   0.161   2.408
 5560TIP3    H216687   5.463   0.121   2.526
 5561TIP3   OH216688   0.474   4.145   0.071
 5561TIP3    H116689   0.417   4.108   0.139
 5561TIP3    H216690   0.414   4.192   0.013
 5562TIP3   OH216691   2.829   0.367   0.954
 5562TIP3    H116692   2.851   0.424   1.028
 5562TIP3    H216693   2.736   0.349   0.964
 5563TIP3   OH216694   3.794   2.147   0.990
 5563TIP3    H116695   3.785   2.067   0.938
 5563TIP3    H216696   3.708   2.162   1.027
 5564TIP3   OH216697   5.920   0.788   4.533
 5564TIP3    H116698   5.908   0.883   4.540
 5564TIP3    H216699   5.833   0.751   4.547
 5565TIP3   OH216700   1.740   1.366   1.254
 5565TIP3    H116701   1.796   1.289   1.243
 5565TIP3    H216702   1.730   1.400   1.165
 5566TIP3   OH216703   2.796   1.453   3.090
 5566TIP3    H116704   2.878   1.413   3.059
 5566TIP3    H216705   2.750   1.382   3.135
 5567TIP3   OH216706   3.985   2.328   4.126
 5567TIP3    H116707   4.026   2.264   4.068
 5567TIP3    H216708   4.049   2.398   4.135
 5568TIP3   OH216709   2.497   2.278   3.333
 5568TIP3    H116710   2.488   2.365   3.294
 5568TIP3    H216711   2.439   2.280   3.409
 5569TIP3   OH216712   5.049   2.484   4.652
 5569TIP3    H116713   4.968   2.492   4.602
 5569TIP3    H216714   5.100   2.562   4.629
 5570TIP3   OH216715   3.180   4.067   0.890
 5570TIP3    H116716   3.235   3.993   0.867
 5570TIP3    H216717   3.122   4.034   0.958
 5571TIP3   OH216718   2.348   4.400   4.332
 5571TIP3    H116719   2.311   4.484   4.307
 5571TIP3    H216720   2.330   4.392   4.426
 5572TIP3   OH216721   2.083   4.086   0.503
 5572TIP3    H116722   2.152   4.023   0.523
 5572TIP3    H216723   2.123   4.145   0.439
 5573TIP3   OH216724   3.587   3.482   2.151
 5573TIP3    H116725   3.627   3.403   2.188
 5573TIP3    H216726   3.661   3.539   2.128
 5574TIP3   OH216727   2.255   2.967   0.272
 5574TIP3    H116728   2.312   2.892   0.286
 5574TIP3    H216729   2.229   2.961   0.180
 5575TIP3   OH216730   2.914   1.547   2.375
 5575TIP3    H116731   2.885   1.456   2.367
 5575TIP3    H216732   2.909   1.566   2.469
 5576TIP3   OH216733   0.683   4.249   3.542
 5576TIP3    H116734   0.698   4.318   3.478
 5576TIP3    H216735   0.642   4.179   3.492
 5577TIP3   OH216736   2.398   5.947   1.349
 5577TIP3    H116737   2.393   5.951   1.254
 5577TIP3    H216738   2.424   6.035   1.376
 5578TIP3   OH216739   0.084   0.666   1.193
 5578TIP3    H116740   0.037   0.704   1.267
 5578TIP3    H216741   0.137   0.596   1.231
 5579TIP3   OH216742   2.903   1.993   2.270
 5579TIP3    H116743   2.810   1.990   2.248
 5579TIP3    H216744   2.908   2.055   2.342
 5580TIP3   OH216745   3.962   0.614   1.478
 5580TIP3    H116746   3.882   0.645   1.433
 5580TIP3    H216747   4.026   0.603   1.407
 5581TIP3   OH216748   4.721   4.495   1.519
 5581TIP3    H116749   4.750   4.440   1.446
 5581TIP3    H216750   4.673   4.435   1.576
 5582TIP3   OH216751   0.816   4.714   2.248
 5582TIP3    H116752   0.778   4.792   2.289
 5582TIP3    H216753   0.759   4.697   2.173
 5583TIP3   OH216754   4.663   5.956   0.135
 5583TIP3    H116755   4.750   5.918   0.121
 5583TIP3    H216756   4.661   5.976   0.229
 5584TIP3   OH216757   6.329   1.721   4.337
 5584TIP3    H116758   6.289   1.638   4.309
 5584TIP3    H216759   6.282   1.788   4.287
 5585TIP3   OH216760   2.859   4.365   0.085
 5585TIP3    H116761   2.843   4.305   0.158
 5585TIP3    H216762   2.831   4.317   0.008
 5586TIP3   OH216763   5.805   4.765   4.037
 5586TIP3    H116764   5.850   4.836   3.991
 5586TIP3    H216765   5.873   4.723   4.089
 5587TIP3   OH216766   4.963   5.274   1.775
 5587TIP3    H116767   4.912   5.246   1.700
 5587TIP3    H216768   4.910   5.342   1.817
 5588TIP3   OH216769   5.946   2.055   0.658
 5588TIP3    H116770   6.037   2.028   0.640
 5588TIP3    H216771   5.917   2.095   0.576
 5589TIP3   OH216772   2.560   1.517   2.095
 5589TIP3    H116773   2.631   1.571   2.131
 5589TIP3    H216774   2.562   1.438   2.149
 5590TIP3   OH216775   1.053   4.220   0.318
 5590TIP3    H116776   1.120   4.162   0.356
 5590TIP3    H216777   0.972   4.169   0.321
 5591TIP3   OH216778   5.538   0.846   1.139
 5591TIP3    H116779   5.565   0.833   1.230
 5591TIP3    H216780   5.592   0.919   1.109
 5592TIP3   OH216781   2.153   5.162   3.738
 5592TIP3    H116782   2.154   5.214   3.658
 5592TIP3    H216783   2.063   5.167   3.770
 5593TIP3   OH216784   4.741   2.416   0.380
 5593TIP3    H116785   4.806   2.486   0.375
 5593TIP3    H216786   4.696   2.419   0.296
 5594TIP3   OH216787   2.021   4.342   3.498
 5594TIP3    H116788   2.031   4.334   3.593
 5594TIP3    H216789   1.935   4.383   3.486
 5595TIP3   OH216790   3.646   3.600   1.891
 5595TIP3    H116791   3.575   3.664   1.894
 5595TIP3    H216792   3.602   3.515   1.890
 5596TIP3   OH216793   4.573   0.771   2.888
 5596TIP3    H116794   4.668   0.756   2.889
 5596TIP3    H216795   4.537   0.691   2.851
 5597TIP3   OH216796   0.147   2.073   0.318
 5597TIP3    H116797   0.099   2.094   0.398
 5597TIP3    H216798   0.184   2.156   0.289
 5598TIP3   OH216799   2.315   1.125   2.661
 5598TIP3    H116800   2.281   1.202   2.707
 5598TIP3    H216801   2.406   1.145   2.643
 5599TIP3   OH216802   4.812   2.674   5.043
 5599TIP3    H116803   4.860   2.608   5.093
 5599TIP3    H216804   4.816   2.642   4.952
 5600TIP3   OH216805   4.175   3.182   0.592
 5600TIP3    H116806   4.196   3.170   0.684
 5600TIP3    H216807   4.247   3.235   0.557
 5601TIP3   OH216808   0.161   1.915   2.165
 5601TIP3    H116809   0.179   1.842   2.107
 5601TIP3    H216810   0.247   1.939   2.201
 5602TIP3   OH216811   1.920   2.634   0.198
 5602TIP3    H116812   1.955   2.719   0.223
 5602TIP3    H216813   1.929   2.580   0.277
 5603TIP3   OH216814   2.706   0.154   3.880
 5603TIP3    H116815   2.786   0.128   3.834
 5603TIP3    H216816   2.736   0.218   3.945
 5604TIP3   OH216817   0.238   4.310   4.281
 5604TIP3    H116818   0.255   4.238   4.221
 5604TIP3    H216819   0.234   4.387   4.225
 5605TIP3   OH216820   6.345   1.612   2.997
 5605TIP3    H116821   6.291   1.541   3.032
 5605TIP3    H216822   6.284   1.684   2.984
 5606TIP3   OH216823   1.751   2.463   2.743
 5606TIP3    H116824   1.711   2.377   2.756
 5606TIP3    H216825   1.844   2.444   2.732
 5607TIP3   OH216826   1.066   0.541   0.565
 5607TIP3    H116827   1.018   0.493   0.631
 5607TIP3    H216828   1.136   0.481   0.538
 5608TIP3   OH216829   5.181   3.502   2.733
 5608TIP3    H116830   5.212   3.499   2.823
 5608TIP3    H216831   5.146   3.415   2.717
 5609TIP3   OH216832   2.704   4.929   3.679
 5609TIP3    H116833   2.654   4.963   3.753
 5609TIP3    H216834   2.678   4.983   3.605
 5610TIP3   OH216835   6.220   2.189   0.333
 5610TIP3    H116836   6.231   2.232   0.418
 5610TIP3    H216837   6.207   2.261   0.271
 5611TIP3   OH216838   3.085   1.773   2.314
 5611TIP3    H116839   3.020   1.722   2.362
 5611TIP3    H216840   3.043   1.857   2.298
 5612TIP3   OH216841   4.485   2.952   2.827
 5612TIP3    H116842   4.464   3.040   2.796
 5612TIP3    H216843   4.504   2.902   2.748
 5613TIP3   OH216844   0.115   0.935   1.436
 5613TIP3    H116845   0.171   0.915   1.361
 5613TIP3    H216846   0.060   0.857   1.447
 5614TIP3   OH216847   0.578   4.737  -0.034
 5614TIP3    H116848   0.671   4.741  -0.058
 5614TIP3    H216849   0.567   4.808   0.029
 5615TIP3   OH216850   5.486   4.701   1.901
 5615TIP3    H116851   5.551   4.654   1.850
 5615TIP3    H216852   5.424   4.734   1.837
 5616TIP3   OH216853   4.783   1.052   2.601
 5616TIP3    H116854   4.832   1.098   2.533
 5616TIP3    H216855   4.705   1.019   2.556
 5617TIP3   OH216856   4.143   1.859   0.037
 5617TIP3    H116857   4.215   1.855  -0.026
 5617TIP3    H216858   4.073   1.904  -0.008
 5618TIP3   OH216859   5.138   1.976   0.251
 5618TIP3    H116860   5.219   2.018   0.220
 5618TIP3    H216861   5.071   2.045   0.244
 5619TIP3   OH216862   2.474   4.060   4.117
 5619TIP3    H116863   2.492   4.154   4.118
 5619TIP3    H216864   2.425   4.044   4.198
 5620TIP3   OH216865   0.633   5.680   0.582
 5620TIP3    H116866   0.580   5.623   0.526
 5620TIP3    H216867   0.715   5.692   0.534
 5621TIP3   OH216868   4.754   1.862   1.002
 5621TIP3    H116869   4.760   1.767   0.988
 5621TIP3    H216870   4.732   1.897   0.915
 5622TIP3   OH216871   2.583   2.651   1.577
 5622TIP3    H116872   2.562   2.571   1.625
 5622TIP3    H216873   2.515   2.656   1.510
 5623TIP3   OH216874   1.554   2.227   3.152
 5623TIP3    H116875   1.545   2.155   3.090
 5623TIP3    H216876   1.561   2.305   3.098
 5624TIP3   OH216877   1.033   4.175   3.003
 5624TIP3    H116878   1.114   4.125   3.019
 5624TIP3    H216879   1.010   4.155   2.912
 5625TIP3   OH216880   1.386   1.619  -0.041
 5625TIP3    H116881   1.314   1.598   0.019
 5625TIP3    H216882   1.442   1.678   0.010
 5626TIP3   OH216883   1.951   1.443   3.108
 5626TIP3    H116884   1.910   1.460   3.023
 5626TIP3    H216885   1.922   1.355   3.132
 5627TIP3   OH216886   3.292   5.300   3.090
 5627TIP3    H116887   3.197   5.295   3.088
 5627TIP3    H216888   3.311   5.393   3.101
 5628TIP3   OH216889   0.308   4.662   1.646
 5628TIP3    H116890   0.295   4.600   1.718
 5628TIP3    H216891   0.402   4.678   1.645
 5629TIP3   OH216892   3.329   5.654   2.043
 5629TIP3    H116893   3.274   5.653   2.122
 5629TIP3    H216894   3.276   5.699   1.977
 5630TIP3   OH216895   2.154   2.392   4.300
 5630TIP3    H116896   2.219   2.342   4.252
 5630TIP3    H216897   2.181   2.483   4.289
 5631TIP3   OH216898   5.124   0.724   4.877
 5631TIP3    H116899   5.143   0.810   4.839
 5631TIP3    H216900   5.030   0.726   4.896
 5632TIP3   OH216901   1.512   5.884   1.553
 5632TIP3    H116902   1.596   5.914   1.589
 5632TIP3    H216903   1.454   5.878   1.629
 5633TIP3   OH216904   0.416   1.035   4.381
 5633TIP3    H116905   0.433   0.942   4.368
 5633TIP3    H216906   0.324   1.046   4.358
 5634TIP3   OH216907   0.668   3.538   1.920
 5634TIP3    H116908   0.580   3.560   1.887
 5634TIP3    H216909   0.725   3.602   1.879
 5635TIP3   OH216910   2.102   5.573   1.945
 5635TIP3    H116911   2.138   5.624   1.873
 5635TIP3    H216912   2.134   5.484   1.931
 5636TIP3   OH216913   0.858   4.772   0.059
 5636TIP3    H116914   0.926   4.708   0.039
 5636TIP3    H216915   0.896   4.827   0.127
 5637TIP3   OH216916   5.903   1.070   3.237
 5637TIP3    H116917   5.878   0.986   3.275
 5637TIP3    H216918   5.842   1.083   3.164
 5638TIP3   OH216919   2.559   5.941   3.114
 5638TIP3    H116920   2.470   5.971   3.133
 5638TIP3    H216921   2.546   5.858   3.068
 5639TIP3   OH216922   3.997   3.086   1.035
 5639TIP3    H116923   3.964   3.174   1.020
 5639TIP3    H216924   4.073   3.098   1.092
 5640TIP3   OH216925   2.785   1.959   3.079
 5640TIP3    H116926   2.735   2.041   3.075
 5640TIP3    H216927   2.741   1.907   3.146
 5641TIP3   OH216928   5.354   4.546   2.577
 5641TIP3    H116929   5.434   4.598   2.568
 5641TIP3    H216930   5.369   4.493   2.655
 5642TIP3   OH216931   5.053   5.107   3.971
 5642TIP3    H116932   5.057   5.014   3.948
 5642TIP3    H216933   5.144   5.133   3.983
 5643TIP3   OH216934   4.882   3.339   2.636
 5643TIP3    H116935   4.954   3.308   2.690
 5643TIP3    H216936   4.879   3.279   2.562
 5644TIP3   OH216937   3.176   2.002   3.081
 5644TIP3    H116938   3.135   2.011   2.995
 5644TIP3    H216939   3.248   2.065   3.081
 5645TIP3   OH216940   6.330   4.958   3.605
 5645TIP3    H116941   6.385   4.947   3.528
 5645TIP3    H216942   6.278   5.036   3.587
 5646TIP3   OH216943   2.556   4.120   0.244
 5646TIP3    H116944   2.605   4.062   0.186
 5646TIP3    H216945   2.535   4.196   0.189
 5647TIP3   OH216946   1.053   2.491   2.450
 5647TIP3    H116947   1.095   2.492   2.537
 5647TIP3    H216948   1.126   2.477   2.389
 5648TIP3   OH216949   3.729   1.280   2.507
 5648TIP3    H116950   3.715   1.186   2.498
 5648TIP3    H216951   3.722   1.298   2.600
 5649TIP3   OH216952   0.825   1.538   1.977
 5649TIP3    H116953   0.859   1.448   1.979
 5649TIP3    H216954   0.741   1.533   2.021
 5650TIP3   OH216955   0.975   1.497   4.480
 5650TIP3    H116956   0.956   1.459   4.566
 5650TIP3    H216957   1.062   1.534   4.489
 5651TIP3   OH216958   6.160   1.669   1.451
 5651TIP3    H116959   6.128   1.595   1.502
 5651TIP3    H216960   6.138   1.746   1.503
 5652TIP3   OH216961   3.572   1.693   0.170
 5652TIP3    H116962   3.626   1.614   0.171
 5652TIP3    H216963   3.483   1.661   0.186
 5653TIP3   OH216964   5.597   0.967   4.415
 5653TIP3    H116965   5.556   1.022   4.348
 5653TIP3    H216966   5.662   1.024   4.456
 5654TIP3   OH216967   5.347   1.961   1.533
 5654TIP3    H116968   5.344   1.866   1.538
 5654TIP3    H216969   5.431   1.981   1.491
 5655TIP3   OH216970   1.362   2.336   3.807
 5655TIP3    H116971   1.440   2.284   3.827
 5655TIP3    H216972   1.289   2.283   3.838
 5656TIP3   OH216973   0.558   5.391   3.680
 5656TIP3    H116974   0.612   5.343   3.742
 5656TIP3    H216975   0.547   5.477   3.721
 5657TIP3   OH216976   6.343   2.571   1.238
 5657TIP3    H116977   6.255   2.609   1.250
 5657TIP3    H216978   6.402   2.641   1.265
 5658TIP3   OH216979   1.878   4.178   0.698
 5658TIP3    H116980   1.841   4.109   0.753
 5658TIP3    H216981   1.929   4.130   0.632
 5659TIP3   OH216982   2.610   5.418   3.427
 5659TIP3    H116983   2.546   5.412   3.498
 5659TIP3    H216984   2.580   5.491   3.374
 5660TIP3   OH216985   5.489   2.301   3.372
 5660TIP3    H116986   5.546   2.306   3.295
 5660TIP3    H216987   5.433   2.226   3.354
 5661TIP3   OH216988   4.591   0.409   3.081
 5661TIP3    H116989   4.580   0.314   3.075
 5661TIP3    H216990   4.501   0.442   3.086
 5662TIP3   OH216991   5.884   0.158   4.714
 5662TIP3    H116992   5.956   0.218   4.697
 5662TIP3    H216993   5.880   0.151   4.809
 5663TIP3   OH216994   3.923   1.850   4.766
 5663TIP3    H116995   3.962   1.763   4.756
 5663TIP3    H216996   3.954   1.880   4.851
 5664TIP3   OH216997   2.918   5.769   0.939
 5664TIP3    H116998   2.919   5.706   0.866
 5664TIP3    H216999   2.928   5.715   1.017
 5665TIP3   OH217000   1.945   4.067   1.774
 5665TIP3    H117001   1.851   4.081   1.765
 5665TIP3    H217002   1.984   4.154   1.768
 5666TIP3   OH217003   2.186   3.673   1.460
 5666TIP3    H117004   2.267   3.681   1.411
 5666TIP3    H217005   2.206   3.710   1.546
 5667TIP3   OH217006   0.230   0.540   1.824
 5667TIP3    H117007   0.154   0.573   1.872
 5667TIP3    H217008   0.305   0.583   1.865
 5668TIP3   OH217009   1.198   3.581   0.181
 5668TIP3    H117010   1.167   3.506   0.131
 5668TIP3    H217011   1.130   3.647   0.170
 5669TIP3   OH217012   2.219   4.221   0.309
 5669TIP3    H117013   2.179   4.293   0.260
 5669TIP3    H217014   2.301   4.202   0.261
 5670TIP3   OH217015   4.287   5.085   0.479
 5670TIP3    H117016   4.363   5.047   0.523
 5670TIP3    H217017   4.264   5.021   0.411
 5671TIP3   OH217018   4.375   5.008   2.161
 5671TIP3    H117019   4.338   5.096   2.167
 5671TIP3    H217020   4.470   5.021   2.168
 5672TIP3   OH217021   0.410   4.435   3.594
 5672TIP3    H117022   0.426   4.459   3.503
 5672TIP3    H217023   0.475   4.484   3.644
 5673TIP3   OH217024   2.261   2.327   1.642
 5673TIP3    H117025   2.175   2.292   1.665
 5673TIP3    H217026   2.253   2.351   1.549
 5674TIP3   OH217027   3.506   4.923   4.687
 5674TIP3    H117028   3.590   4.966   4.673
 5674TIP3    H217029   3.526   4.829   4.688
 5675TIP3   OH217030   6.170   1.754   3.714
 5675TIP3    H117031   6.235   1.692   3.682
 5675TIP3    H217032   6.217   1.837   3.718
 5676TIP3   OH217033   2.243   0.376   3.085
 5676TIP3    H117034   2.252   0.392   2.991
 5676TIP3    H217035   2.279   0.288   3.098
 5677TIP3   OH217036   4.673   4.814   2.556
 5677TIP3    H117037   4.600   4.815   2.494
 5677TIP3    H217038   4.660   4.736   2.609
 5678TIP3   OH217039   3.379   3.675   2.565
 5678TIP3    H117040   3.470   3.699   2.545
 5678TIP3    H217041   3.386   3.613   2.637
 5679TIP3   OH217042   6.191   1.414   5.202
 5679TIP3    H117043   6.261   1.446   5.258
 5679TIP3    H217044   6.216   1.324   5.181
 5680TIP3   OH217045   4.360   1.305   1.952
 5680TIP3    H117046   4.305   1.239   1.909
 5680TIP3    H217047   4.395   1.260   2.029
 5681TIP3   OH217048   0.432   2.112   4.154
 5681TIP3    H117049   0.492   2.110   4.229
 5681TIP3    H217050   0.421   2.021   4.129
 5682TIP3   OH217051   0.980   3.932   3.206
 5682TIP3    H117052   0.960   3.986   3.130
 5682TIP3    H217053   0.901   3.881   3.221
 5683TIP3   OH217054   1.963   2.302   2.455
 5683TIP3    H117055   2.002   2.215   2.445
 5683TIP3    H217056   1.972   2.321   2.548
 5684TIP3   OH217057   0.194   3.909   5.062
 5684TIP3    H117058   0.217   3.912   4.969
 5684TIP3    H217059   0.278   3.912   5.107
 5685TIP3   OH217060   5.304  -0.021   3.144
 5685TIP3    H117061   5.346   0.053   3.187
 5685TIP3    H217062   5.285  -0.082   3.215
 5686TIP3   OH217063   3.941   2.061   2.557
 5686TIP3    H117064   4.030   2.055   2.522
 5686TIP3    H217065   3.885   2.060   2.480
 5687TIP3   OH217066   0.750   0.466   1.535
 5687TIP3    H117067   0.734   0.463   1.629
 5687TIP3    H217068   0.754   0.559   1.514
 5688TIP3   OH217069   3.678   4.730   0.390
 5688TIP3    H117070   3.734   4.739   0.312
 5688TIP3    H217071   3.610   4.796   0.378
 5689TIP3   OH217072   1.485   1.553   0.999
 5689TIP3    H117073   1.579   1.556   0.979
 5689TIP3    H217074   1.459   1.463   0.980
 5690TIP3   OH217075   1.596   1.608   2.066
 5690TIP3    H117076   1.509   1.597   2.029
 5690TIP3    H217077   1.590   1.689   2.117
 5691TIP3   OH217078   5.240   1.816   4.838
 5691TIP3    H117079   5.271   1.865   4.914
 5691TIP3    H217080   5.174   1.873   4.798
 5692TIP3   OH217081   6.037   1.425   4.855
 5692TIP3    H117082   6.110   1.479   4.886
 5692TIP3    H217083   6.062   1.399   4.766
 5693TIP3   OH217084   2.226   1.840   1.522
 5693TIP3    H117085   2.236   1.906   1.452
 5693TIP3    H217086   2.154   1.873   1.575
 5694TIP3   OH217087   1.928   4.701   5.177
 5694TIP3    H117088   1.847   4.656   5.199
 5694TIP3    H217089   1.909   4.794   5.193
 5695TIP3   OH217090   1.604   2.679   0.584
 5695TIP3    H117091   1.608   2.584   0.576
 5695TIP3    H217092   1.691   2.705   0.614
 5696TIP3   OH217093   3.474   5.605   0.158
 5696TIP3    H117094   3.538   5.674   0.176
 5696TIP3    H217095   3.477   5.593   0.063
 5697TIP3   OH217096   4.313   0.771   1.716
 5697TIP3    H117097   4.289   0.797   1.805
 5697TIP3    H217098   4.230   0.765   1.670
 5698TIP3   OH217099   3.472   3.125   0.562
 5698TIP3    H117100   3.527   3.068   0.617
 5698TIP3    H217101   3.521   3.133   0.480
 5699TIP3   OH217102   6.259   4.077   1.244
 5699TIP3    H117103   6.189   4.094   1.307
 5699TIP3    H217104   6.315   4.154   1.249
 5700TIP3   OH217105   4.597   0.167   3.564
 5700TIP3    H117106   4.555   0.251   3.544
 5700TIP3    H217107   4.673   0.163   3.506
 5701TIP3   OH217108   1.027   0.435   2.182
 5701TIP3    H117109   0.950   0.490   2.188
 5701TIP3    H217110   1.001   0.363   2.124
 5702TIP3   OH217111   1.488   2.309   0.151
 5702TIP3    H117112   1.484   2.384   0.211
 5702TIP3    H217113   1.545   2.246   0.196
 5703TIP3   OH217114   1.518   1.675   0.640
 5703TIP3    H117115   1.612   1.661   0.629
 5703TIP3    H217116   1.511   1.737   0.713
 5704TIP3   OH217117   0.208   2.939   1.492
 5704TIP3    H117118   0.134   2.914   1.436
 5704TIP3    H217119   0.255   2.858   1.507
 5705TIP3   OH217120   5.221   5.114   3.650
 5705TIP3    H117121   5.224   5.122   3.746
 5705TIP3    H217122   5.242   5.201   3.618
 5706TIP3   OH217123   3.051   0.519   2.955
 5706TIP3    H117124   3.101   0.600   2.958
 5706TIP3    H217125   3.079   0.477   2.874
 5707TIP3   OH217126   3.672   2.443   4.885
 5707TIP3    H117127   3.661   2.419   4.793
 5707TIP3    H217128   3.746   2.503   4.885
 5708TIP3   OH217129   4.343   4.746   3.525
 5708TIP3    H117130   4.303   4.820   3.570
 5708TIP3    H217131   4.437   4.759   3.538
 5709TIP3   OH217132   6.065   1.389   1.859
 5709TIP3    H117133   5.997   1.322   1.863
 5709TIP3    H217134   6.034   1.459   1.917
 5710TIP3   OH217135   5.724   3.903   2.596
 5710TIP3    H117136   5.696   3.990   2.624
 5710TIP3    H217137   5.653   3.844   2.621
 5711TIP3   OH217138   4.211   0.922   3.965
 5711TIP3    H117139   4.225   0.827   3.961
 5711TIP3    H217140   4.209   0.949   3.873
 5712TIP3   OH217141   2.391   1.276   2.407
 5712TIP3    H117142   2.444   1.230   2.472
 5712TIP3    H217143   2.388   1.367   2.437
 5713TIP3   OH217144   2.877   0.025   1.371
 5713TIP3    H117145   2.909   0.019   1.461
 5713TIP3    H217146   2.833   0.110   1.366
 5714TIP3   OH217147   3.356   2.518   2.492
 5714TIP3    H117148   3.335   2.433   2.453
 5714TIP3    H217149   3.273   2.549   2.527
 5715TIP3   OH217150   4.691   1.037   3.077
 5715TIP3    H117151   4.723   0.948   3.088
 5715TIP3    H217152   4.741   1.089   3.140
 5716TIP3   OH217153   1.051   4.627   2.370
 5716TIP3    H117154   0.969   4.665   2.337
 5716TIP3    H217155   1.030   4.597   2.458
 5717TIP3   OH217156   2.308   5.169   5.096
 5717TIP3    H117157   2.362   5.240   5.059
 5717TIP3    H217158   2.255   5.212   5.164
 5718TIP3   OH217159   3.495   0.341   3.885
 5718TIP3    H117160   3.563   0.389   3.838
 5718TIP3    H217161   3.535   0.257   3.907
 5719TIP3   OH217162   4.757   1.146   0.223
 5719TIP3    H117163   4.708   1.148   0.306
 5719TIP3    H217164   4.729   1.225   0.177
 5720TIP3   OH217165   5.674   3.326   3.057
 5720TIP3    H117166   5.706   3.238   3.079
 5720TIP3    H217167   5.752   3.381   3.058
 5721TIP3   OH217168   1.228   5.867   0.669
 5721TIP3    H117169   1.132   5.875   0.672
 5721TIP3    H217170   1.250   5.884   0.578
 5722TIP3   OH217171   3.983   0.132   2.077
 5722TIP3    H117172   3.948   0.169   1.996
 5722TIP3    H217173   4.077   0.145   2.071
 5723TIP3   OH217174   1.676   5.450  -0.043
 5723TIP3    H117175   1.634   5.535  -0.052
 5723TIP3    H217176   1.631   5.408   0.031
 5724TIP3   OH217177   1.954   2.914   0.096
 5724TIP3    H117178   1.963   3.006   0.072
 5724TIP3    H217179   1.861   2.895   0.085
 5725TIP3   OH217180   0.743   3.716   1.699
 5725TIP3    H117181   0.755   3.687   1.608
 5725TIP3    H217182   0.653   3.748   1.702
 5726TIP3   OH217183   5.065   2.794   4.919
 5726TIP3    H117184   5.075   2.746   5.001
 5726TIP3    H217185   5.085   2.730   4.850
 5727TIP3   OH217186   3.406   5.580   2.923
 5727TIP3    H117187   3.463   5.513   2.884
 5727TIP3    H217188   3.325   5.574   2.872
 5728TIP3   OH217189   5.353   0.648   5.071
 5728TIP3    H117190   5.343   0.554   5.083
 5728TIP3    H217191   5.297   0.687   5.138
 5729TIP3   OH217192   5.852   2.883   3.358
 5729TIP3    H117193   5.902   2.816   3.312
 5729TIP3    H217194   5.890   2.886   3.446
 5730TIP3   OH217195   2.104   0.304   1.559
 5730TIP3    H117196   2.139   0.271   1.642
 5730TIP3    H217197   2.059   0.385   1.582
 5731TIP3   OH217198   1.415   3.269   3.661
 5731TIP3    H117199   1.507   3.258   3.638
 5731TIP3    H217200   1.395   3.195   3.718
 5732TIP3   OH217201   1.317   4.912   0.963
 5732TIP3    H117202   1.238   4.871   1.000
 5732TIP3    H217203   1.389   4.868   1.007
 5733TIP3   OH217204   5.897   4.625   0.107
 5733TIP3    H117205   5.882   4.531   0.101
 5733TIP3    H217206   5.935   4.649   0.022
 5734TIP3   OH217207   1.255   0.925   2.617
 5734TIP3    H117208   1.167   0.939   2.651
 5734TIP3    H217209   1.288   0.849   2.665
 5735TIP3   OH217210   0.313   3.027   3.891
 5735TIP3    H117211   0.358   2.970   3.828
 5735TIP3    H217212   0.382   3.057   3.949
 5736TIP3   OH217213   5.100   1.011   2.327
 5736TIP3    H117214   5.119   0.954   2.252
 5736TIP3    H217215   5.081   0.950   2.399
 5737TIP3   OH217216   4.025   1.591   4.773
 5737TIP3    H117217   3.999   1.547   4.691
 5737TIP3    H217218   4.100   1.540   4.805
 5738TIP3   OH217219   2.926   1.653   2.628
 5738TIP3    H117220   3.005   1.692   2.664
 5738TIP3    H217221   2.859   1.667   2.695
 5739TIP3   OH217222   4.619   4.592   3.164
 5739TIP3    H117223   4.558   4.519   3.155
 5739TIP3    H217224   4.571   4.658   3.213
 5740TIP3   OH217225   1.515   2.894   0.289
 5740TIP3    H117226   1.479   2.807   0.271
 5740TIP3    H217227   1.607   2.877   0.311
 5741TIP3   OH217228   4.153   0.986   2.047
 5741TIP3    H117229   4.176   0.893   2.058
 5741TIP3    H217230   4.176   1.006   1.957
 5742TIP3   OH217231   3.099   0.997   3.266
 5742TIP3    H117232   3.137   1.072   3.220
 5742TIP3    H217233   3.149   0.991   3.348
 5743TIP3   OH217234   5.665   4.345   4.124
 5743TIP3    H117235   5.614   4.373   4.048
 5743TIP3    H217236   5.756   4.362   4.098
 5744TIP3   OH217237   3.664   5.798   0.502
 5744TIP3    H117238   3.742   5.755   0.468
 5744TIP3    H217239   3.650   5.873   0.444
 5745TIP3   OH217240   4.956   4.009   1.096
 5745TIP3    H117241   4.982   4.100   1.106
 5745TIP3    H217242   4.872   4.012   1.050
 5746TIP3   OH217243   0.128   4.073   2.316
 5746TIP3    H117244   0.091   4.011   2.254
 5746TIP3    H217245   0.069   4.149   2.312
 5747TIP3   OH217246   4.317   4.549   2.501
 5747TIP3    H117247   4.320   4.561   2.406
 5747TIP3    H217248   4.354   4.630   2.536
 5748TIP3   OH217249   3.897   1.077   3.929
 5748TIP3    H117250   3.915   1.060   3.837
 5748TIP3    H217251   3.828   1.014   3.952
 5749TIP3   OH217252   2.991   0.069   4.396
 5749TIP3    H117253   2.906   0.107   4.375
 5749TIP3    H217254   3.054   0.136   4.369
 5750TIP3   OH217255   4.564   4.242   3.766
 5750TIP3    H117256   4.647   4.212   3.802
 5750TIP3    H217257   4.511   4.163   3.758
 5751TIP3   OH217258   2.795   2.998   2.881
 5751TIP3    H117259   2.794   2.951   2.964
 5751TIP3    H217260   2.725   3.063   2.889
 5752TIP3   OH217261   4.405   3.286   3.516
 5752TIP3    H117262   4.454   3.228   3.458
 5752TIP3    H217263   4.395   3.368   3.466
 5753TIP3   OH217264   5.549   2.450   0.287
 5753TIP3    H117265   5.490   2.438   0.362
 5753TIP3    H217266   5.593   2.366   0.277
 5754TIP3   OH217267   1.692   3.156   1.964
 5754TIP3    H117268   1.714   3.129   2.054
 5754TIP3    H217269   1.597   3.157   1.962
 5755TIP3   OH217270   3.880   5.242   0.314
 5755TIP3    H117271   3.972   5.243   0.340
 5755TIP3    H217272   3.833   5.266   0.394
 5756TIP3   OH217273   3.422   4.104   3.333
 5756TIP3    H117274   3.467   4.164   3.393
 5756TIP3    H217275   3.490   4.075   3.273
 5757TIP3   OH217276   1.270   4.055   1.975
 5757TIP3    H117277   1.195   4.032   2.030
 5757TIP3    H217278   1.290   4.146   1.999
 5758TIP3   OH217279   5.630   0.696   4.482
 5758TIP3    H117280   5.650   0.782   4.446
 5758TIP3    H217281   5.626   0.638   4.406
 5759TIP3   OH217282   4.418   3.226   2.794
 5759TIP3    H117283   4.397   3.285   2.866
 5759TIP3    H217284   4.468   3.280   2.732
 5760TIP3   OH217285   1.907   5.066   2.989
 5760TIP3    H117286   1.965   5.139   3.013
 5760TIP3    H217287   1.927   4.997   3.052
 5761TIP3   OH217288   5.221   5.259   3.240
 5761TIP3    H117289   5.261   5.279   3.324
 5761TIP3    H217290   5.283   5.199   3.197
 5762TIP3   OH217291   4.867   2.232   3.789
 5762TIP3    H117292   4.782   2.273   3.807
 5762TIP3    H217293   4.870   2.156   3.846
 5763TIP3   OH217294   5.941   1.377   3.102
 5763TIP3    H117295   5.947   1.296   3.052
 5763TIP3    H217296   6.003   1.367   3.174
 5764TIP3   OH217297   5.083   1.844   3.828
 5764TIP3    H117298   5.000   1.862   3.873
 5764TIP3    H217299   5.111   1.759   3.862
 5765TIP3   OH217300   6.204   2.282   3.493
 5765TIP3    H117301   6.231   2.315   3.578
 5765TIP3    H217302   6.118   2.244   3.507
 5766TIP3   OH217303   0.677   4.490   2.404
 5766TIP3    H117304   0.738   4.507   2.332
 5766TIP3    H217305   0.714   4.415   2.449
 5767TIP3   OH217306   4.253   0.819   2.727
 5767TIP3    H117307   4.197   0.878   2.777
 5767TIP3    H217308   4.327   0.874   2.699
 5768TIP3   OH217309   1.628   3.954   1.588
 5768TIP3    H117310   1.686   3.881   1.611
 5768TIP3    H217311   1.553   3.946   1.647
 5769TIP3   OH217312   5.855   0.580   3.901
 5769TIP3    H117313   5.885   0.637   3.972
 5769TIP3    H217314   5.790   0.522   3.943
 5770TIP3   OH217315   1.472   4.803   1.525
 5770TIP3    H117316   1.418   4.734   1.562
 5770TIP3    H217317   1.410   4.871   1.499
 5771TIP3   OH217318   5.101   2.639   5.154
 5771TIP3    H117319   5.106   2.621   5.248
 5771TIP3    H217320   5.148   2.566   5.113
 5772TIP3   OH217321   0.537   3.771   1.016
 5772TIP3    H117322   0.519   3.863   0.997
 5772TIP3    H217323   0.452   3.734   1.039
 5773TIP3   OH217324   5.991   5.095   0.800
 5773TIP3    H117325   6.024   5.005   0.799
 5773TIP3    H217326   6.068   5.149   0.783
 5774TIP3   OH217327   4.335   3.458   3.292
 5774TIP3    H117328   4.362   3.532   3.346
 5774TIP3    H217329   4.263   3.491   3.239
 5775TIP3   OH217330   0.472   1.911   3.560
 5775TIP3    H117331   0.547   1.970   3.553
 5775TIP3    H217332   0.493   1.838   3.501
 5776TIP3   OH217333   2.677   1.499   4.800
 5776TIP3    H117334   2.658   1.534   4.887
 5776TIP3    H217335   2.649   1.569   4.740
 5777TIP3   OH217336   1.544   5.798   0.323
 5777TIP3    H117337   1.609   5.732   0.349
 5777TIP3    H217338   1.516   5.838   0.405
 5778TIP3   OH217339   3.543   3.571   1.011
 5778TIP3    H117340   3.561   3.610   0.926
 5778TIP3    H217341   3.625   3.579   1.060
 5779TIP3   OH217342   0.338   4.046   3.134
 5779TIP3    H117343   0.277   4.120   3.128
 5779TIP3    H217344   0.283   3.968   3.122
 5780TIP3   OH217345   5.789   3.983   2.921
 5780TIP3    H117346   5.697   3.987   2.949
 5780TIP3    H217347   5.786   3.989   2.826
 5781TIP3   OH217348   3.153   2.406   4.150
 5781TIP3    H117349   3.085   2.414   4.217
 5781TIP3    H217350   3.123   2.461   4.078
 5782TIP3   OH217351   2.273   1.811   0.912
 5782TIP3    H117352   2.271   1.740   0.847
 5782TIP3    H217353   2.251   1.889   0.862
 5783TIP3   OH217354   1.318   2.690   0.423
 5783TIP3    H117355   1.370   2.721   0.497
 5783TIP3    H217356   1.253   2.631   0.461
 5784TIP3   OH217357   0.455   4.512   0.013
 5784TIP3    H117358   0.504   4.584  -0.027
 5784TIP3    H217359   0.471   4.521   0.107
 5785TIP3   OH217360   2.688   5.362   0.595
 5785TIP3    H117361   2.677   5.358   0.690
 5785TIP3    H217362   2.603   5.337   0.560
 5786TIP3   OH217363   1.434   2.790   4.998
 5786TIP3    H117364   1.458   2.779   4.906
 5786TIP3    H217365   1.402   2.704   5.025
 5787TIP3   OH217366   4.023   4.428   0.565
 5787TIP3    H117367   4.071   4.507   0.540
 5787TIP3    H217368   4.086   4.357   0.559
 5788TIP3   OH217369   5.428   0.582   1.853
 5788TIP3    H117370   5.475   0.500   1.870
 5788TIP3    H217371   5.373   0.594   1.931
 5789TIP3   OH217372   4.252   2.141   2.013
 5789TIP3    H117373   4.179   2.080   2.003
 5789TIP3    H217374   4.251   2.193   1.933
 5790TIP3   OH217375   2.677   0.198   1.383
 5790TIP3    H117376   2.612   0.142   1.424
 5790TIP3    H217377   2.671   0.282   1.430
 5791TIP3   OH217378   3.681   3.042   2.901
 5791TIP3    H117379   3.649   2.952   2.903
 5791TIP3    H217380   3.729   3.052   2.984
 5792TIP3   OH217381   5.537   4.077   1.852
 5792TIP3    H117382   5.543   4.037   1.765
 5792TIP3    H217383   5.621   4.121   1.864
 5793TIP3   OH217384   5.634   3.750   1.782
 5793TIP3    H117385   5.597   3.794   1.858
 5793TIP3    H217386   5.724   3.784   1.776
 5794TIP3   OH217387   3.166   5.758   3.343
 5794TIP3    H117388   3.140   5.672   3.312
 5794TIP3    H217389   3.170   5.750   3.438
 5795TIP3   OH217390   5.003   2.925   1.219
 5795TIP3    H117391   5.066   2.853   1.213
 5795TIP3    H217392   4.972   2.922   1.309
 5796TIP3   OH217393   2.618   3.904   0.536
 5796TIP3    H117394   2.641   3.944   0.452
 5796TIP3    H217395   2.609   3.978   0.596
 5797TIP3   OH217396   4.508   0.944   1.815
 5797TIP3    H117397   4.492   0.860   1.772
 5797TIP3    H217398   4.596   0.969   1.787
 5798TIP3   OH217399   0.013   5.782   0.502
 5798TIP3    H117400   0.050   5.781   0.414
 5798TIP3    H217401   0.040   5.699   0.541
 5799TIP3   OH217402   2.660   5.618   1.965
 5799TIP3    H117403   2.616   5.598   1.882
 5799TIP3    H217404   2.600   5.678   2.009
 5800TIP3   OH217405   4.000   3.143   3.926
 5800TIP3    H117406   3.925   3.191   3.960
 5800TIP3    H217407   4.047   3.114   4.005
 5801TIP3   OH217408   6.211   0.263   2.762
 5801TIP3    H117409   6.299   0.224   2.760
 5801TIP3    H217410   6.202   0.296   2.852
 5802TIP3   OH217411   2.058   1.893   2.330
 5802TIP3    H117412   2.117   1.840   2.384
 5802TIP3    H217413   2.110   1.971   2.307
 5803TIP3   OH217414   4.193   4.482   0.249
 5803TIP3    H117415   4.237   4.403   0.279
 5803TIP3    H217416   4.193   4.540   0.326
 5804TIP3   OH217417   2.935   3.883   2.862
 5804TIP3    H117418   2.930   3.951   2.929
 5804TIP3    H217419   3.016   3.836   2.882
 5805TIP3   OH217420   0.442   0.262   1.057
 5805TIP3    H117421   0.438   0.314   1.137
 5805TIP3    H217422   0.447   0.327   0.986
 5806TIP3   OH217423   5.814   0.942   1.051
 5806TIP3    H117424   5.877   0.936   1.123
 5806TIP3    H217425   5.828   1.029   1.014
 5807TIP3   OH217426   1.083   4.177   1.110
 5807TIP3    H117427   1.056   4.092   1.077
 5807TIP3    H217428   1.178   4.178   1.099
 5808TIP3   OH217429   4.204   0.190   3.085
 5808TIP3    H117430   4.109   0.179   3.089
 5808TIP3    H217431   4.225   0.181   2.992
 5809TIP3   OH217432   6.043   3.899   0.212
 5809TIP3    H117433   6.078   3.897   0.301
 5809TIP3    H217434   6.110   3.853   0.160
 5810TIP3   OH217435   1.363   0.484   3.128
 5810TIP3    H117436   1.457   0.463   3.127
 5810TIP3    H217437   1.360   0.577   3.150
 5811TIP3   OH217438   1.220   1.226   2.691
 5811TIP3    H117439   1.312   1.209   2.668
 5811TIP3    H217440   1.174   1.222   2.608
 5812TIP3   OH217441   3.641   5.400   2.925
 5812TIP3    H117442   3.644   5.337   2.997
 5812TIP3    H217443   3.678   5.480   2.962
 5813TIP3   OH217444   3.768   2.902   4.970
 5813TIP3    H117445   3.681   2.881   4.935
 5813TIP3    H217446   3.752   2.958   5.045
 5814TIP3   OH217447   2.682   1.103   4.343
 5814TIP3    H117448   2.705   1.038   4.409
 5814TIP3    H217449   2.640   1.174   4.392
 5815TIP3   OH217450   3.085   0.626   1.880
 5815TIP3    H117451   3.152   0.641   1.814
 5815TIP3    H217452   3.006   0.665   1.843
 5816TIP3   OH217453   5.808   3.102   3.191
 5816TIP3    H117454   5.843   3.046   3.121
 5816TIP3    H217455   5.798   3.044   3.266
 5817TIP3   OH217456   5.045   1.137   4.621
 5817TIP3    H117457   5.011   1.078   4.554
 5817TIP3    H217458   4.969   1.158   4.675
 5818TIP3   OH217459   4.191   1.240   1.579
 5818TIP3    H117460   4.162   1.254   1.489
 5818TIP3    H217461   4.155   1.314   1.628
 5819TIP3   OH217462   4.342   3.814   1.439
 5819TIP3    H117463   4.357   3.905   1.414
 5819TIP3    H217464   4.358   3.812   1.533
 5820TIP3   OH217465   2.283   3.638   4.858
 5820TIP3    H117466   2.210   3.662   4.802
 5820TIP3    H217467   2.247   3.573   4.918
 5821TIP3   OH217468   2.843   3.617   1.953
 5821TIP3    H117469   2.804   3.637   1.868
 5821TIP3    H217470   2.921   3.566   1.932
 5822TIP3   OH217471   3.364   1.143   2.213
 5822TIP3    H117472   3.284   1.192   2.230
 5822TIP3    H217473   3.334   1.054   2.193
 5823TIP3   OH217474   0.806   1.103   1.958
 5823TIP3    H117475   0.740   1.171   1.956
 5823TIP3    H217476   0.889   1.149   1.972
 5824TIP3   OH217477   3.117   4.705   1.200
 5824TIP3    H117478   3.103   4.788   1.154
 5824TIP3    H217479   3.201   4.672   1.166
 5825TIP3   OH217480   2.890   5.937   0.606
 5825TIP3    H117481   2.891   6.033   0.604
 5825TIP3    H217482   2.972   5.914   0.650
 5826TIP3   OH217483   5.042   1.951   4.171
 5826TIP3    H117484   4.970   1.899   4.209
 5826TIP3    H217485   5.043   2.031   4.223
 5827TIP3   OH217486  -0.012   4.910   2.492
 5827TIP3    H117487  -0.069   4.838   2.520
 5827TIP3    H217488   0.050   4.868   2.432
 5828TIP3   OH217489   5.033   0.746   0.507
 5828TIP3    H117490   5.086   0.727   0.430
 5828TIP3    H217491   5.037   0.841   0.516
 5829TIP3   OH217492   3.552   3.509   0.342
 5829TIP3    H117493   3.560   3.450   0.266
 5829TIP3    H217494   3.605   3.468   0.410
 5830TIP3   OH217495   1.217   5.390   2.985
 5830TIP3    H117496   1.221   5.381   2.890
 5830TIP3    H217497   1.222   5.300   3.018
 5831TIP3   OH217498   4.870   3.823   3.248
 5831TIP3    H117499   4.788   3.837   3.201
 5831TIP3    H217500   4.909   3.746   3.206
 5832TIP3   OH217501   2.382   5.935   2.020
 5832TIP3    H117502   2.400   6.029   2.011
 5832TIP3    H217503   2.397   5.899   1.933
 5833TIP3   OH217504   4.328   0.811   0.762
 5833TIP3    H117505   4.298   0.738   0.816
 5833TIP3    H217506   4.257   0.827   0.700
 5834TIP3   OH217507   1.128   5.260   0.904
 5834TIP3    H117508   1.223   5.256   0.919
 5834TIP3    H217509   1.094   5.304   0.982
 5835TIP3   OH217510   4.087   4.424   0.864
 5835TIP3    H117511   4.000   4.425   0.823
 5835TIP3    H217512   4.139   4.365   0.808
 5836TIP3   OH217513   6.226   5.427   4.106
 5836TIP3    H117514   6.203   5.519   4.116
 5836TIP3    H217515   6.280   5.425   4.027
 5837TIP3   OH217516   1.234   3.015   1.148
 5837TIP3    H117517   1.309   2.972   1.190
 5837TIP3    H217518   1.222   3.095   1.199
 5838TIP3   OH217519   4.394   1.424   0.289
 5838TIP3    H117520   4.414   1.518   0.284
 5838TIP3    H217521   4.368   1.410   0.380
 5839TIP3   OH217522   1.610   0.161   2.180
 5839TIP3    H117523   1.594   0.157   2.275
 5839TIP3    H217524   1.547   0.225   2.148
 5840TIP3   OH217525   6.343   4.855   2.892
 5840TIP3    H117526   6.369   4.917   2.959
 5840TIP3    H217527   6.248   4.865   2.886
 5841TIP3   OH217528   4.045   4.676   4.310
 5841TIP3    H117529   4.102   4.678   4.233
 5841TIP3    H217530   4.101   4.702   4.383
 5842TIP3   OH217531   3.403   5.691   0.447
 5842TIP3    H117532   3.413   5.692   0.352
 5842TIP3    H217533   3.477   5.743   0.479
 5843TIP3   OH217534   5.618   4.686   0.183
 5843TIP3    H117535   5.679   4.714   0.252
 5843TIP3    H217536   5.672   4.636   0.122
 5844TIP3   OH217537   6.220   1.477   4.293
 5844TIP3    H117538   6.310   1.457   4.319
 5844TIP3    H217539   6.185   1.394   4.261
 5845TIP3   OH217540   0.491   4.733   3.127
 5845TIP3    H117541   0.566   4.735   3.067
 5845TIP3    H217542   0.422   4.688   3.077
 5846TIP3   OH217543   3.448   1.888   2.441
 5846TIP3    H117544   3.449   1.939   2.360
 5846TIP3    H217545   3.529   1.912   2.485
 5847TIP3   OH217546   1.335   3.214   0.447
 5847TIP3    H117547   1.261   3.212   0.386
 5847TIP3    H217548   1.301   3.175   0.527
 5848TIP3   OH217549   4.639   4.608   0.745
 5848TIP3    H117550   4.557   4.568   0.719
 5848TIP3    H217551   4.678   4.639   0.663
 5849TIP3   OH217552   1.986   4.646   3.607
 5849TIP3    H117553   2.035   4.627   3.687
 5849TIP3    H217554   2.043   4.705   3.558
 5850TIP3   OH217555   4.948   4.252   4.996
 5850TIP3    H117556   5.041   4.230   4.995
 5850TIP3    H217557   4.907   4.183   4.944
 5851TIP3   OH217558   0.561   5.676   3.817
 5851TIP3    H117559   0.486   5.730   3.790
 5851TIP3    H217560   0.637   5.721   3.783
 5852TIP3   OH217561   0.475   0.608   0.043
 5852TIP3    H117562   0.545   0.590  -0.020
 5852TIP3    H217563   0.499   0.559   0.121
 5853TIP3   OH217564   2.175   2.875   2.325
 5853TIP3    H117565   2.093   2.923   2.331
 5853TIP3    H217566   2.240   2.941   2.301
 5854TIP3   OH217567   3.301   4.413   0.503
 5854TIP3    H117568   3.308   4.335   0.558
 5854TIP3    H217569   3.363   4.475   0.541
 5855TIP3   OH217570   1.945   3.506   3.359
 5855TIP3    H117571   1.978   3.594   3.378
 5855TIP3    H217572   1.899   3.480   3.438
 5856TIP3   OH217573   1.190   5.647   3.034
 5856TIP3    H117574   1.283   5.664   3.024
 5856TIP3    H217575   1.182   5.552   3.028
 5857TIP3   OH217576   0.815   0.208   3.031
 5857TIP3    H117577   0.760   0.198   2.953
 5857TIP3    H217578   0.806   0.300   3.056
 5858TIP3   OH217579   5.222   3.593   1.194
 5858TIP3    H117580   5.296   3.609   1.253
 5858TIP3    H217581   5.172   3.674   1.195
 5859TIP3   OH217582   4.520   0.425   0.955
 5859TIP3    H117583   4.552   0.486   1.021
 5859TIP3    H217584   4.525   0.474   0.873
 5860TIP3   OH217585   3.036   5.081   0.218
 5860TIP3    H117586   2.985   5.140   0.163
 5860TIP3    H217587   3.002   5.094   0.307
 5861TIP3   OH217588   4.447   3.769   0.876
 5861TIP3    H117589   4.527   3.726   0.904
 5861TIP3    H217590   4.415   3.814   0.955
 5862TIP3   OH217591   4.384   5.248   3.539
 5862TIP3    H117592   4.474   5.215   3.544
 5862TIP3    H217593   4.393   5.342   3.550
 5863TIP3   OH217594   2.994   1.013   2.346
 5863TIP3    H117595   2.991   1.107   2.362
 5863TIP3    H217596   3.075   0.983   2.388
 5864TIP3   OH217597   6.047   5.481   1.243
 5864TIP3    H117598   6.041   5.534   1.163
 5864TIP3    H217599   6.009   5.397   1.219
 5865TIP3   OH217600   1.662   2.959   4.557
 5865TIP3    H117601   1.689   2.925   4.642
 5865TIP3    H217602   1.726   2.923   4.496
 5866TIP3   OH217603   2.932   1.087   5.035
 5866TIP3    H117604   2.852   1.065   4.988
 5866TIP3    H217605   2.925   1.040   5.118
 5867TIP3   OH217606   3.274   4.977   4.831
 5867TIP3    H117607   3.293   5.063   4.867
 5867TIP3    H217608   3.359   4.945   4.801
 5868TIP3   OH217609   1.492   1.816   1.124
 5868TIP3    H117610   1.520   1.734   1.084
 5868TIP3    H217611   1.559   1.834   1.190
 5869TIP3   OH217612   5.010   1.605   0.512
 5869TIP3    H117613   5.011   1.699   0.494
 5869TIP3    H217614   4.976   1.597   0.601
 5870TIP3   OH217615   0.736   1.946   0.108
 5870TIP3    H117616   0.702   2.034   0.123
 5870TIP3    H217617   0.814   1.959   0.054
 5871TIP3   OH217618   1.872   4.427   4.799
 5871TIP3    H117619   1.865   4.521   4.819
 5871TIP3    H217620   1.947   4.398   4.850
 5872TIP3   OH217621   4.374   3.937   4.294
 5872TIP3    H117622   4.324   3.857   4.286
 5872TIP3    H217623   4.319   3.996   4.346
 5873TIP3   OH217624   4.005   1.717   3.864
 5873TIP3    H117625   4.024   1.777   3.792
 5873TIP3    H217626   3.912   1.697   3.854
 5874TIP3   OH217627   5.753   4.500   1.141
 5874TIP3    H117628   5.744   4.531   1.231
 5874TIP3    H217629   5.848   4.493   1.127
 5875TIP3   OH217630   1.454   2.551   4.122
 5875TIP3    H117631   1.478   2.480   4.181
 5875TIP3    H217632   1.365   2.575   4.148
 5876TIP3   OH217633   5.924   5.379   4.687
 5876TIP3    H117634   5.979   5.303   4.669
 5876TIP3    H217635   5.986   5.452   4.691
 5877TIP3   OH217636   4.336   5.840   1.848
 5877TIP3    H117637   4.269   5.771   1.848
 5877TIP3    H217638   4.296   5.913   1.801
 5878TIP3   OH217639   0.510   0.877   2.316
 5878TIP3    H117640   0.426   0.860   2.359
 5878TIP3    H217641   0.574   0.829   2.369
 5879TIP3   OH217642   0.096   2.959   4.998
 5879TIP3    H117643   0.059   3.018   4.932
 5879TIP3    H217644   0.045   2.977   5.077
 5880TIP3   OH217645   6.023   1.640   4.395
 5880TIP3    H117646   6.093   1.600   4.344
 5880TIP3    H217647   5.944   1.624   4.344
 5881TIP3   OH217648   0.302   2.270   1.348
 5881TIP3    H117649   0.260   2.292   1.432
 5881TIP3    H217650   0.260   2.327   1.284
 5882TIP3   OH217651   1.317   5.673   1.957
 5882TIP3    H117652   1.298   5.642   2.045
 5882TIP3    H217653   1.370   5.604   1.918
 5883TIP3   OH217654   3.022   5.092   2.844
 5883TIP3    H117655   2.983   5.012   2.807
 5883TIP3    H217656   2.958   5.161   2.827
 5884TIP3   OH217657   0.628   2.162   2.260
 5884TIP3    H117658   0.691   2.140   2.191
 5884TIP3    H217659   0.680   2.197   2.331
 5885TIP3   OH217660   0.734   3.813   3.149
 5885TIP3    H117661   0.686   3.863   3.082
 5885TIP3    H217662   0.687   3.830   3.230
 5886TIP3   OH217663   5.944   5.507   2.536
 5886TIP3    H117664   5.999   5.444   2.581
 5886TIP3    H217665   6.006   5.563   2.488
 5887TIP3   OH217666   4.482   4.715   1.662
 5887TIP3    H117667   4.568   4.728   1.703
 5887TIP3    H217668   4.477   4.783   1.595
 5888TIP3   OH217669   2.700   4.066   1.858
 5888TIP3    H117670   2.605   4.070   1.863
 5888TIP3    H217671   2.722   3.979   1.892
 5889TIP3   OH217672   4.501   2.842   4.333
 5889TIP3    H117673   4.457   2.775   4.385
 5889TIP3    H217674   4.438   2.864   4.264
 5890TIP3   OH217675   3.487   0.895   4.840
 5890TIP3    H117676   3.413   0.837   4.855
 5890TIP3    H217677   3.543   0.883   4.917
 5891TIP3   OH217678   1.129   1.274   1.130
 5891TIP3    H117679   1.125   1.272   1.226
 5891TIP3    H217680   1.162   1.361   1.110
 5892TIP3   OH217681   5.656   3.090   0.214
 5892TIP3    H117682   5.604   3.026   0.165
 5892TIP3    H217683   5.603   3.108   0.292
 5893TIP3   OH217684   1.697   5.430   3.762
 5893TIP3    H117685   1.609   5.466   3.770
 5893TIP3    H217686   1.755   5.506   3.770
 5894TIP3   OH217687   2.081   4.191   4.743
 5894TIP3    H117688   1.996   4.148   4.728
 5894TIP3    H217689   2.078   4.219   4.835
 5895TIP3   OH217690   3.155   0.901   1.767
 5895TIP3    H117691   3.148   0.991   1.799
 5895TIP3    H217692   3.108   0.848   1.832
 5896TIP3   OH217693   5.785   0.061   1.594
 5896TIP3    H117694   5.847   0.010   1.646
 5896TIP3    H217695   5.792   0.150   1.628
 5897TIP3   OH217696   5.664   3.511   1.938
 5897TIP3    H117697   5.698   3.599   1.921
 5897TIP3    H217698   5.713   3.454   1.878
 5898TIP3   OH217699   1.264   4.410   1.980
 5898TIP3    H117700   1.207   4.486   1.991
 5898TIP3    H217701   1.228   4.363   1.905
 5899TIP3   OH217702   1.066   2.934   3.828
 5899TIP3    H117703   1.080   3.025   3.857
 5899TIP3    H217704   1.117   2.881   3.890
 5900TIP3   OH217705   1.738   2.242   0.654
 5900TIP3    H117706   1.766   2.183   0.584
 5900TIP3    H217707   1.751   2.192   0.735
 5901TIP3   OH217708   1.561   0.692   1.595
 5901TIP3    H117709   1.480   0.741   1.609
 5901TIP3    H217710   1.630   0.752   1.623
 5902TIP3   OH217711  -0.049   2.705   0.453
 5902TIP3    H117712   0.034   2.676   0.414
 5902TIP3    H217713  -0.111   2.635   0.430
 5903TIP3   OH217714   2.465   1.517   3.169
 5903TIP3    H117715   2.410   1.461   3.223
 5903TIP3    H217716   2.405   1.585   3.138
 5904TIP3   OH217717   5.647   0.335   2.504
 5904TIP3    H117718   5.602   0.279   2.440
 5904TIP3    H217719   5.679   0.274   2.570
 5905TIP3   OH217720   4.104   2.186   4.342
 5905TIP3    H117721   4.108   2.136   4.424
 5905TIP3    H217722   4.030   2.244   4.353
 5906TIP3   OH217723   4.663   1.557   3.675
 5906TIP3    H117724   4.694   1.487   3.733
 5906TIP3    H217725   4.743   1.591   3.635
 5907TIP3   OH217726   4.483   5.734   2.128
 5907TIP3    H117727   4.415   5.666   2.122
 5907TIP3    H217728   4.536   5.709   2.203
 5908TIP3   OH217729   0.699   2.569   2.693
 5908TIP3    H117730   0.793   2.586   2.697
 5908TIP3    H217731   0.667   2.595   2.779
 5909TIP3   OH217732   1.975   4.019   3.539
 5909TIP3    H117733   2.002   3.985   3.624
 5909TIP3    H217734   1.958   4.112   3.554
 5910TIP3   OH217735   4.827   5.252   1.553
 5910TIP3    H117736   4.874   5.246   1.469
 5910TIP3    H217737   4.766   5.179   1.551
 5911TIP3   OH217738   1.496   0.217   4.455
 5911TIP3    H117739   1.460   0.177   4.376
 5911TIP3    H217740   1.590   0.201   4.449
 5912TIP3   OH217741   0.471   3.850   3.624
 5912TIP3    H117742   0.565   3.848   3.610
 5912TIP3    H217743   0.445   3.758   3.620
 5913TIP3   OH217744   5.962   2.557   3.640
 5913TIP3    H117745   5.946   2.514   3.557
 5913TIP3    H217746   5.884   2.539   3.692
 5914TIP3   OH217747   0.817   1.115   3.537
 5914TIP3    H117748   0.835   1.022   3.523
 5914TIP3    H217749   0.800   1.123   3.630
 5915TIP3   OH217750   3.387   1.426   3.034
 5915TIP3    H117751   3.446   1.461   2.967
 5915TIP3    H217752   3.304   1.473   3.019
 5916TIP3   OH217753   2.041   0.023   1.074
 5916TIP3    H117754   2.060   0.067   0.992
 5916TIP3    H217755   2.051   0.091   1.141
 5917TIP3   OH217756   2.714   0.227   4.989
 5917TIP3    H117757   2.687   0.135   5.000
 5917TIP3    H217758   2.679   0.251   4.903
 5918TIP3   OH217759   3.530   2.732   2.137
 5918TIP3    H117760   3.536   2.640   2.163
 5918TIP3    H217761   3.620   2.760   2.125
 5919TIP3   OH217762   1.715   4.176   5.102
 5919TIP3    H117763   1.759   4.239   5.159
 5919TIP3    H217764   1.777   4.103   5.096
 5920TIP3   OH217765   3.897   2.395   3.429
 5920TIP3    H117766   3.966   2.401   3.496
 5920TIP3    H217767   3.854   2.480   3.430
 5921TIP3   OH217768   0.917   4.029   0.052
 5921TIP3    H117769   0.932   4.103  -0.007
 5921TIP3    H217770   0.859   4.063   0.119
 5922TIP3   OH217771   3.231   2.119   4.057
 5922TIP3    H117772   3.213   2.213   4.058
 5922TIP3    H217773   3.153   2.080   4.019
 5923TIP3   OH217774   1.819   3.167   0.133
 5923TIP3    H117775   1.795   3.259   0.149
 5923TIP3    H217776   1.741   3.118   0.159
 5924TIP3   OH217777   2.002   4.975   1.700
 5924TIP3    H117778   1.917   4.975   1.656
 5924TIP3    H217779   1.997   5.050   1.760
 5925TIP3   OH217780   1.402   5.452   0.707
 5925TIP3    H117781   1.331   5.418   0.652
 5925TIP3    H217782   1.378   5.544   0.722
 5926TIP3   OH217783   4.972   0.444   0.418
 5926TIP3    H117784   5.031   0.448   0.343
 5926TIP3    H217785   4.946   0.535   0.433
 5927TIP3   OH217786   0.487   0.559   5.154
 5927TIP3    H117787   0.556   0.511   5.108
 5927TIP3    H217788   0.406   0.514   5.129
 5928TIP3   OH217789   6.052   3.233   3.177
 5928TIP3    H117790   5.966   3.204   3.206
 5928TIP3    H217791   6.060   3.199   3.087
 5929TIP3   OH217792   0.583   5.052   5.143
 5929TIP3    H117793   0.596   5.135   5.096
 5929TIP3    H217794   0.500   5.018   5.108
 5930TIP3   OH217795   1.138   4.772   2.019
 5930TIP3    H117796   1.069   4.830   2.051
 5930TIP3    H217797   1.140   4.700   2.082
 5931TIP3   OH217798   3.584   5.697   2.200
 5931TIP3    H117799   3.668   5.657   2.177
 5931TIP3    H217800   3.525   5.674   2.128
 5932TIP3   OH217801   4.667   1.424   0.887
 5932TIP3    H117802   4.687   1.331   0.876
 5932TIP3    H217803   4.580   1.425   0.927
 5933TIP3   OH217804   2.398   3.763   3.002
 5933TIP3    H117805   2.475   3.706   2.996
 5933TIP3    H217806   2.434   3.849   3.022
 5934TIP3   OH217807   3.492   0.596   2.602
 5934TIP3    H117808   3.500   0.535   2.528
 5934TIP3    H217809   3.398   0.613   2.610
 5935TIP3   OH217810   4.117   5.698   1.748
 5935TIP3    H117811   4.085   5.708   1.659
 5935TIP3    H217812   4.173   5.621   1.745
 5936TIP3   OH217813   0.532   2.948   3.488
 5936TIP3    H117814   0.462   2.985   3.434
 5936TIP3    H217815   0.606   2.938   3.428
 5937TIP3   OH217816   1.836   5.952   0.737
 5937TIP3    H117817   1.792   6.035   0.754
 5937TIP3    H217818   1.772   5.885   0.763
 5938TIP3   OH217819   2.914   5.636   4.145
 5938TIP3    H117820   2.851   5.576   4.107
 5938TIP3    H217821   2.977   5.580   4.191
 5939TIP3   OH217822   3.959   4.525   2.382
 5939TIP3    H117823   3.880   4.532   2.329
 5939TIP3    H217824   3.999   4.612   2.377
 5940TIP3   OH217825   5.223   4.936   0.281
 5940TIP3    H117826   5.251   4.929   0.189
 5940TIP3    H217827   5.302   4.916   0.331
 5941TIP3   OH217828   1.520   2.401   0.891
 5941TIP3    H117829   1.615   2.393   0.906
 5941TIP3    H217830   1.502   2.341   0.818
 5942TIP3   OH217831   2.983   1.199   4.289
 5942TIP3    H117832   2.893   1.231   4.283
 5942TIP3    H217833   3.021   1.246   4.364
 5943TIP3   OH217834   4.619   2.517   2.473
 5943TIP3    H117835   4.542   2.462   2.482
 5943TIP3    H217836   4.635   2.521   2.379
 5944TIP3   OH217837   0.207   2.136   1.032
 5944TIP3    H117838   0.255   2.215   1.009
 5944TIP3    H217839   0.157   2.159   1.110
 5945TIP3   OH217840   2.489   3.082   0.441
 5945TIP3    H117841   2.398   3.095   0.413
 5945TIP3    H217842   2.510   2.993   0.415
 5946TIP3   OH217843   3.907   3.297   4.382
 5946TIP3    H117844   3.905   3.274   4.475
 5946TIP3    H217845   3.818   3.325   4.362
 5947TIP3   OH217846   2.024   5.505   4.504
 5947TIP3    H117847   2.005   5.581   4.559
 5947TIP3    H217848   1.962   5.439   4.532
 5948TIP3   OH217849   4.674   4.451   3.409
 5948TIP3    H117850   4.591   4.406   3.426
 5948TIP3    H217851   4.669   4.476   3.317
 5949TIP3   OH217852   5.743   1.908   5.176
 5949TIP3    H117853   5.730   1.962   5.098
 5949TIP3    H217854   5.836   1.886   5.175
 5950TIP3   OH217855   5.148   5.665   1.378
 5950TIP3    H117856   5.080   5.601   1.400
 5950TIP3    H217857   5.230   5.617   1.391
 5951TIP3   OH217858   5.041   5.194   2.906
 5951TIP3    H117859   4.975   5.166   2.969
 5951TIP3    H217860   5.125   5.168   2.946
 5952TIP3   OH217861   1.032   4.343   1.508
 5952TIP3    H117862   0.982   4.289   1.446
 5952TIP3    H217863   1.109   4.370   1.458
 5953TIP3   OH217864   5.320   0.923   4.479
 5953TIP3    H117865   5.289   0.950   4.393
 5953TIP3    H217866   5.415   0.911   4.467
 5954TIP3   OH217867   6.203   2.319   3.225
 5954TIP3    H117868   6.274   2.384   3.226
 5954TIP3    H217869   6.187   2.301   3.318
 5955TIP3   OH217870   2.361   2.823   2.524
 5955TIP3    H117871   2.289   2.789   2.470
 5955TIP3    H217872   2.326   2.904   2.562
 5956TIP3   OH217873   1.707   0.654   3.384
 5956TIP3    H117874   1.758   0.685   3.459
 5956TIP3    H217875   1.692   0.561   3.402
 5957TIP3   OH217876   1.841   0.011   4.152
 5957TIP3    H117877   1.936   0.017   4.159
 5957TIP3    H217878   1.809   0.028   4.241
 5958TIP3   OH217879   3.991   3.082   0.391
 5958TIP3    H117880   3.999   3.120   0.303
 5958TIP3    H217881   4.069   3.114   0.437
 5959TIP3   OH217882   2.055   2.901   0.518
 5959TIP3    H117883   2.098   2.942   0.592
 5959TIP3    H217884   2.078   2.956   0.443
 5960TIP3   OH217885   4.012   1.557   2.124
 5960TIP3    H117886   4.031   1.497   2.052
 5960TIP3    H217887   4.010   1.501   2.202
 5961TIP3   OH217888   2.270   3.594   3.419
 5961TIP3    H117889   2.219   3.673   3.400
 5961TIP3    H217890   2.257   3.539   3.342
 5962TIP3   OH217891   2.071   3.859   2.280
 5962TIP3    H117892   2.163   3.885   2.271
 5962TIP3    H217893   2.036   3.863   2.192
 5963TIP3   OH217894   3.619   2.778   2.987
 5963TIP3    H117895   3.557   2.807   2.920
 5963TIP3    H217896   3.657   2.698   2.950
 5964TIP3   OH217897   4.696   0.844   0.094
 5964TIP3    H117898   4.632   0.775   0.108
 5964TIP3    H217899   4.664   0.918   0.146
 5965TIP3   OH217900   5.177   2.679   3.058
 5965TIP3    H117901   5.171   2.590   3.025
 5965TIP3    H217902   5.118   2.681   3.133
 5966TIP3   OH217903   2.459   4.405   3.588
 5966TIP3    H117904   2.493   4.326   3.545
 5966TIP3    H217905   2.480   4.392   3.681
 5967TIP3   OH217906   2.636   2.115   2.241
 5967TIP3    H117907   2.694   2.191   2.228
 5967TIP3    H217908   2.597   2.099   2.155
 5968TIP3   OH217909   3.898   0.956   3.679
 5968TIP3    H117910   3.893   0.982   3.587
 5968TIP3    H217911   3.952   0.877   3.678
 5969TIP3   OH217912   1.305   2.629   0.060
 5969TIP3    H117913   1.266   2.704   0.014
 5969TIP3    H217914   1.393   2.622   0.023
 5970TIP3   OH217915   3.505   5.460   1.294
 5970TIP3    H117916   3.487   5.371   1.324
 5970TIP3    H217917   3.601   5.466   1.294
 5971TIP3   OH217918   1.773   5.511   1.582
 5971TIP3    H117919   1.750   5.419   1.573
 5971TIP3    H217920   1.781   5.524   1.676
 5972TIP3   OH217921   4.667   0.024   0.416
 5972TIP3    H117922   4.575   0.020   0.445
 5972TIP3    H217923   4.689   0.117   0.419
 5973TIP3   OH217924   2.072   0.706   1.625
 5973TIP3    H117925   2.138   0.718   1.557
 5973TIP3    H217926   2.100   0.764   1.696
 5974TIP3   OH217927   3.462   2.311   2.041
 5974TIP3    H117928   3.490   2.220   2.037
 5974TIP3    H217929   3.508   2.354   1.968
 5975TIP3   OH217930   1.072   3.938   1.502
 5975TIP3    H117931   1.162   3.948   1.472
 5975TIP3    H217932   1.066   3.997   1.578
 5976TIP3   OH217933   2.106   5.627   2.218
 5976TIP3    H117934   2.118   5.614   2.124
 5976TIP3    H217935   2.196   5.631   2.253
 5977TIP3   OH217936   2.014   0.630   2.148
 5977TIP3    H117937   2.106   0.622   2.174
 5977TIP3    H217938   1.974   0.547   2.174
 5978TIP3   OH217939   4.630   3.404   0.640
 5978TIP3    H117940   4.687   3.338   0.602
 5978TIP3    H217941   4.690   3.473   0.670
 5979TIP3   OH217942   3.481   3.318   0.934
 5979TIP3    H117943   3.530   3.398   0.958
 5979TIP3    H217944   3.508   3.253   0.999
 5980TIP3   OH217945   1.372   4.403   5.179
 5980TIP3    H117946   1.278   4.392   5.188
 5980TIP3    H217947   1.392   4.369   5.092
 5981TIP3   OH217948   3.761   4.426   1.028
 5981TIP3    H117949   3.790   4.459   0.943
 5981TIP3    H217950   3.824   4.357   1.050
 5982TIP3   OH217951   6.267   4.725   3.745
 5982TIP3    H117952   6.347   4.674   3.729
 5982TIP3    H217953   6.283   4.807   3.699
 5983TIP3   OH217954   5.401   4.845   0.076
 5983TIP3    H117955   5.477   4.792   0.101
 5983TIP3    H217956   5.339   4.782   0.040
 5984TIP3   OH217957   4.955   2.999   0.959
 5984TIP3    H117958   4.976   2.970   1.048
 5984TIP3    H217959   4.958   3.095   0.964
 5985TIP3   OH217960   4.540   0.782   2.479
 5985TIP3    H117961   4.529   0.853   2.416
 5985TIP3    H217962   4.576   0.824   2.557
 5986TIP3   OH217963   3.516   5.316   0.175
 5986TIP3    H117964   3.507   5.412   0.175
 5986TIP3    H217965   3.480   5.289   0.091
 5987TIP3   OH217966   1.649   1.055   4.992
 5987TIP3    H117967   1.605   1.021   4.914
 5987TIP3    H217968   1.577   1.079   5.051
 5988TIP3   OH217969   3.465  -0.004   4.640
 5988TIP3    H117970   3.552   0.034   4.648
 5988TIP3    H217971   3.409   0.055   4.691
 5989TIP3   OH217972   4.278   2.500   1.142
 5989TIP3    H117973   4.365   2.529   1.115
 5989TIP3    H217974   4.232   2.580   1.166
 5990TIP3   OH217975   3.319   0.716   2.357
 5990TIP3    H117976   3.267   0.695   2.435
 5990TIP3    H217977   3.375   0.639   2.344
 5991TIP3   OH217978   4.734   2.584   2.711
 5991TIP3    H117979   4.737   2.530   2.632
 5991TIP3    H217980   4.817   2.568   2.755
 5992TIP3   OH217981   4.997   1.310   4.352
 5992TIP3    H117982   5.021   1.249   4.422
 5992TIP3    H217983   4.920   1.356   4.386
 5993TIP3   OH217984   0.385   3.884   4.278
 5993TIP3    H117985   0.433   3.852   4.354
 5993TIP3    H217986   0.443   3.949   4.239
 5994TIP3   OH217987   0.845   5.012   1.818
 5994TIP3    H117988   0.796   5.068   1.878
 5994TIP3    H217989   0.833   4.923   1.852
 5995TIP3   OH217990   4.538   3.530   2.384
 5995TIP3    H117991   4.542   3.607   2.328
 5995TIP3    H217992   4.465   3.479   2.349
 5996TIP3   OH217993   2.582   4.472   0.261
 5996TIP3    H117994   2.558   4.411   0.191
 5996TIP3    H217995   2.651   4.427   0.309
 5997TIP3   OH217996   4.613   5.126   3.948
 5997TIP3    H117997   4.686   5.136   4.009
 5997TIP3    H217998   4.648   5.072   3.877
 5998TIP3   OH217999   3.415   2.808   1.214
 5998TIP3    H118000   3.499   2.763   1.226
 5998TIP3    H218001   3.354   2.738   1.192
 5999TIP3   OH218002   5.695   2.097   3.941
 5999TIP3    H118003   5.620   2.090   3.881
 5999TIP3    H218004   5.656   2.088   4.028
 6000TIP3   OH218005   4.634   3.154   4.896
 6000TIP3    H118006   4.729   3.147   4.911
 6000TIP3    H218007   4.602   3.064   4.900
 6001TIP3   OH218008   2.653   3.159   1.010
 6001TIP3    H118009   2.661   3.246   0.971
 6001TIP3    H218010   2.738   3.143   1.051
 6002TIP3   OH218011   4.520   2.961   3.524
 6002TIP3    H118012   4.504   3.002   3.439
 6002TIP3    H218013   4.612   2.935   3.521
 6003TIP3   OH218014   4.353   0.246   5.167
 6003TIP3    H118015   4.341   0.188   5.092
 6003TIP3    H218016   4.393   0.190   5.234
 6004TIP3   OH218017   0.676   3.224   1.728
 6004TIP3    H118018   0.697   3.133   1.750
 6004TIP3    H218019   0.608   3.249   1.791
 6005TIP3   OH218020   5.222   2.700   4.612
 6005TIP3    H118021   5.206   2.781   4.563
 6005TIP3    H218022   5.315   2.704   4.636
 6006TIP3   OH218023   5.124   5.117   1.134
 6006TIP3    H118024   5.137   5.094   1.042
 6006TIP3    H218025   5.194   5.070   1.180
 6007TIP3   OH218026   1.023   4.674   3.073
 6007TIP3    H118027   1.021   4.585   3.108
 6007TIP3    H218028   1.102   4.677   3.019
 6008TIP3   OH218029   3.375   2.470   2.982
 6008TIP3    H118030   3.333   2.504   2.903
 6008TIP3    H218031   3.467   2.458   2.956
 6009TIP3   OH218032   0.063   5.909   3.615
 6009TIP3    H118033  -0.013   5.852   3.606
 6009TIP3    H218034   0.066   5.931   3.708
 6010TIP3   OH218035   0.318   5.181   3.912
 6010TIP3    H118036   0.261   5.104   3.913
 6010TIP3    H218037   0.373   5.170   3.990
 6011TIP3   OH218038   3.600   5.685   4.010
 6011TIP3    H118039   3.612   5.627   4.086
 6011TIP3    H218040   3.509   5.714   4.017
 6012TIP3   OH218041   5.434   3.195   1.539
 6012TIP3    H118042   5.483   3.192   1.457
 6012TIP3    H218043   5.434   3.105   1.570
 6013TIP3   OH218044   1.815   1.628   4.090
 6013TIP3    H118045   1.746   1.568   4.116
 6013TIP3    H218046   1.895   1.575   4.090
 6014TIP3   OH218047   0.889   2.565   3.448
 6014TIP3    H118048   0.827   2.549   3.520
 6014TIP3    H218049   0.975   2.564   3.490
 6015TIP3   OH218050   2.349   3.442   2.138
 6015TIP3    H118051   2.386   3.355   2.128
 6015TIP3    H218052   2.404   3.484   2.204
 6016TIP3   OH218053   5.162   2.792   2.645
 6016TIP3    H118054   5.178   2.698   2.640
 6016TIP3    H218055   5.206   2.819   2.726
 6017TIP3   OH218056   0.140   5.184   3.415
 6017TIP3    H118057   0.090   5.255   3.453
 6017TIP3    H218058   0.231   5.207   3.431
 6018TIP3   OH218059   5.039   0.527   5.110
 6018TIP3    H118060   5.066   0.603   5.162
 6018TIP3    H218061   5.098   0.527   5.035
 6019TIP3   OH218062   3.656   3.193   3.787
 6019TIP3    H118063   3.564   3.178   3.809
 6019TIP3    H218064   3.683   3.115   3.739
 6020TIP3   OH218065   5.344   4.956   2.658
 6020TIP3    H118066   5.346   4.977   2.751
 6020TIP3    H218067   5.268   4.900   2.647
 6021TIP3   OH218068   0.545   4.122   1.549
 6021TIP3    H118069   0.497   4.146   1.629
 6021TIP3    H218070   0.599   4.198   1.529
 6022TIP3   OH218071   1.948   3.883   2.004
 6022TIP3    H118072   1.974   3.833   1.926
 6022TIP3    H218073   1.934   3.972   1.972
 6023TIP3   OH218074   0.724   3.141   0.335
 6023TIP3    H118075   0.743   3.202   0.265
 6023TIP3    H218076   0.805   3.136   0.386
 6024TIP3   OH218077   5.472   3.483   5.096
 6024TIP3    H118078   5.562   3.506   5.121
 6024TIP3    H218079   5.477   3.466   5.002
 6025TIP3   OH218080   3.392   3.349   5.000
 6025TIP3    H118081   3.470   3.306   4.966
 6025TIP3    H218082   3.413   3.442   4.998
 6026TIP3   OH218083   2.696   5.668   4.327
 6026TIP3    H118084   2.643   5.627   4.258
 6026TIP3    H218085   2.774   5.700   4.282
 6027TIP3   OH218086   2.337   2.466   3.174
 6027TIP3    H118087   2.288   2.459   3.256
 6027TIP3    H218088   2.273   2.444   3.106
 6028TIP3   OH218089   3.164   2.960   2.006
 6028TIP3    H118090   3.228   2.889   2.013
 6028TIP3    H218091   3.132   2.955   1.916
 6029TIP3   OH218092   5.162   0.659   4.242
 6029TIP3    H118093   5.115   0.589   4.198
 6029TIP3    H218094   5.106   0.736   4.231
 6030TIP3   OH218095   4.895   3.768   1.841
 6030TIP3    H118096   4.836   3.693   1.829
 6030TIP3    H218097   4.983   3.731   1.833
 6031TIP3   OH218098   4.660   4.521   1.134
 6031TIP3    H118099   4.587   4.493   1.079
 6031TIP3    H218100   4.675   4.446   1.192
 6032TIP3   OH218101   5.222   4.602   5.048
 6032TIP3    H118102   5.241   4.525   4.995
 6032TIP3    H218103   5.130   4.593   5.072
 6033TIP3   OH218104   5.585   4.689   2.635
 6033TIP3    H118105   5.548   4.753   2.575
 6033TIP3    H218106   5.543   4.707   2.719
 6034TIP3   OH218107   5.510   5.306   2.412
 6034TIP3    H118108   5.550   5.220   2.397
 6034TIP3    H218109   5.582   5.368   2.404
 6035TIP3   OH218110   2.565   0.222   1.688
 6035TIP3    H118111   2.532   0.132   1.685
 6035TIP3    H218112   2.619   0.225   1.767
 6036TIP3   OH218113   1.773   0.216   4.349
 6036TIP3    H118114   1.744   0.299   4.312
 6036TIP3    H218115   1.864   0.231   4.374
 6037TIP3   OH218116   0.714   5.332   2.489
 6037TIP3    H118117   0.792   5.278   2.480
 6037TIP3    H218118   0.648   5.287   2.435
 6038TIP3   OH218119   5.992   3.094   5.089
 6038TIP3    H118120   5.938   3.015   5.076
 6038TIP3    H218121   5.964   3.128   5.174
 6039TIP3   OH218122   1.819   5.756   3.203
 6039TIP3    H118123   1.846   5.687   3.263
 6039TIP3    H218124   1.882   5.752   3.131
 6040TIP3   OH218125   5.282   4.435   4.256
 6040TIP3    H118126   5.373   4.457   4.236
 6040TIP3    H218127   5.281   4.421   4.351
 6041TIP3   OH218128   3.025   3.516   4.536
 6041TIP3    H118129   3.044   3.544   4.446
 6041TIP3    H218130   2.985   3.593   4.577
 6042TIP3   OH218131   5.759   0.024   2.005
 6042TIP3    H118132   5.707  -0.008   2.079
 6042TIP3    H218133   5.804   0.102   2.039
 6043TIP3   OH218134   3.960   1.335   2.281
 6043TIP3    H118135   3.949   1.278   2.205
 6043TIP3    H218136   3.945   1.278   2.357
 6044TIP3   OH218137   1.668   1.297   1.522
 6044TIP3    H118138   1.690   1.298   1.428
 6044TIP3    H218139   1.575   1.275   1.525
 6045TIP3   OH218140   4.530   2.611   0.653
 6045TIP3    H118141   4.446   2.578   0.621
 6045TIP3    H218142   4.508   2.657   0.734
 6046TIP3   OH218143  -0.007   3.328   5.135
 6046TIP3    H118144  -0.047   3.407   5.097
 6046TIP3    H218145   0.085   3.333   5.109
 6047TIP3   OH218146   2.508   2.510   4.151
 6047TIP3    H118147   2.513   2.539   4.060
 6047TIP3    H218148   2.547   2.423   4.151
 6048TIP3   OH218149   6.000   0.875   2.901
 6048TIP3    H118150   6.050   0.836   2.973
 6048TIP3    H218151   5.948   0.802   2.866
 6049TIP3   OH218152   0.271   2.311   2.011
 6049TIP3    H118153   0.230   2.234   1.970
 6049TIP3    H218154   0.306   2.361   1.937
 6050TIP3   OH218155   4.611   4.723   3.595
 6050TIP3    H118156   4.699   4.730   3.557
 6050TIP3    H218157   4.622   4.664   3.670
 6051TIP3   OH218158   1.627   0.430   3.072
 6051TIP3    H118159   1.690   0.397   3.008
 6051TIP3    H218160   1.670   0.417   3.157
 6052TIP3   OH218161   3.933   1.264   3.244
 6052TIP3    H118162   3.942   1.215   3.162
 6052TIP3    H218163   4.012   1.242   3.294
 6053TIP3   OH218164   0.302   5.268   2.935
 6053TIP3    H118165   0.375   5.286   2.876
 6053TIP3    H218166   0.343   5.259   3.022
 6054TIP3   OH218167   5.304   0.786   3.459
 6054TIP3    H118168   5.268   0.837   3.386
 6054TIP3    H218169   5.250   0.809   3.534
 6055TIP3   OH218170   0.042   4.398   2.923
 6055TIP3    H118171   0.019   4.474   2.977
 6055TIP3    H218172   0.048   4.432   2.834
 6056TIP3   OH218173   0.672   2.948   0.769
 6056TIP3    H118174   0.636   2.862   0.748
 6056TIP3    H218175   0.618   3.009   0.719
 6057TIP3   OH218176   5.280   3.901   2.741
 6057TIP3    H118177   5.280   3.993   2.714
 6057TIP3    H218178   5.241   3.901   2.828
 6058TIP3   OH218179   0.456   1.916   1.597
 6058TIP3    H118180   0.426   1.952   1.514
 6058TIP3    H218181   0.436   1.823   1.593
 6059TIP3   OH218182   0.120   2.898   4.295
 6059TIP3    H118183   0.097   2.882   4.204
 6059TIP3    H218184   0.037   2.897   4.342
 6060TIP3   OH218185   3.795   0.850   4.045
 6060TIP3    H118186   3.872   0.853   4.103
 6060TIP3    H218187   3.721   0.843   4.104
 6061TIP3   OH218188   5.044   5.660   0.419
 6061TIP3    H118189   5.095   5.740   0.411
 6061TIP3    H218190   5.024   5.635   0.328
 6062TIP3   OH218191   2.776   0.164   3.508
 6062TIP3    H118192   2.740   0.078   3.533
 6062TIP3    H218193   2.796   0.156   3.415
 6063TIP3   OH218194   0.520   1.053   0.824
 6063TIP3    H118195   0.585   1.108   0.780
 6063TIP3    H218196   0.470   1.113   0.879
 6064TIP3   OH218197   4.229   3.155   0.861
 6064TIP3    H118198   4.221   3.080   0.920
 6064TIP3    H218199   4.223   3.232   0.917
 6065TIP3   OH218200   4.492   3.082   3.995
 6065TIP3    H118201   4.476   3.153   4.057
 6065TIP3    H218202   4.477   3.122   3.909
 6066TIP3   OH218203   1.391   0.895   2.375
 6066TIP3    H118204   1.360   0.913   2.464
 6066TIP3    H218205   1.449   0.819   2.384
 6067TIP3   OH218206   3.640   3.054   2.128
 6067TIP3    H118207   3.721   3.098   2.154
 6067TIP3    H218208   3.573   3.092   2.186
 6068TIP3   OH218209   2.775   5.599   3.846
 6068TIP3    H118210   2.739   5.514   3.870
 6068TIP3    H218211   2.698   5.654   3.831
 6069TIP3   OH218212   2.597   4.266   1.137
 6069TIP3    H118213   2.541   4.189   1.133
 6069TIP3    H218214   2.686   4.231   1.141
 6070TIP3   OH218215   0.641   0.044   1.519
 6070TIP3    H118216   0.637   0.119   1.460
 6070TIP3    H218217   0.562   0.050   1.572
 6071TIP3   OH218218   1.815   1.624   2.314
 6071TIP3    H118219   1.799   1.537   2.351
 6071TIP3    H218220   1.832   1.607   2.221
 6072TIP3   OH218221   2.971   3.984   0.495
 6072TIP3    H118222   2.907   3.915   0.480
 6072TIP3    H218223   2.952   4.015   0.584
 6073TIP3   OH218224   2.260   6.011   2.542
 6073TIP3    H118225   2.251   5.977   2.452
 6073TIP3    H218226   2.354   6.024   2.554
 6074TIP3   OH218227   1.867   4.694   4.857
 6074TIP3    H118228   1.867   4.784   4.826
 6074TIP3    H218229   1.921   4.695   4.936
 6075TIP3   OH218230   3.755   2.613   3.823
 6075TIP3    H118231   3.691   2.544   3.843
 6075TIP3    H218232   3.840   2.568   3.825
 6076TIP3   OH218233   5.392   3.593   1.795
 6076TIP3    H118234   5.364   3.671   1.747
 6076TIP3    H218235   5.485   3.607   1.811
 6077TIP3   OH218236   2.111   0.579   4.994
 6077TIP3    H118237   2.084   0.512   5.057
 6077TIP3    H218238   2.076   0.549   4.910
 6078TIP3   OH218239   0.112   5.177   2.176
 6078TIP3    H118240   0.139   5.208   2.090
 6078TIP3    H218241   0.017   5.169   2.170
 6079TIP3   OH218242   1.247   5.214   3.220
 6079TIP3    H118243   1.306   5.289   3.212
 6079TIP3    H218244   1.235   5.204   3.314
 6080TIP3   OH218245   2.095   2.339   0.723
 6080TIP3    H118246   2.132   2.427   0.718
 6080TIP3    H218247   2.000   2.352   0.718
 6081TIP3   OH218248   2.445   4.374   2.929
 6081TIP3    H118249   2.405   4.432   2.864
 6081TIP3    H218250   2.383   4.373   3.002
 6082TIP3   OH218251   2.278   1.212   0.133
 6082TIP3    H118252   2.316   1.260   0.060
 6082TIP3    H218253   2.347   1.152   0.162
 6083TIP3   OH218254   1.768   0.907   1.514
 6083TIP3    H118255   1.840   0.968   1.529
 6083TIP3    H218256   1.809   0.830   1.475
 6084TIP3   OH218257   1.548   4.814   4.426
 6084TIP3    H118258   1.581   4.799   4.337
 6084TIP3    H218259   1.594   4.892   4.456
 6085TIP3   OH218260   5.563   1.549   1.093
 6085TIP3    H118261   5.645   1.522   1.052
 6085TIP3    H218262   5.550   1.639   1.064
 6086TIP3   OH218263   2.860   1.375   0.113
 6086TIP3    H118264   2.866   1.288   0.074
 6086TIP3    H218265   2.792   1.419   0.063
 6087TIP3   OH218266   3.494   4.552   3.862
 6087TIP3    H118267   3.504   4.645   3.883
 6087TIP3    H218268   3.425   4.550   3.795
 6088TIP3   OH218269   4.865   2.030   1.930
 6088TIP3    H118270   4.943   1.975   1.930
 6088TIP3    H218271   4.799   1.979   1.883
 6089TIP3   OH218272   4.565   4.824   3.987
 6089TIP3    H118273   4.495   4.790   3.931
 6089TIP3    H218274   4.535   4.911   4.013
 6090TIP3   OH218275   0.815   1.720   0.933
 6090TIP3    H118276   0.859   1.789   0.883
 6090TIP3    H218277   0.753   1.767   0.989
 6091TIP3   OH218278   0.919   3.017   1.778
 6091TIP3    H118279   0.834   2.975   1.763
 6091TIP3    H218280   0.978   2.975   1.715
 6092TIP3   OH218281   3.033   3.417   1.906
 6092TIP3    H118282   3.014   3.325   1.887
 6092TIP3    H218283   3.065   3.452   1.823
 6093TIP3   OH218284   1.855   0.138   0.206
 6093TIP3    H118285   1.906   0.062   0.231
 6093TIP3    H218286   1.781   0.138   0.267
 6094TIP3   OH218287   4.150   1.295   3.410
 6094TIP3    H118288   4.185   1.257   3.490
 6094TIP3    H218289   4.097   1.369   3.439
 6095TIP3   OH218290   5.285   4.378   4.903
 6095TIP3    H118291   5.244   4.346   4.823
 6095TIP3    H218292   5.275   4.306   4.965
 6096TIP3   OH218293   2.107   1.310   4.772
 6096TIP3    H118294   2.155   1.259   4.706
 6096TIP3    H218295   2.094   1.249   4.845
 6097TIP3   OH218296   2.541   4.733   4.708
 6097TIP3    H118297   2.624   4.719   4.753
 6097TIP3    H218298   2.475   4.706   4.772
 6098TIP3   OH218299   2.349   3.506   1.167
 6098TIP3    H118300   2.360   3.572   1.236
 6098TIP3    H218301   2.423   3.447   1.180
 6099TIP3   OH218302   5.884   0.647   1.028
 6099TIP3    H118303   5.926   0.729   1.054
 6099TIP3    H218304   5.811   0.674   0.973
 6100TIP3   OH218305   5.228   0.475   2.825
 6100TIP3    H118306   5.269   0.394   2.794
 6100TIP3    H218307   5.233   0.469   2.921
 6101TIP3   OH218308   3.284   1.065   4.432
 6101TIP3    H118309   3.303   1.020   4.514
 6101TIP3    H218310   3.247   1.149   4.459
 6102TIP3   OH218311   1.840   5.574   0.695
 6102TIP3    H118312   1.834   5.625   0.614
 6102TIP3    H218313   1.819   5.636   0.764
 6103TIP3   OH218314   2.319   5.784   0.075
 6103TIP3    H118315   2.242   5.729   0.090
 6103TIP3    H218316   2.329   5.785  -0.021
 6104TIP3   OH218317   5.980   3.907   3.142
 6104TIP3    H118318   5.914   3.943   3.082
 6104TIP3    H218319   6.040   3.980   3.158
 6105TIP3   OH218320   1.781   3.411   4.230
 6105TIP3    H118321   1.829   3.368   4.159
 6105TIP3    H218322   1.794   3.355   4.306
 6106TIP3   OH218323   5.479   4.458   1.326
 6106TIP3    H118324   5.493   4.482   1.417
 6106TIP3    H218325   5.538   4.516   1.277
 6107TIP3   OH218326   4.629   5.549   2.577
 6107TIP3    H118327   4.687   5.619   2.609
 6107TIP3    H218328   4.621   5.489   2.651
 6108TIP3   OH218329   5.912   5.215   0.033
 6108TIP3    H118330   5.942   5.305   0.021
 6108TIP3    H218331   5.980   5.175   0.087
 6109TIP3   OH218332   0.352   5.539   1.507
 6109TIP3    H118333   0.334   5.562   1.416
 6109TIP3    H218334   0.412   5.464   1.501
 6110TIP3   OH218335   0.762   5.095  -0.012
 6110TIP3    H118336   0.695   5.054   0.043
 6110TIP3    H218337   0.740   5.067  -0.101
 6111TIP3   OH218338   3.681   2.088   4.987
 6111TIP3    H118339   3.765   2.057   5.019
 6111TIP3    H218340   3.669   2.172   5.031
 6112TIP3   OH218341   0.590   2.942   4.494
 6112TIP3    H118342   0.565   3.022   4.539
 6112TIP3    H218343   0.576   2.960   4.402
 6113TIP3   OH218344   4.360   4.119   2.599
 6113TIP3    H118345   4.317   4.165   2.670
 6113TIP3    H218346   4.289   4.089   2.542
 6114TIP3   OH218347   0.796   0.018   2.229
 6114TIP3    H118348   0.833   0.101   2.260
 6114TIP3    H218349   0.849  -0.005   2.153
 6115TIP3   OH218350   3.383   2.212   3.109
 6115TIP3    H118351   3.344   2.267   3.177
 6115TIP3    H218352   3.414   2.273   3.043
 6116TIP3   OH218353   4.875   2.286   2.679
 6116TIP3    H118354   4.790   2.282   2.722
 6116TIP3    H218355   4.854   2.276   2.586
 6117TIP3   OH218356   2.595   2.298   1.921
 6117TIP3    H118357   2.675   2.250   1.943
 6117TIP3    H218358   2.598   2.377   1.974
 6118TIP3   OH218359   3.553   0.863   4.180
 6118TIP3    H118360   3.514   0.776   4.167
 6118TIP3    H218361   3.480   0.923   4.172
 6119TIP3   OH218362   1.129   0.149   0.508
 6119TIP3    H118363   1.164   0.113   0.590
 6119TIP3    H218364   1.182   0.227   0.492
 6120TIP3   OH218365   3.126   3.032   3.118
 6120TIP3    H118366   3.047   2.988   3.150
 6120TIP3    H218367   3.102   3.124   3.112
 6121TIP3   OH218368   1.848   2.020   1.981
 6121TIP3    H118369   1.884   2.108   1.995
 6121TIP3    H218370   1.884   1.993   1.896
 6122TIP3   OH218371   4.730   2.765   0.505
 6122TIP3    H118372   4.749   2.827   0.575
 6122TIP3    H218373   4.691   2.690   0.549
 6123TIP3   OH218374   0.989   1.630   0.263
 6123TIP3    H118375   1.025   1.718   0.265
 6123TIP3    H218376   0.908   1.635   0.314
 6124TIP3   OH218377   5.434   4.737   2.866
 6124TIP3    H118378   5.418   4.809   2.927
 6124TIP3    H218379   5.365   4.674   2.885
 6125TIP3   OH218380   3.927   3.424   3.109
 6125TIP3    H118381   3.982   3.346   3.123
 6125TIP3    H218382   3.843   3.401   3.149
 6126TIP3   OH218383   4.853   0.345   2.418
 6126TIP3    H118384   4.892   0.429   2.392
 6126TIP3    H218385   4.786   0.369   2.482
 6127TIP3   OH218386   0.858   3.576   3.941
 6127TIP3    H118387   0.768   3.556   3.917
 6127TIP3    H218388   0.885   3.644   3.879
 6128TIP3   OH218389   2.269   3.963   3.268
 6128TIP3    H118390   2.282   3.991   3.177
 6128TIP3    H218391   2.350   3.920   3.292
 6129TIP3   OH218392   2.599   5.068   1.561
 6129TIP3    H118393   2.529   5.072   1.626
 6129TIP3    H218394   2.566   5.118   1.486
 6130TIP3   OH218395   3.624   3.994   5.169
 6130TIP3    H118396   3.534   4.009   5.197
 6130TIP3    H218397   3.631   4.037   5.084
 6131TIP3   OH218398   5.360   2.767   4.307
 6131TIP3    H118399   5.430   2.730   4.361
 6131TIP3    H218400   5.406   2.816   4.239
 6132TIP3   OH218401   3.873   0.336   1.277
 6132TIP3    H118402   3.900   0.252   1.313
 6132TIP3    H218403   3.784   0.348   1.310
 6133TIP3   OH218404   2.453   3.956   3.586
 6133TIP3    H118405   2.529   3.945   3.645
 6133TIP3    H218406   2.396   4.018   3.633
 6134TIP3   OH218407   5.848   0.082   3.827
 6134TIP3    H118408   5.760   0.087   3.864
 6134TIP3    H218409   5.865   0.171   3.794
 6135TIP3   OH218410   4.564   2.802   2.609
 6135TIP3    H118411   4.531   2.742   2.542
 6135TIP3    H218412   4.637   2.756   2.649
 6136TIP3   OH218413   4.384   5.986   2.066
 6136TIP3    H118414   4.387   5.950   1.977
 6136TIP3    H218415   4.422   5.918   2.121
 6137TIP3   OH218416   5.992   1.405   0.360
 6137TIP3    H118417   5.897   1.393   0.365
 6137TIP3    H218418   6.028   1.321   0.389
 6138TIP3   OH218419   3.936   5.079   2.777
 6138TIP3    H118420   3.891   5.110   2.699
 6138TIP3    H218421   3.975   5.158   2.815
 6139TIP3   OH218422   1.146   2.435   0.191
 6139TIP3    H118423   1.216   2.495   0.163
 6139TIP3    H218424   1.065   2.478   0.161
 6140TIP3   OH218425   0.432   1.888   3.234
 6140TIP3    H118426   0.488   1.829   3.285
 6140TIP3    H218427   0.489   1.922   3.166
 6141TIP3   OH218428   0.869   0.573   3.777
 6141TIP3    H118429   0.802   0.519   3.818
 6141TIP3    H218430   0.918   0.512   3.722
 6142TIP3   OH218431   4.815   5.732   1.013
 6142TIP3    H118432   4.739   5.751   0.959
 6142TIP3    H218433   4.856   5.817   1.029
 6143TIP3   OH218434   1.080   0.889   3.491
 6143TIP3    H118435   1.061   0.875   3.584
 6143TIP3    H218436   1.036   0.816   3.447
 6144TIP3   OH218437   4.205   5.254   0.840
 6144TIP3    H118438   4.200   5.212   0.926
 6144TIP3    H218439   4.241   5.341   0.859
 6145TIP3   OH218440   2.197   3.934   5.008
 6145TIP3    H118441   2.248   3.932   4.927
 6145TIP3    H218442   2.237   3.866   5.063
 6146TIP3   OH218443   0.510   5.689   1.921
 6146TIP3    H118444   0.422   5.662   1.946
 6146TIP3    H218445   0.500   5.725   1.832
 6147TIP3   OH218446   1.352   2.092   0.436
 6147TIP3    H118447   1.357   2.046   0.520
 6147TIP3    H218448   1.427   2.060   0.386
 6148TIP3   OH218449   5.186   0.743   0.286
 6148TIP3    H118450   5.215   0.694   0.209
 6148TIP3    H218451   5.188   0.834   0.258
 6149TIP3   OH218452   0.302   2.063   4.503
 6149TIP3    H118453   0.374   2.037   4.446
 6149TIP3    H218454   0.342   2.073   4.589
 6150TIP3   OH218455   4.299   0.237   1.007
 6150TIP3    H118456   4.319   0.184   1.084
 6150TIP3    H218457   4.218   0.283   1.031
 6151TIP3   OH218458   6.173   4.753   4.860
 6151TIP3    H118459   6.152   4.670   4.904
 6151TIP3    H218460   6.089   4.798   4.853
 6152TIP3   OH218461   4.557   1.018   1.123
 6152TIP3    H118462   4.539   1.107   1.091
 6152TIP3    H218463   4.480   0.995   1.174
 6153TIP3   OH218464   5.513   5.061   1.485
 6153TIP3    H118465   5.608   5.050   1.493
 6153TIP3    H218466   5.501   5.155   1.475
 6154TIP3   OH218467   6.194   5.664   1.375
 6154TIP3    H118468   6.140   5.590   1.346
 6154TIP3    H218469   6.234   5.697   1.295
 6155TIP3   OH218470   1.095   4.744   1.037
 6155TIP3    H118471   1.065   4.830   1.067
 6155TIP3    H218472   1.051   4.682   1.096
 6156TIP3   OH218473   6.260   2.647   1.563
 6156TIP3    H118474   6.277   2.720   1.503
 6156TIP3    H218475   6.345   2.605   1.574
 6157TIP3   OH218476   6.325   1.211   3.655
 6157TIP3    H118477   6.340   1.126   3.698
 6157TIP3    H218478   6.261   1.192   3.587
 6158TIP3   OH218479   5.298   2.545   0.761
 6158TIP3    H118480   5.263   2.633   0.776
 6158TIP3    H218481   5.286   2.500   0.845
 6159TIP3   OH218482   1.919   5.204   5.048
 6159TIP3    H118483   1.935   5.264   4.975
 6159TIP3    H218484   1.916   5.261   5.125
 6160TIP3   OH218485   0.875   0.211   1.592
 6160TIP3    H118486   0.825   0.293   1.583
 6160TIP3    H218487   0.822   0.146   1.547
 6161TIP3   OH218488   3.221   5.998   3.897
 6161TIP3    H118489   3.160   5.970   3.964
 6161TIP3    H218490   3.169   6.050   3.837
 6162TIP3   OH218491   4.952   2.022   4.888
 6162TIP3    H118492   4.990   2.002   4.802
 6162TIP3    H218493   4.873   2.072   4.868
 6163TIP3   OH218494   4.578   5.326   4.506
 6163TIP3    H118495   4.537   5.412   4.514
 6163TIP3    H218496   4.586   5.312   4.412
 6164TIP3   OH218497   0.991   0.420   4.384
 6164TIP3    H118498   1.032   0.385   4.463
 6164TIP3    H218499   1.061   0.465   4.338
 6165TIP3   OH218500   5.901   4.555   0.375
 6165TIP3    H118501   5.904   4.620   0.445
 6165TIP3    H218502   5.914   4.605   0.294
 6166TIP3   OH218503   0.774   5.250   1.637
 6166TIP3    H118504   0.827   5.320   1.598
 6166TIP3    H218505   0.831   5.174   1.637
 6167TIP3   OH218506   0.197   0.582   0.262
 6167TIP3    H118507   0.183   0.487   0.267
 6167TIP3    H218508   0.111   0.620   0.274
 6168TIP3   OH218509   1.128   5.790   3.702
 6168TIP3    H118510   1.108   5.726   3.770
 6168TIP3    H218511   1.096   5.749   3.621
 6169TIP3   OH218512   2.863   4.599   1.224
 6169TIP3    H118513   2.857   4.604   1.129
 6169TIP3    H218514   2.917   4.674   1.248
 6170TIP3   OH218515   4.659   5.524   3.402
 6170TIP3    H118516   4.652   5.455   3.336
 6170TIP3    H218517   4.586   5.507   3.461
 6171TIP3   OH218518   2.114   4.185   2.137
 6171TIP3    H118519   2.145   4.201   2.048
 6171TIP3    H218520   2.020   4.205   2.133
 6172TIP3   OH218521   3.468   1.855   3.503
 6172TIP3    H118522   3.402   1.825   3.441
 6172TIP3    H218523   3.460   1.950   3.502
 6173TIP3   OH218524   1.382   2.801   1.260
 6173TIP3    H118525   1.331   2.722   1.242
 6173TIP3    H218526   1.350   2.831   1.346
 6174TIP3   OH218527   2.070   5.298   1.349
 6174TIP3    H118528   2.029   5.214   1.369
 6174TIP3    H218529   2.164   5.279   1.349
 6175TIP3   OH218530   1.468   4.204   2.550
 6175TIP3    H118531   1.440   4.292   2.526
 6175TIP3    H218532   1.433   4.147   2.481
 6176TIP3   OH218533   4.305   1.312   3.860
 6176TIP3    H118534   4.393   1.276   3.860
 6176TIP3    H218535   4.314   1.401   3.826
 6177TIP3   OH218536   4.523   4.886   2.966
 6177TIP3    H118537   4.446   4.864   3.018
 6177TIP3    H218538   4.502   4.856   2.878
 6178TIP3   OH218539   5.185   1.028   4.193
 6178TIP3    H118540   5.225   0.978   4.122
 6178TIP3    H218541   5.235   1.110   4.195
 6179TIP3   OH218542   3.875   1.269   4.855
 6179TIP3    H118543   3.932   1.233   4.787
 6179TIP3    H218544   3.852   1.356   4.824
 6180TIP3   OH218545   3.831   1.485   4.561
 6180TIP3    H118546   3.792   1.513   4.478
 6180TIP3    H218547   3.851   1.392   4.548
 6181TIP3   OH218548   2.298   3.735   0.850
 6181TIP3    H118549   2.389   3.719   0.827
 6181TIP3    H218550   2.303   3.793   0.927
 6182TIP3   OH218551   3.462   3.039   0.265
 6182TIP3    H118552   3.381   3.089   0.273
 6182TIP3    H218553   3.435   2.956   0.226
 6183TIP3   OH218554   4.386   5.852   3.324
 6183TIP3    H118555   4.447   5.925   3.330
 6183TIP3    H218556   4.399   5.817   3.236
 6184TIP3   OH218557   0.075   4.298   3.981
 6184TIP3    H118558   0.123   4.224   4.019
 6184TIP3    H218559   0.142   4.365   3.969
 6185TIP3   OH218560   3.371   2.233   5.144
 6185TIP3    H118561   3.446   2.204   5.195
 6185TIP3    H218562   3.400   2.315   5.103
 6186TIP3   OH218563   0.574   0.831   0.482
 6186TIP3    H118564   0.505   0.770   0.455
 6186TIP3    H218565   0.654   0.798   0.442
 6187TIP3   OH218566   3.842   4.060   3.144
 6187TIP3    H118567   3.797   4.141   3.168
 6187TIP3    H218568   3.816   4.046   3.053
 6188TIP3   OH218569   3.280   3.792   5.095
 6188TIP3    H118570   3.306   3.862   5.036
 6188TIP3    H218571   3.189   3.772   5.071
 6189TIP3   OH218572   1.772   0.305   4.059
 6189TIP3    H118573   1.735   0.306   3.971
 6189TIP3    H218574   1.836   0.233   4.057
 6190TIP3   OH218575   0.208   1.222   2.637
 6190TIP3    H118576   0.167   1.309   2.633
 6190TIP3    H218577   0.298   1.239   2.664
 6191TIP3   OH218578   3.343   5.856   5.146
 6191TIP3    H118579   3.421   5.908   5.126
 6191TIP3    H218580   3.273   5.921   5.158
 6192TIP3   OH218581   0.667   1.614   4.651
 6192TIP3    H118582   0.621   1.681   4.702
 6192TIP3    H218583   0.750   1.602   4.696
 6193TIP3   OH218584   6.186   0.769   1.714
 6193TIP3    H118585   6.123   0.814   1.771
 6193TIP3    H218586   6.224   0.838   1.661
 6194TIP3   OH218587   2.043   0.004   4.836
 6194TIP3    H118588   2.103  -0.001   4.911
 6194TIP3    H218589   2.100   0.020   4.761
 6195TIP3   OH218590   4.228   2.558   0.560
 6195TIP3    H118591   4.150   2.525   0.516
 6195TIP3    H218592   4.227   2.516   0.646
 6196TIP3   OH218593   4.374   1.750   4.747
 6196TIP3    H118594   4.299   1.769   4.803
 6196TIP3    H218595   4.422   1.682   4.795
 6197TIP3   OH218596   3.944   1.711   0.163
 6197TIP3    H118597   4.021   1.751   0.123
 6197TIP3    H218598   3.900   1.784   0.208
 6198TIP3   OH218599   3.599   1.004   2.709
 6198TIP3    H118600   3.653   1.032   2.635
 6198TIP3    H218601   3.569   0.916   2.684
 6199TIP3   OH218602   3.652   1.336   4.300
 6199TIP3    H118603   3.662   1.323   4.205
 6199TIP3    H218604   3.654   1.431   4.311
 6200TIP3   OH218605   3.925   2.198   3.672
 6200TIP3    H118606   3.886   2.180   3.757
 6200TIP3    H218607   3.930   2.294   3.668
 6201TIP3   OH218608   0.167   2.190   3.127
 6201TIP3    H118609   0.097   2.252   3.147
 6201TIP3    H218610   0.123   2.117   3.084
 6202TIP3   OH218611   1.331   0.384   0.819
 6202TIP3    H118612   1.245   0.424   0.832
 6202TIP3    H218613   1.388   0.432   0.880
 6203TIP3   OH218614   0.387   3.136   4.898
 6203TIP3    H118615   0.318   3.157   4.835
 6203TIP3    H218616   0.439   3.069   4.854
 6204TIP3   OH218617   2.641   2.818   1.199
 6204TIP3    H118618   2.575   2.887   1.208
 6204TIP3    H218619   2.611   2.748   1.257
 6205TIP3   OH218620   1.671   4.800   4.199
 6205TIP3    H118621   1.762   4.783   4.175
 6205TIP3    H218622   1.644   4.872   4.142
 6206TIP3   OH218623   2.950   5.920   3.532
 6206TIP3    H118624   2.915   5.834   3.558
 6206TIP3    H218625   2.895   5.946   3.458
 6207TIP3   OH218626   4.261   4.709   2.950
 6207TIP3    H118627   4.187   4.649   2.959
 6207TIP3    H218628   4.275   4.742   3.039
 6208TIP3   OH218629   3.762   2.868   2.518
 6208TIP3    H118630   3.830   2.881   2.451
 6208TIP3    H218631   3.807   2.884   2.600
 6209TIP3   OH218632   4.213   2.712   0.891
 6209TIP3    H118633   4.308   2.705   0.901
 6209TIP3    H218634   4.185   2.622   0.870
 6210TIP3   OH218635   1.793   2.833   0.391
 6210TIP3    H118636   1.761   2.772   0.457
 6210TIP3    H218637   1.860   2.885   0.436
 6211TIP3   OH218638   0.885   2.683   4.162
 6211TIP3    H118639   0.842   2.745   4.103
 6211TIP3    H218640   0.872   2.720   4.249
 6212TIP3   OH218641   5.422   4.257   2.501
 6212TIP3    H118642   5.517   4.263   2.490
 6212TIP3    H218643   5.386   4.290   2.418
 6213TIP3   OH218644   0.697   5.209   3.339
 6213TIP3    H118645   0.720   5.259   3.417
 6213TIP3    H218646   0.769   5.224   3.278
 6214TIP3   OH218647   6.068   5.768   5.116
 6214TIP3    H118648   6.038   5.794   5.028
 6214TIP3    H218649   6.139   5.829   5.136
 6215TIP3   OH218650   6.038   3.476   3.375
 6215TIP3    H118651   6.118   3.471   3.323
 6215TIP3    H218652   6.068   3.488   3.465
 6216TIP3   OH218653   5.202   1.244   2.993
 6216TIP3    H118654   5.236   1.271   2.908
 6216TIP3    H218655   5.280   1.231   3.048
 6217TIP3   OH218656   4.436   3.701   4.865
 6217TIP3    H118657   4.509   3.748   4.905
 6217TIP3    H218658   4.463   3.609   4.866
 6218TIP3   OH218659   1.092   4.034   3.478
 6218TIP3    H118660   1.163   3.969   3.476
 6218TIP3    H218661   1.039   4.014   3.401
 6219TIP3   OH218662   5.088   0.126   1.631
 6219TIP3    H118663   5.111   0.167   1.547
 6219TIP3    H218664   5.161   0.067   1.650
 6220TIP3   OH218665   2.693   2.359   4.741
 6220TIP3    H118666   2.619   2.418   4.724
 6220TIP3    H218667   2.724   2.335   4.654
 6221TIP3   OH218668   6.104   2.503   0.537
 6221TIP3    H118669   6.105   2.574   0.601
 6221TIP3    H218670   6.017   2.465   0.543
 6222TIP3   OH218671   1.030   3.780   4.087
 6222TIP3    H118672   1.076   3.781   4.171
 6222TIP3    H218673   1.078   3.716   4.035
 6223TIP3   OH218674   4.093   2.018   2.849
 6223TIP3    H118675   4.186   2.025   2.824
 6223TIP3    H218676   4.046   2.059   2.777
 6224TIP3   OH218677   2.638   5.663   4.629
 6224TIP3    H118678   2.710   5.601   4.620
 6224TIP3    H218679   2.624   5.697   4.541
 6225TIP3   OH218680   5.614   5.936   2.172
 6225TIP3    H118681   5.620   5.944   2.268
 6225TIP3    H218682   5.571   6.016   2.144
 6226TIP3   OH218683   5.890   0.173   5.015
 6226TIP3    H118684   5.979   0.139   5.007
 6226TIP3    H218685   5.899   0.268   5.005
 6227TIP3   OH218686   3.597   5.065   5.157
 6227TIP3    H118687   3.598   4.998   5.225
 6227TIP3    H218688   3.589   5.147   5.205
 6228TIP3   OH218689   5.296   1.271   2.730
 6228TIP3    H118690   5.251   1.244   2.649
 6228TIP3    H218691   5.326   1.360   2.712
 6229TIP3   OH218692   2.947   1.917   4.156
 6229TIP3    H118693   2.971   1.829   4.126
 6229TIP3    H218694   2.990   1.926   4.240
 6230TIP3   OH218695   4.474   0.257   1.366
 6230TIP3    H118696   4.543   0.310   1.404
 6230TIP3    H218697   4.403   0.318   1.349
 6231TIP3   OH218698   6.124   0.934   4.720
 6231TIP3    H118699   6.134   0.841   4.739
 6231TIP3    H218700   6.084   0.970   4.799
 6232TIP3   OH218701   0.132   4.258   2.611
 6232TIP3    H118702   0.122   4.342   2.566
 6232TIP3    H218703   0.226   4.244   2.616
 6233TIP3   OH218704   2.668   2.156   5.120
 6233TIP3    H118705   2.762   2.149   5.138
 6233TIP3    H218706   2.661   2.149   5.025
 6234TIP3   OH218707   4.496   2.574   3.237
 6234TIP3    H118708   4.415   2.625   3.239
 6234TIP3    H218709   4.531   2.581   3.326
 6235TIP3   OH218710   3.437   1.359   1.720
 6235TIP3    H118711   3.365   1.390   1.665
 6235TIP3    H218712   3.503   1.427   1.714
 6236TIP3   OH218713   3.928   3.650   0.240
 6236TIP3    H118714   3.873   3.593   0.187
 6236TIP3    H218715   4.016   3.614   0.231
 6237TIP3   OH218716   4.638   1.713   2.950
 6237TIP3    H118717   4.656   1.627   2.987
 6237TIP3    H218718   4.652   1.703   2.856
 6238TIP3   OH218719   4.397   2.600   4.965
 6238TIP3    H118720   4.401   2.550   4.884
 6238TIP3    H218721   4.441   2.545   5.030
 6239TIP3   OH218722   3.193   1.682   1.513
 6239TIP3    H118723   3.171   1.747   1.579
 6239TIP3    H218724   3.120   1.684   1.451
 6240TIP3   OH218725   1.780   5.299   3.529
 6240TIP3    H118726   1.695   5.258   3.513
 6240TIP3    H218727   1.768   5.348   3.611
 6241TIP3   OH218728   0.238   3.889   3.399
 6241TIP3    H118729   0.212   3.821   3.461
 6241TIP3    H218730   0.268   3.962   3.454
 6242TIP3   OH218731   0.704   3.611   2.273
 6242TIP3    H118732   0.754   3.549   2.219
 6242TIP3    H218733   0.683   3.562   2.352
 6243TIP3   OH218734   4.350   0.517   3.095
 6243TIP3    H118735   4.285   0.534   3.164
 6243TIP3    H218736   4.312   0.557   3.017
 6244TIP3   OH218737   6.126   4.456   0.166
 6244TIP3    H118738   6.067   4.422   0.099
 6244TIP3    H218739   6.112   4.399   0.242
 6245TIP3   OH218740   5.984   5.205   1.922
 6245TIP3    H118741   5.992   5.290   1.965
 6245TIP3    H218742   5.990   5.141   1.993
 6246TIP3   OH218743   2.217   2.486   0.081
 6246TIP3    H118744   2.222   2.565   0.028
 6246TIP3    H218745   2.129   2.452   0.066
 6247TIP3   OH218746   4.482   0.766   3.734
 6247TIP3    H118747   4.409   0.744   3.792
 6247TIP3    H218748   4.549   0.802   3.792
 6248TIP3   OH218749   0.270   3.708   1.087
 6248TIP3    H118750   0.195   3.765   1.106
 6248TIP3    H218751   0.275   3.706   0.991
 6249TIP3   OH218752   2.227   3.365   4.297
 6249TIP3    H118753   2.237   3.386   4.205
 6249TIP3    H218754   2.228   3.450   4.342
 6250TIP3   OH218755   4.002   2.763   2.361
 6250TIP3    H118756   4.052   2.690   2.396
 6250TIP3    H218757   4.065   2.835   2.354
 6251TIP3   OH218758   3.924   4.734   1.946
 6251TIP3    H118759   3.846   4.779   1.915
 6251TIP3    H218760   3.900   4.702   2.033
 6252TIP3   OH218761   3.593   1.545   1.158
 6252TIP3    H118762   3.635   1.476   1.106
 6252TIP3    H218763   3.538   1.498   1.221
 6253TIP3   OH218764   3.523   2.728   0.363
 6253TIP3    H118765   3.557   2.784   0.293
 6253TIP3    H218766   3.434   2.760   0.379
 6254TIP3   OH218767   4.357   0.731   4.229
 6254TIP3    H118768   4.302   0.690   4.296
 6254TIP3    H218769   4.382   0.815   4.267
 6255TIP3   OH218770   0.615   1.191   4.198
 6255TIP3    H118771   0.645   1.254   4.263
 6255TIP3    H218772   0.582   1.117   4.249
 6256TIP3   OH218773   5.072   2.001   3.203
 6256TIP3    H118774   5.038   2.003   3.292
 6256TIP3    H218775   5.022   1.933   3.159
 6257TIP3   OH218776   6.078   5.972   4.566
 6257TIP3    H118777   6.115   5.905   4.509
 6257TIP3    H218778   6.131   6.050   4.548
 6258TIP3   OH218779   6.023   4.806   0.810
 6258TIP3    H118780   6.109   4.826   0.774
 6258TIP3    H218781   6.037   4.799   0.905
 6259TIP3   OH218782   2.793   4.646   3.101
 6259TIP3    H118783   2.712   4.616   3.142
 6259TIP3    H218784   2.838   4.695   3.170
 6260TIP3   OH218785   0.513   1.810   4.462
 6260TIP3    H118786   0.606   1.829   4.472
 6260TIP3    H218787   0.473   1.837   4.544
 6261TIP3   OH218788   4.192   3.023   3.736
 6261TIP3    H118789   4.147   3.068   3.808
 6261TIP3    H218790   4.196   3.088   3.666
 6262TIP3   OH218791   3.140   2.313   2.084
 6262TIP3    H118792   3.118   2.394   2.037
 6262TIP3    H218793   3.235   2.305   2.074
 6263TIP3   OH218794   5.593   3.775   3.341
 6263TIP3    H118795   5.576   3.701   3.399
 6263TIP3    H218796   5.683   3.762   3.310
 6264TIP3   OH218797   4.544   1.517   4.782
 6264TIP3    H118798   4.620   1.468   4.813
 6264TIP3    H218799   4.469   1.473   4.822
 6265TIP3   OH218800   5.294   3.202   3.136
 6265TIP3    H118801   5.247   3.120   3.121
 6265TIP3    H218802   5.366   3.178   3.194
 6266TIP3   OH218803   3.476   3.778   3.067
 6266TIP3    H118804   3.513   3.829   2.995
 6266TIP3    H218805   3.548   3.769   3.130
 6267TIP3   OH218806   4.166   3.480   1.647
 6267TIP3    H118807   4.250   3.524   1.655
 6267TIP3    H218808   4.145   3.483   1.554
 6268TIP3   OH218809   0.694   5.872   4.482
 6268TIP3    H118810   0.776   5.916   4.458
 6268TIP3    H218811   0.677   5.900   4.572
 6269TIP3   OH218812   2.962   2.586   4.051
 6269TIP3    H118813   2.935   2.619   3.965
 6269TIP3    H218814   2.915   2.503   4.060
 6270TIP3   OH218815   2.941   5.573   0.740
 6270TIP3    H118816   3.016   5.514   0.753
 6270TIP3    H218817   2.899   5.540   0.661
 6271TIP3   OH218818   4.913   0.170   1.074
 6271TIP3    H118819   4.917   0.101   1.140
 6271TIP3    H218820   5.002   0.204   1.069
 6272TIP3   OH218821   5.799   1.677   3.437
 6272TIP3    H118822   5.838   1.646   3.519
 6272TIP3    H218823   5.775   1.768   3.455
 6273TIP3   OH218824   0.307   1.981   1.359
 6273TIP3    H118825   0.321   2.073   1.336
 6273TIP3    H218826   0.332   1.932   1.280
 6274TIP3   OH218827   4.722   4.377   2.542
 6274TIP3    H118828   4.689   4.288   2.553
 6274TIP3    H218829   4.704   4.399   2.451
 6275TIP3   OH218830   2.687   5.039   2.220
 6275TIP3    H118831   2.699   4.955   2.175
 6275TIP3    H218832   2.775   5.064   2.247
 6276TIP3   OH218833   5.669   5.148   0.159
 6276TIP3    H118834   5.701   5.103   0.238
 6276TIP3    H218835   5.748   5.165   0.108
 6277TIP3   OH218836   1.984   2.767   2.732
 6277TIP3    H118837   1.969   2.748   2.640
 6277TIP3    H218838   1.921   2.836   2.753
 6278TIP3   OH218839   3.636   3.931   0.386
 6278TIP3    H118840   3.702   3.921   0.318
 6278TIP3    H218841   3.596   3.844   0.394
 6279TIP3   OH218842   6.048   4.977   1.578
 6279TIP3    H118843   6.006   5.060   1.596
 6279TIP3    H218844   6.073   4.942   1.663
 6280TIP3   OH218845   3.005   2.323   1.157
 6280TIP3    H118846   3.086   2.335   1.108
 6280TIP3    H218847   2.939   2.371   1.106
 6281TIP3   OH218848   5.161   3.879   4.939
 6281TIP3    H118849   5.205   3.888   4.855
 6281TIP3    H218850   5.225   3.910   5.004
 6282TIP3   OH218851   6.327   5.276   5.128
 6282TIP3    H118852   6.274   5.206   5.089
 6282TIP3    H218853   6.263   5.342   5.156
 6283TIP3   OH218854   3.951   0.894   1.309
 6283TIP3    H118855   3.880   0.832   1.321
 6283TIP3    H218856   3.911   0.980   1.323
 6284TIP3   OH218857   0.583   0.513   1.188
 6284TIP3    H118858   0.513   0.523   1.252
 6284TIP3    H218859   0.632   0.595   1.192
 6285TIP3   OH218860   3.204   3.218   1.197
 6285TIP3    H118861   3.240   3.147   1.250
 6285TIP3    H218862   3.266   3.290   1.207
 6286TIP3   OH218863   2.613   0.692   5.120
 6286TIP3    H118864   2.638   0.613   5.166
 6286TIP3    H218865   2.541   0.666   5.063
 6287TIP3   OH218866   1.843   0.723   0.565
 6287TIP3    H118867   1.804   0.778   0.632
 6287TIP3    H218868   1.790   0.643   0.565
 6288TIP3   OH218869   1.853   4.834   1.217
 6288TIP3    H118870   1.805   4.776   1.275
 6288TIP3    H218871   1.786   4.890   1.178
 6289TIP3   OH218872   2.222   3.513   0.050
 6289TIP3    H118873   2.237   3.607   0.046
 6289TIP3    H218874   2.277   3.477  -0.020
 6290TIP3   OH218875   3.112   3.109   4.717
 6290TIP3    H118876   3.197   3.152   4.703
 6290TIP3    H218877   3.051   3.182   4.728
 6291TIP3   OH218878   6.035   2.939   1.514
 6291TIP3    H118879   6.098   2.996   1.558
 6291TIP3    H218880   6.017   2.870   1.578
 6292TIP3   OH218881   1.189   3.126   5.176
 6292TIP3    H118882   1.204   3.217   5.150
 6292TIP3    H218883   1.101   3.127   5.214
 6293TIP3   OH218884   4.653   1.412   0.164
 6293TIP3    H118885   4.662   1.465   0.243
 6293TIP3    H218886   4.559   1.415   0.143
 6294TIP3   OH218887   4.076   3.199   3.141
 6294TIP3    H118888   4.064   3.142   3.217
 6294TIP3    H218889   4.021   3.160   3.073
 6295TIP3   OH218890   4.380   3.716   2.708
 6295TIP3    H118891   4.438   3.762   2.647
 6295TIP3    H218892   4.377   3.773   2.785
 6296TIP3   OH218893   1.413   4.503   0.023
 6296TIP3    H118894   1.454   4.514   0.109
 6296TIP3    H218895   1.373   4.587   0.004
 6297TIP3   OH218896   5.651   3.968   2.230
 6297TIP3    H118897   5.651   3.921   2.147
 6297TIP3    H218898   5.564   3.952   2.267
 6298TIP3   OH218899   2.355   3.494   1.767
 6298TIP3    H118900   2.261   3.490   1.786
 6298TIP3    H218901   2.369   3.426   1.700
 6299TIP3   OH218902   3.531   1.194   2.949
 6299TIP3    H118903   3.442   1.216   2.923
 6299TIP3    H218904   3.553   1.258   3.017
 6300TIP3   OH218905   1.165   0.908   1.801
 6300TIP3    H118906   1.203   0.821   1.814
 6300TIP3    H218907   1.228   0.968   1.841
 6301TIP3   OH218908   3.696   2.005   2.981
 6301TIP3    H118909   3.725   2.082   2.932
 6301TIP3    H218910   3.715   2.026   3.073
 6302TIP3   OH218911   5.322   1.692   1.513
 6302TIP3    H118912   5.238   1.676   1.556
 6302TIP3    H218913   5.384   1.635   1.559
 6303TIP3   OH218914   2.835   1.333   2.541
 6303TIP3    H118915   2.916   1.288   2.564
 6303TIP3    H218916   2.808   1.377   2.622
 6304TIP3   OH218917   6.214   4.846   4.120
 6304TIP3    H118918   6.164   4.767   4.140
 6304TIP3    H218919   6.168   4.886   4.047
 6305TIP3   OH218920   5.997   2.630   3.269
 6305TIP3    H118921   6.051   2.682   3.329
 6305TIP3    H218922   5.988   2.545   3.313
 6306TIP3   OH218923   2.543   2.792   4.823
 6306TIP3    H118924   2.538   2.882   4.857
 6306TIP3    H218925   2.467   2.748   4.862
 6307TIP3   OH218926   5.114   3.300   1.166
 6307TIP3    H118927   5.150   3.387   1.183
 6307TIP3    H218928   5.096   3.263   1.252
 6308TIP3   OH218929   6.129   3.125   0.696
 6308TIP3    H118930   6.139   3.047   0.642
 6308TIP3    H218931   6.068   3.099   0.765
 6309TIP3   OH218932   1.416   5.587   3.768
 6309TIP3    H118933   1.385   5.677   3.779
 6309TIP3    H218934   1.403   5.568   3.676
 6310TIP3   OH218935   0.324   4.017   2.718
 6310TIP3    H118936   0.391   4.039   2.653
 6310TIP3    H218937   0.244   4.005   2.668
 6311TIP3   OH218938   1.211   5.130   1.326
 6311TIP3    H118939   1.212   5.111   1.420
 6311TIP3    H218940   1.298   5.105   1.295
 6312TIP3   OH218941   1.505   4.705   1.037
 6312TIP3    H118942   1.552   4.640   0.985
 6312TIP3    H218943   1.415   4.699   1.006
 6313TIP3   OH218944   4.860   3.519   0.796
 6313TIP3    H118945   4.854   3.597   0.741
 6313TIP3    H218946   4.836   3.550   0.883
 6314TIP3   OH218947   5.534   5.003   4.996
 6314TIP3    H118948   5.607   4.951   5.030
 6314TIP3    H218949   5.473   4.938   4.961
 6315TIP3   OH218950   4.085   4.733   4.764
 6315TIP3    H118951   4.107   4.677   4.839
 6315TIP3    H218952   3.990   4.744   4.769
 6316TIP3   OH218953   0.153   1.929   0.817
 6316TIP3    H118954   0.163   1.975   0.900
 6316TIP3    H218955   0.243   1.917   0.785
 6317TIP3   OH218956   6.133   0.868   1.123
 6317TIP3    H118957   6.085   0.910   1.195
 6317TIP3    H218958   6.216   0.915   1.120
 6318TIP3   OH218959   4.030   0.465   3.196
 6318TIP3    H118960   3.987   0.401   3.252
 6318TIP3    H218961   4.012   0.435   3.107
 6319TIP3   OH218962   3.693   3.803   3.223
 6319TIP3    H118963   3.682   3.733   3.288
 6319TIP3    H218964   3.717   3.880   3.274
 6320TIP3   OH218965   2.716   5.673   1.142
 6320TIP3    H118966   2.780   5.603   1.157
 6320TIP3    H218967   2.684   5.657   1.053
 6321TIP3   OH218968   3.444   2.499   5.042
 6321TIP3    H118969   3.468   2.581   5.086
 6321TIP3    H218970   3.515   2.483   4.981
 6322TIP3   OH218971   0.736   4.328   0.821
 6322TIP3    H118972   0.677   4.362   0.754
 6322TIP3    H218973   0.754   4.238   0.794
 6323TIP3   OH218974   3.695   1.896   2.555
 6323TIP3    H118975   3.737   1.826   2.504
 6323TIP3    H218976   3.750   1.972   2.541
 6324TIP3   OH218977   3.721   5.567   3.327
 6324TIP3    H118978   3.676   5.494   3.284
 6324TIP3    H218979   3.806   5.572   3.283
 6325TIP3   OH218980   4.122   4.801   0.925
 6325TIP3    H118981   4.193   4.842   0.874
 6325TIP3    H218982   4.167   4.738   0.981
 6326TIP3   OH218983   1.896   1.337   2.052
 6326TIP3    H118984   1.958   1.271   2.082
 6326TIP3    H218985   1.814   1.317   2.097
 6327TIP3   OH218986   0.579   3.912   4.490
 6327TIP3    H118987   0.674   3.920   4.482
 6327TIP3    H218988   0.545   4.001   4.479
 6328TIP3   OH218989   2.350   2.132   0.498
 6328TIP3    H118990   2.392   2.063   0.448
 6328TIP3    H218991   2.411   2.205   0.495
 6329TIP3   OH218992   1.835   2.122   3.218
 6329TIP3    H118993   1.751   2.078   3.231
 6329TIP3    H218994   1.881   2.113   3.301
 6330TIP3   OH218995   0.162   5.643   4.096
 6330TIP3    H118996   0.193   5.554   4.076
 6330TIP3    H218997   0.179   5.654   4.189
 6331TIP3   OH218998   1.625   1.439   4.192
 6331TIP3    H118999   1.601   1.531   4.193
 6331TIP3    H219000   1.606   1.409   4.281
 6332TIP3   OH219001   3.309   0.995   4.165
 6332TIP3    H119002   3.242   1.031   4.108
 6332TIP3    H219003   3.283   1.023   4.253
 6333TIP3   OH219004   5.226   4.822   1.035
 6333TIP3    H119005   5.197   4.751   0.979
 6333TIP3    H219006   5.220   4.901   0.980
 6334TIP3   OH219007   3.293   5.091   2.883
 6334TIP3    H119008   3.315   5.151   2.955
 6334TIP3    H219009   3.205   5.117   2.857
 6335TIP3   OH219010   6.292   5.606   4.931
 6335TIP3    H119011   6.309   5.621   5.024
 6335TIP3    H219012   6.359   5.656   4.885
 6336TIP3   OH219013   5.207   0.037   2.078
 6336TIP3    H119014   5.294   0.039   2.038
 6336TIP3    H219015   5.147   0.051   2.005
 6337TIP3   OH219016   6.003   2.606   1.646
 6337TIP3    H119017   6.095   2.618   1.622
 6337TIP3    H219018   6.003   2.528   1.701
 6338TIP3   OH219019   5.007   2.949   2.485
 6338TIP3    H119020   5.064   2.923   2.557
 6338TIP3    H219021   5.057   2.928   2.406
 6339TIP3   OH219022   5.672   1.955   0.707
 6339TIP3    H119023   5.613   2.029   0.719
 6339TIP3    H219024   5.759   1.993   0.707
 6340TIP3   OH219025   3.380   4.836   0.592
 6340TIP3    H119026   3.404   4.813   0.502
 6340TIP3    H219027   3.303   4.783   0.611
 6341TIP3   OH219028   5.647   2.930   2.856
 6341TIP3    H119029   5.740   2.950   2.867
 6341TIP3    H219030   5.606   3.016   2.844
 6342TIP3   OH219031   5.717   0.497   1.208
 6342TIP3    H119032   5.770   0.549   1.149
 6342TIP3    H219033   5.702   0.415   1.161
 6343TIP3   OH219034   2.683   2.826   3.648
 6343TIP3    H119035   2.604   2.787   3.611
 6343TIP3    H219036   2.661   2.846   3.739
 6344TIP3   OH219037   4.482   4.263   3.473
 6344TIP3    H119038   4.553   4.251   3.535
 6344TIP3    H219039   4.465   4.176   3.437
 6345TIP3   OH219040   2.271   2.641   4.285
 6345TIP3    H119041   2.363   2.623   4.301
 6345TIP3    H219042   2.247   2.704   4.354
 6346TIP3   OH219043   5.141   0.613   0.711
 6346TIP3    H119044   5.073   0.638   0.649
 6346TIP3    H219045   5.174   0.696   0.746
 6347TIP3   OH219046   3.717   0.579   3.021
 6347TIP3    H119047   3.722   0.487   3.047
 6347TIP3    H219048   3.697   0.626   3.101
 6348TIP3   OH219049   1.531   2.143   3.890
 6348TIP3    H119050   1.533   2.069   3.951
 6348TIP3    H219051   1.613   2.190   3.907
 6349TIP3   OH219052   3.385   0.846   1.910
 6349TIP3    H119053   3.456   0.910   1.916
 6349TIP3    H219054   3.317   0.890   1.859
 6350TIP3   OH219055   4.523   4.103   3.174
 6350TIP3    H119056   4.612   4.126   3.200
 6350TIP3    H219057   4.516   4.009   3.194
 6351TIP3   OH219058   3.922   3.479   5.054
 6351TIP3    H119059   3.914   3.553   5.114
 6351TIP3    H219060   3.939   3.518   4.969
 6352TIP3   OH219061   1.993   5.723   4.688
 6352TIP3    H119062   2.078   5.741   4.729
 6352TIP3    H219063   1.932   5.716   4.761
 6353TIP3   OH219064   5.791   1.077   2.762
 6353TIP3    H119065   5.759   1.009   2.702
 6353TIP3    H219066   5.720   1.141   2.767
 6354TIP3   OH219067   4.830   1.804   4.219
 6354TIP3    H119068   4.735   1.804   4.231
 6354TIP3    H219069   4.853   1.712   4.209
 6355TIP3   OH219070   6.117   0.761   0.873
 6355TIP3    H119071   6.122   0.813   0.953
 6355TIP3    H219072   6.191   0.702   0.878
 6356TIP3   OH219073   0.448   5.573   2.410
 6356TIP3    H119074   0.466   5.511   2.340
 6356TIP3    H219075   0.512   5.552   2.478
 6357TIP3   OH219076   3.100   5.178   0.849
 6357TIP3    H119077   3.096   5.157   0.942
 6357TIP3    H219078   3.145   5.262   0.845
 6358TIP3   OH219079   2.289   1.952   0.219
 6358TIP3    H119080   2.243   1.869   0.201
 6358TIP3    H219081   2.378   1.926   0.241
 6359TIP3   OH219082   4.469   1.109   4.572
 6359TIP3    H119083   4.408   1.046   4.611
 6359TIP3    H219084   4.545   1.108   4.630
 6360TIP3   OH219085   1.246   3.649   1.616
 6360TIP3    H119086   1.157   3.616   1.602
 6360TIP3    H219087   1.247   3.674   1.708
 6361TIP3   OH219088   6.143   2.060   2.558
 6361TIP3    H119089   6.175   2.108   2.635
 6361TIP3    H219090   6.068   2.010   2.591
 6362TIP3   OH219091   0.776   4.006   3.811
 6362TIP3    H119092   0.735   4.075   3.760
 6362TIP3    H219093   0.775   3.930   3.753
 6363TIP3   OH219094   2.556   4.804   2.889
 6363TIP3    H119095   2.597   4.732   2.937
 6363TIP3    H219096   2.539   4.767   2.802
 6364TIP3   OH219097   1.280   3.976   1.004
 6364TIP3    H119098   1.203   3.958   0.951
 6364TIP3    H219099   1.309   3.889   1.034
 6365TIP3   OH219100   1.917   2.632   1.402
 6365TIP3    H119101   1.937   2.562   1.339
 6365TIP3    H219102   1.937   2.593   1.487
 6366TIP3   OH219103   1.544   4.668   3.993
 6366TIP3    H119104   1.608   4.645   3.926
 6366TIP3    H219105   1.592   4.722   4.056
 6367TIP3   OH219106   4.999   5.326   4.242
 6367TIP3    H119107   4.942   5.255   4.211
 6367TIP3    H219108   4.939   5.396   4.266
 6368TIP3   OH219109   0.407   2.746   1.568
 6368TIP3    H119110   0.467   2.708   1.632
 6368TIP3    H219111   0.426   2.698   1.487
 6369TIP3   OH219112   4.310   2.144   3.863
 6369TIP3    H119113   4.269   2.057   3.859
 6369TIP3    H219114   4.312   2.165   3.956
 6370TIP3   OH219115   3.564   1.468   0.826
 6370TIP3    H119116   3.575   1.437   0.736
 6370TIP3    H219117   3.519   1.552   0.817
 6371TIP3   OH219118   2.867   4.231   0.328
 6371TIP3    H119119   2.925   4.179   0.384
 6371TIP3    H219120   2.852   4.312   0.378
 6372TIP3   OH219121   6.034   5.252   3.989
 6372TIP3    H119122   5.972   5.279   3.922
 6372TIP3    H219123   6.075   5.333   4.019
 6373TIP3   OH219124   5.564   1.286   0.840
 6373TIP3    H119125   5.530   1.225   0.906
 6373TIP3    H219126   5.659   1.273   0.842
 6374TIP3   OH219127   5.068   0.042   3.000
 6374TIP3    H119128   5.140  -0.011   3.035
 6374TIP3    H219129   5.100   0.075   2.917
 6375TIP3   OH219130   0.938   4.125   4.957
 6375TIP3    H119131   0.889   4.143   5.037
 6375TIP3    H219132   0.987   4.205   4.940
 6376TIP3   OH219133   2.107   0.634   3.456
 6376TIP3    H119134   2.180   0.627   3.394
 6376TIP3    H219135   2.055   0.708   3.423
 6377TIP3   OH219136   4.432   2.837   3.767
 6377TIP3    H119137   4.494   2.891   3.718
 6377TIP3    H219138   4.347   2.859   3.730
 6378TIP3   OH219139   5.497   0.800   2.845
 6378TIP3    H119140   5.502   0.705   2.840
 6378TIP3    H219141   5.422   0.822   2.790
 6379TIP3   OH219142   2.972   4.342   4.457
 6379TIP3    H119143   2.933   4.259   4.484
 6379TIP3    H219144   2.898   4.396   4.431
 6380TIP3   OH219145   0.356   4.966   3.036
 6380TIP3    H119146   0.379   4.886   3.082
 6380TIP3    H219147   0.439   5.014   3.028
 6381TIP3   OH219148   3.658   0.600   1.801
 6381TIP3    H119149   3.749   0.570   1.803
 6381TIP3    H219150   3.627   0.590   1.891
 6382TIP3   OH219151   2.879   5.740   2.386
 6382TIP3    H119152   2.857   5.797   2.313
 6382TIP3    H219153   2.949   5.786   2.433
 6383TIP3   OH219154   4.843   2.773   2.279
 6383TIP3    H119155   4.768   2.817   2.238
 6383TIP3    H219156   4.844   2.806   2.369
 6384TIP3   OH219157   4.399   2.464   4.452
 6384TIP3    H119158   4.463   2.422   4.394
 6384TIP3    H219159   4.400   2.410   4.531
 6385TIP3   OH219160   4.830   0.698   2.753
 6385TIP3    H119161   4.842   0.793   2.747
 6385TIP3    H219162   4.919   0.662   2.746
 6386TIP3   OH219163   4.690   3.266   2.891
 6386TIP3    H119164   4.609   3.215   2.895
 6386TIP3    H219165   4.745   3.228   2.961
 6387TIP3   OH219166   4.446   1.975   2.637
 6387TIP3    H119167   4.536   1.959   2.666
 6387TIP3    H219168   4.393   1.915   2.690
 6388TIP3   OH219169   2.074   5.583   3.429
 6388TIP3    H119170   2.118   5.571   3.345
 6388TIP3    H219171   2.115   5.659   3.468
 6389TIP3   OH219172   0.091   4.115   2.918
 6389TIP3    H119173   0.087   4.210   2.927
 6389TIP3    H219174   0.162   4.100   2.855
 6390TIP3   OH219175   0.615   5.570   0.282
 6390TIP3    H119176   0.690   5.548   0.228
 6390TIP3    H219177   0.555   5.496   0.274
 6391TIP3   OH219178   5.958   1.702   0.974
 6391TIP3    H119179   5.906   1.687   1.053
 6391TIP3    H219180   5.958   1.797   0.964
 6392TIP3   OH219181   0.149   0.296   0.298
 6392TIP3    H119182   0.142   0.215   0.348
 6392TIP3    H219183   0.207   0.274   0.225
 6393TIP3   OH219184   4.138   4.206   0.172
 6393TIP3    H119185   4.181   4.186   0.089
 6393TIP3    H219186   4.125   4.301   0.170
 6394TIP3   OH219187   3.145   2.438   4.999
 6394TIP3    H119188   3.053   2.456   4.978
 6394TIP3    H219189   3.145   2.420   5.093
 6395TIP3   OH219190   5.477   0.176   3.228
 6395TIP3    H119191   5.474   0.221   3.313
 6395TIP3    H219192   5.568   0.148   3.219
 6396TIP3   OH219193   6.233   0.648   2.535
 6396TIP3    H119194   6.224   0.654   2.630
 6396TIP3    H219195   6.295   0.718   2.512
 6397TIP3   OH219196   2.115   2.159   5.096
 6397TIP3    H119197   2.084   2.229   5.154
 6397TIP3    H219198   2.197   2.193   5.059
 6398TIP3   OH219199   5.357   2.726   2.049
 6398TIP3    H119200   5.353   2.814   2.011
 6398TIP3    H219201   5.419   2.734   2.121
 6399TIP3   OH219202   3.130   5.048   0.588
 6399TIP3    H119203   3.108   5.105   0.661
 6399TIP3    H219204   3.226   5.042   0.590
 6400TIP3   OH219205   3.438   3.564   3.606
 6400TIP3    H119206   3.352   3.528   3.584
 6400TIP3    H219207   3.437   3.572   3.702
 6401TIP3   OH219208   1.098   5.450   3.784
 6401TIP3    H119209   1.075   5.518   3.847
 6401TIP3    H219210   1.117   5.498   3.703
 6402TIP3   OH219211   6.022   4.787   4.507
 6402TIP3    H119212   6.060   4.829   4.429
 6402TIP3    H219213   5.966   4.855   4.545
 6403TIP3   OH219214   2.113   5.607   1.338
 6403TIP3    H119215   2.208   5.600   1.351
 6403TIP3    H219216   2.083   5.517   1.331
 6404TIP3   OH219217   5.539   2.359   2.034
 6404TIP3    H119218   5.564   2.280   1.987
 6404TIP3    H219219   5.472   2.400   1.978
 6405TIP3   OH219220   2.781   0.341   4.052
 6405TIP3    H119221   2.800   0.424   4.009
 6405TIP3    H219222   2.704   0.360   4.106
 6406TIP3   OH219223   3.515   5.673   1.010
 6406TIP3    H119224   3.564   5.746   0.972
 6406TIP3    H219225   3.557   5.595   0.975
 6407TIP3   OH219226   5.315   1.252   4.608
 6407TIP3    H119227   5.346   1.196   4.679
 6407TIP3    H219228   5.234   1.210   4.577
 6408TIP3   OH219229   3.267   4.848   2.388
 6408TIP3    H119230   3.205   4.832   2.459
 6408TIP3    H219231   3.226   4.808   2.311
 6409TIP3   OH219232   4.661   4.567   2.744
 6409TIP3    H119233   4.607   4.488   2.755
 6409TIP3    H219234   4.728   4.542   2.681
 6410TIP3   OH219235   2.373   4.691   4.917
 6410TIP3    H119236   2.410   4.661   5.000
 6410TIP3    H219237   2.279   4.698   4.933
 6411TIP3   OH219238   4.262   1.417   4.888
 6411TIP3    H119239   4.255   1.454   4.976
 6411TIP3    H219240   4.239   1.324   4.899
 6412TIP3   OH219241   0.783   4.041   4.753
 6412TIP3    H119242   0.838   4.069   4.826
 6412TIP3    H219243   0.762   4.122   4.707
 6413TIP3   OH219244   5.933   5.319   3.506
 6413TIP3    H119245   5.873   5.387   3.475
 6413TIP3    H219246   5.915   5.244   3.448
 6414TIP3   OH219247   3.623   3.452   2.966
 6414TIP3    H119248   3.704   3.444   3.017
 6414TIP3    H219249   3.553   3.438   3.029
 6415TIP3   OH219250   3.013   3.518   0.479
 6415TIP3    H119251   2.979   3.436   0.444
 6415TIP3    H219252   3.095   3.494   0.522
 6416TIP3   OH219253   0.965   2.577   1.597
 6416TIP3    H119254   0.979   2.569   1.691
 6416TIP3    H219255   1.052   2.586   1.559
 6417TIP3   OH219256   6.198   0.410   1.878
 6417TIP3    H119257   6.282   0.455   1.891
 6417TIP3    H219258   6.221   0.329   1.833
 6418TIP3   OH219259   0.245   1.211   4.913
 6418TIP3    H119260   0.223   1.288   4.861
 6418TIP3    H219261   0.169   1.154   4.905
 6419TIP3   OH219262   0.518   3.738   4.867
 6419TIP3    H119263   0.601   3.765   4.828
 6419TIP3    H219264   0.463   3.714   4.792
 6420TIP3   OH219265   4.768   3.915   2.593
 6420TIP3    H119266   4.712   3.842   2.569
 6420TIP3    H219267   4.847   3.875   2.628
 6421TIP3   OH219268   2.782   4.152   3.823
 6421TIP3    H119269   2.696   4.189   3.802
 6421TIP3    H219270   2.823   4.218   3.879
 6422TIP3   OH219271   6.188   4.407   3.879
 6422TIP3    H119272   6.206   4.498   3.903
 6422TIP3    H219273   6.253   4.357   3.928
 6423TIP3   OH219274   5.839   5.702   3.554
 6423TIP3    H119275   5.824   5.617   3.513
 6423TIP3    H219276   5.772   5.759   3.517
 6424TIP3   OH219277   0.870   4.740   2.631
 6424TIP3    H119278   0.925   4.663   2.647
 6424TIP3    H219279   0.798   4.731   2.693
 6425TIP3   OH219280   3.957   4.212   3.763
 6425TIP3    H119281   3.936   4.284   3.703
 6425TIP3    H219282   4.048   4.229   3.790
 6426TIP3   OH219283   0.994   5.823   2.655
 6426TIP3    H119284   0.977   5.853   2.566
 6426TIP3    H219285   0.946   5.883   2.711
 6427TIP3   OH219286   5.803   4.611   4.457
 6427TIP3    H119287   5.736   4.645   4.397
 6427TIP3    H219288   5.857   4.686   4.478
 6428TIP3   OH219289   0.572   5.900   3.507
 6428TIP3    H119290   0.600   5.815   3.475
 6428TIP3    H219291   0.513   5.881   3.579
 6429TIP3   OH219292   2.147   3.756   4.323
 6429TIP3    H119293   2.071   3.707   4.352
 6429TIP3    H219294   2.222   3.702   4.347
 6430TIP3   OH219295   1.264   3.014   4.925
 6430TIP3    H119296   1.246   3.036   5.017
 6430TIP3    H219297   1.337   2.952   4.929
 6431TIP3   OH219298   1.615   1.800   4.335
 6431TIP3    H119299   1.610   1.876   4.393
 6431TIP3    H219300   1.536   1.750   4.354
 6432TIP3   OH219301   1.894   1.089   0.121
 6432TIP3    H119302   1.985   1.068   0.143
 6432TIP3    H219303   1.892   1.091   0.026
 6433TIP3   OH219304   5.963   3.347   1.312
 6433TIP3    H119305   5.973   3.380   1.401
 6433TIP3    H219306   5.922   3.261   1.322
 6434TIP3   OH219307   2.650   4.550   0.730
 6434TIP3    H119308   2.700   4.572   0.808
 6434TIP3    H219309   2.560   4.541   0.761
 6435TIP3   OH219310   2.958   4.826   0.451
 6435TIP3    H119311   3.016   4.776   0.509
 6435TIP3    H219312   2.998   4.913   0.447
 6436TIP3   OH219313   1.874   5.551   2.369
 6436TIP3    H119314   1.845   5.575   2.457
 6436TIP3    H219315   1.904   5.634   2.330
 6437TIP3   OH219316   2.515   0.253   0.526
 6437TIP3    H119317   2.541   0.342   0.549
 6437TIP3    H219318   2.577   0.197   0.573
 6438TIP3   OH219319   2.962   5.259   0.034
 6438TIP3    H119320   2.908   5.289   0.108
 6438TIP3    H219321   2.916   5.293  -0.043
 6439TIP3   OH219322   4.991   4.998   4.732
 6439TIP3    H119323   4.932   4.979   4.805
 6439TIP3    H219324   4.942   5.060   4.677
 6440TIP3   OH219325   4.009   5.122   4.520
 6440TIP3    H119326   4.069   5.063   4.475
 6440TIP3    H219327   3.941   5.065   4.555
 6441TIP3   OH219328   4.973   0.822   1.065
 6441TIP3    H119329   4.940   0.779   0.986
 6441TIP3    H219330   4.896   0.833   1.120
 6442TIP3   OH219331   5.087   2.656   2.204
 6442TIP3    H119332   5.086   2.661   2.300
 6442TIP3    H219333   5.170   2.612   2.183
 6443TIP3   OH219334   3.101   5.912   0.027
 6443TIP3    H119335   3.153   5.868   0.094
 6443TIP3    H219336   3.016   5.927   0.068
 6444TIP3   OH219337   0.165   1.671   3.880
 6444TIP3    H119338   0.088   1.698   3.929
 6444TIP3    H219339   0.140   1.681   3.788
 6445TIP3   OH219340   2.430   1.364   1.006
 6445TIP3    H119341   2.459   1.453   1.029
 6445TIP3    H219342   2.492   1.335   0.939
 6446TIP3   OH219343   2.664   3.063   4.641
 6446TIP3    H119344   2.615   3.061   4.723
 6446TIP3    H219345   2.634   3.143   4.597
 6447TIP3   OH219346   1.270   3.146   3.228
 6447TIP3    H119347   1.319   3.120   3.150
 6447TIP3    H219348   1.305   3.091   3.298
 6448TIP3   OH219349   4.767   0.406   3.779
 6448TIP3    H119350   4.674   0.418   3.763
 6448TIP3    H219351   4.775   0.409   3.875
 6449TIP3   OH219352   2.730   5.902   1.720
 6449TIP3    H119353   2.780   5.909   1.639
 6449TIP3    H219354   2.686   5.817   1.713
 6450TIP3   OH219355   5.740   5.418   4.887
 6450TIP3    H119356   5.801   5.408   4.814
 6450TIP3    H219357   5.671   5.355   4.870
 6451TIP3   OH219358   4.422   3.910   4.618
 6451TIP3    H119359   4.471   3.830   4.600
 6451TIP3    H219360   4.369   3.889   4.694
 6452TIP3   OH219361   4.472   1.658   2.561
 6452TIP3    H119362   4.558   1.661   2.605
 6452TIP3    H219363   4.432   1.578   2.593
 6453TIP3   OH219364   5.751   5.482   0.204
 6453TIP3    H119365   5.720   5.529   0.281
 6453TIP3    H219366   5.765   5.392   0.233
 6454TIP3   OH219367   4.338   5.176   3.068
 6454TIP3    H119368   4.317   5.127   3.148
 6454TIP3    H219369   4.295   5.126   2.998
 6455TIP3   OH219370   5.689   2.700   2.177
 6455TIP3    H119371   5.689   2.795   2.165
 6455TIP3    H219372   5.654   2.687   2.265
 6456TIP3   OH219373   4.283   2.753   2.196
 6456TIP3    H119374   4.266   2.720   2.285
 6456TIP3    H219375   4.233   2.695   2.139
 6457TIP3   OH219376   6.056   3.573   1.147
 6457TIP3    H119377   6.024   3.608   1.231
 6457TIP3    H219378   6.047   3.478   1.156
 6458TIP3   OH219379   5.627   5.508   0.702
 6458TIP3    H119380   5.605   5.492   0.610
 6458TIP3    H219381   5.543   5.497   0.749
 6459TIP3   OH219382   3.466   0.979   1.593
 6459TIP3    H119383   3.518   1.052   1.560
 6459TIP3    H219384   3.427   1.012   1.674
 6460TIP3   OH219385   0.961   3.231   4.406
 6460TIP3    H119386   0.870   3.237   4.435
 6460TIP3    H219387   0.984   3.321   4.381
 6461TIP3   OH219388   2.691   3.060   2.204
 6461TIP3    H119389   2.762   3.120   2.181
 6461TIP3    H219390   2.653   3.098   2.284
 6462TIP3   OH219391   3.597   4.129   1.732
 6462TIP3    H119392   3.546   4.053   1.705
 6462TIP3    H219393   3.687   4.098   1.734
 6463TIP3   OH219394   4.829   5.506   0.846
 6463TIP3    H119395   4.845   5.522   0.753
 6463TIP3    H219396   4.841   5.591   0.888
 6464TIP3   OH219397   4.925   1.250   4.008
 6464TIP3    H119398   4.893   1.183   4.067
 6464TIP3    H219399   5.020   1.248   4.019
 6465TIP3   OH219400   6.228   4.953   4.361
 6465TIP3    H119401   6.230   5.048   4.353
 6465TIP3    H219402   6.246   4.921   4.273
 6466TIP3   OH219403   5.812   1.164   0.837
 6466TIP3    H119404   5.758   1.129   0.765
 6466TIP3    H219405   5.902   1.158   0.804
 6467TIP3   OH219406   5.345   1.007   3.697
 6467TIP3    H119407   5.439   1.026   3.697
 6467TIP3    H219408   5.308   1.071   3.636
 6468TIP3   OH219409   5.263   3.005   3.926
 6468TIP3    H119410   5.259   3.095   3.961
 6468TIP3    H219411   5.173   2.986   3.899
 6469TIP3   OH219412   3.261   2.891   0.818
 6469TIP3    H119413   3.345   2.846   0.806
 6469TIP3    H219414   3.235   2.868   0.907
 6470TIP3   OH219415   3.325   4.619   1.058
 6470TIP3    H119416   3.369   4.646   0.977
 6470TIP3    H219417   3.339   4.524   1.062
 6471TIP3   OH219418   2.304   0.219   1.187
 6471TIP3    H119419   2.281   0.239   1.096
 6471TIP3    H219420   2.220   0.194   1.227
 6472TIP3   OH219421   4.448   2.434   4.039
 6472TIP3    H119422   4.381   2.421   4.106
 6472TIP3    H219423   4.496   2.351   4.035
 6473TIP3   OH219424   3.860   5.201   3.599
 6473TIP3    H119425   3.798   5.271   3.619
 6473TIP3    H219426   3.942   5.247   3.578
 6474TIP3   OH219427   5.593   0.626   0.874
 6474TIP3    H119428   5.561   0.577   0.950
 6474TIP3    H219429   5.618   0.558   0.811
 6475TIP3   OH219430   4.198   3.663   0.873
 6475TIP3    H119431   4.134   3.728   0.843
 6475TIP3    H219432   4.283   3.707   0.863
 6476TIP3   OH219433   3.474   2.344   4.559
 6476TIP3    H119434   3.558   2.341   4.513
 6476TIP3    H219435   3.462   2.255   4.593
 6477TIP3   OH219436   1.640   2.644   0.071
 6477TIP3    H119437   1.584   2.606   0.138
 6477TIP3    H219438   1.728   2.643   0.110
 6478TIP3   OH219439   5.313   1.706   1.845
 6478TIP3    H119440   5.369   1.776   1.879
 6478TIP3    H219441   5.306   1.644   1.917
 6479TIP3   OH219442   2.822   4.343   1.771
 6479TIP3    H119443   2.761   4.368   1.839
 6479TIP3    H219444   2.794   4.392   1.693
 6480TIP3   OH219445   2.095   4.252   2.912
 6480TIP3    H119446   2.123   4.313   2.981
 6480TIP3    H219447   2.147   4.277   2.836
 6481TIP3   OH219448   2.334   0.726   2.473
 6481TIP3    H119449   2.326   0.784   2.397
 6481TIP3    H219450   2.261   0.665   2.464
 6482TIP3   OH219451   2.621   1.909   0.053
 6482TIP3    H119452   2.547   1.855   0.079
 6482TIP3    H219453   2.604   1.994   0.095
 6483TIP3   OH219454   3.749   1.312   1.835
 6483TIP3    H119455   3.718   1.395   1.801
 6483TIP3    H219456   3.702   1.301   1.918
 6484TIP3   OH219457   4.636   4.852   0.289
 6484TIP3    H119458   4.697   4.875   0.218
 6484TIP3    H219459   4.571   4.923   0.288
 6485TIP3   OH219460   3.787   5.337   0.624
 6485TIP3    H119461   3.830   5.288   0.694
 6485TIP3    H219462   3.696   5.343   0.652
 6486TIP3   OH219463   0.347   0.088   4.301
 6486TIP3    H119464   0.384   0.001   4.285
 6486TIP3    H219465   0.257   0.070   4.328
 6487TIP3   OH219466   3.029   4.723   2.289
 6487TIP3    H119467   2.963   4.754   2.227
 6487TIP3    H219468   3.002   4.633   2.309
 6488TIP3   OH219469   0.386   5.958   4.614
 6488TIP3    H119470   0.398   5.866   4.593
 6488TIP3    H219471   0.361   5.959   4.707
 6489TIP3   OH219472   0.107   5.720   3.301
 6489TIP3    H119473   0.026   5.670   3.315
 6489TIP3    H219474   0.177   5.661   3.328
 6490TIP3   OH219475   2.970   4.629   4.203
 6490TIP3    H119476   3.019   4.607   4.282
 6490TIP3    H219477   3.037   4.641   4.135
 6491TIP3   OH219478   3.844   0.959   0.621
 6491TIP3    H119479   3.835   1.054   0.606
 6491TIP3    H219480   3.764   0.934   0.666
 6492TIP3   OH219481   4.669   4.176   0.210
 6492TIP3    H119482   4.695   4.268   0.219
 6492TIP3    H219483   4.636   4.169   0.120
 6493TIP3   OH219484   5.890   1.319   1.381
 6493TIP3    H119485   5.876   1.306   1.474
 6493TIP3    H219486   5.805   1.346   1.347
 6494TIP3   OH219487   3.836   0.222   1.859
 6494TIP3    H119488   3.746   0.226   1.892
 6494TIP3    H219489   3.839   0.289   1.790
 6495TIP3   OH219490   2.169   3.472   5.067
 6495TIP3    H119491   2.126   3.420   5.000
 6495TIP3    H219492   2.111   3.466   5.143
 6496TIP3   OH219493   1.249   2.197   5.143
 6496TIP3    H119494   1.168   2.153   5.119
 6496TIP3    H219495   1.262   2.262   5.074
 6497TIP3   OH219496   4.064   4.555   3.089
 6497TIP3    H119497   3.978   4.568   3.129
 6497TIP3    H219498   4.115   4.509   3.156
 6498TIP3   OH219499   2.009   4.064   3.273
 6498TIP3    H119500   2.099   4.037   3.289
 6498TIP3    H219501   1.962   4.038   3.353
 6499TIP3   OH219502   4.893   4.413   3.957
 6499TIP3    H119503   4.844   4.447   4.032
 6499TIP3    H219504   4.916   4.491   3.906
 6500TIP3   OH219505   5.743   2.228   2.930
 6500TIP3    H119506   5.741   2.197   2.840
 6500TIP3    H219507   5.758   2.322   2.923
 6501TIP3   OH219508   2.651   0.406   4.451
 6501TIP3    H119509   2.738   0.412   4.491
 6501TIP3    H219510   2.601   0.352   4.513
 6502TIP3   OH219511   0.885   4.062   1.790
 6502TIP3    H119512   0.974   4.091   1.770
 6502TIP3    H219513   0.830   4.137   1.766
 6503TIP3   OH219514   5.732   5.369   2.740
 6503TIP3    H119515   5.691   5.284   2.755
 6503TIP3    H219516   5.747   5.372   2.645
 6504TIP3   OH219517   4.401   2.811   4.051
 6504TIP3    H119518   4.402   2.798   3.956
 6504TIP3    H219519   4.459   2.886   4.065
 6505TIP3   OH219520   4.841   0.735   4.902
 6505TIP3    H119521   4.860   0.786   4.981
 6505TIP3    H219522   4.814   0.649   4.934
 6506TIP3   OH219523   5.561   4.223   1.587
 6506TIP3    H119524   5.490   4.191   1.531
 6506TIP3    H219525   5.516   4.257   1.665
 6507TIP3   OH219526   1.499   5.903   3.045
 6507TIP3    H119527   1.463   5.979   2.999
 6507TIP3    H219528   1.469   5.913   3.136
 6508TIP3   OH219529   3.725   5.816   0.788
 6508TIP3    H119530   3.747   5.811   0.695
 6508TIP3    H219531   3.640   5.859   0.791
 6509TIP3   OH219532   0.072   1.223   1.526
 6509TIP3    H119533   0.037   1.230   1.615
 6509TIP3    H219534   0.130   1.147   1.528
 6510TIP3   OH219535   3.305   4.294   0.759
 6510TIP3    H119536   3.283   4.209   0.796
 6510TIP3    H219537   3.400   4.289   0.742
 6511TIP3   OH219538   4.277   1.854   3.925
 6511TIP3    H119539   4.328   1.859   3.844
 6511TIP3    H219540   4.207   1.791   3.905
 6512TIP3   OH219541   3.673   5.467   4.169
 6512TIP3    H119542   3.757   5.433   4.139
 6512TIP3    H219543   3.662   5.431   4.256
 6513TIP3   OH219544   0.783   4.669   0.610
 6513TIP3    H119545   0.845   4.626   0.551
 6513TIP3    H219546   0.837   4.724   0.666
 6514TIP3   OH219547   2.659   4.921   1.294
 6514TIP3    H119548   2.670   4.893   1.203
 6514TIP3    H219549   2.738   4.889   1.338
 6515TIP3   OH219550   6.204   0.646   4.016
 6515TIP3    H119551   6.116   0.642   4.054
 6515TIP3    H219552   6.262   0.643   4.092
 6516TIP3   OH219553   5.932   2.896   1.218
 6516TIP3    H119554   5.916   2.989   1.199
 6516TIP3    H219555   5.945   2.893   1.313
 6517TIP3   OH219556   1.684   5.560   0.344
 6517TIP3    H119557   1.647   5.476   0.318
 6517TIP3    H219558   1.778   5.547   0.340
 6518TIP3   OH219559   2.347   5.268   4.099
 6518TIP3    H119560   2.271   5.314   4.134
 6518TIP3    H219561   2.379   5.324   4.028
 6519TIP3   OH219562   4.030   3.013   1.483
 6519TIP3    H119563   4.016   2.976   1.570
 6519TIP3    H219564   4.041   2.936   1.426
 6520TIP3   OH219565   3.109   1.152   1.851
 6520TIP3    H119566   3.078   1.097   1.923
 6520TIP3    H219567   3.132   1.235   1.893
 6521TIP3   OH219568   0.540   2.967   1.444
 6521TIP3    H119569   0.515   2.899   1.507
 6521TIP3    H219570   0.586   3.032   1.497
 6522TIP3   OH219571   4.678   1.913   0.727
 6522TIP3    H119572   4.599   1.952   0.691
 6522TIP3    H219573   4.736   1.901   0.651
 6523TIP3   OH219574   3.028   0.351   1.404
 6523TIP3    H119575   3.123   0.338   1.407
 6523TIP3    H219576   2.993   0.285   1.464
 6524TIP3   OH219577   4.434   5.049   5.032
 6524TIP3    H119578   4.354   5.029   4.984
 6524TIP3    H219579   4.466   4.965   5.063
 6525TIP3   OH219580   4.650   3.006   1.651
 6525TIP3    H119581   4.723   3.066   1.635
 6525TIP3    H219582   4.622   2.978   1.564
 6526TIP3   OH219583   1.126   4.256   4.404
 6526TIP3    H119584   1.071   4.185   4.369
 6526TIP3    H219585   1.147   4.227   4.493
 6527TIP3   OH219586   2.590   2.516   2.088
 6527TIP3    H119587   2.527   2.578   2.123
 6527TIP3    H219588   2.674   2.546   2.122
 6528TIP3   OH219589   6.042   5.820   2.560
 6528TIP3    H119590   6.039   5.815   2.656
 6528TIP3    H219591   6.117   5.765   2.536
 6529TIP3   OH219592   5.743   1.692   0.625
 6529TIP3    H119593   5.704   1.771   0.662
 6529TIP3    H219594   5.790   1.652   0.698
 6530TIP3   OH219595   6.343   4.565   2.704
 6530TIP3    H119596   6.336   4.658   2.685
 6530TIP3    H219597   6.277   4.524   2.648
 6531TIP3   OH219598   1.218   1.077   3.255
 6531TIP3    H119599   1.201   1.026   3.334
 6531TIP3    H219600   1.312   1.067   3.240
 6532TIP3   OH219601   4.763   1.523   4.181
 6532TIP3    H119602   4.837   1.463   4.171
 6532TIP3    H219603   4.701   1.475   4.236
 6533TIP3   OH219604   6.227   5.883   0.187
 6533TIP3    H119605   6.191   5.870   0.099
 6533TIP3    H219606   6.262   5.797   0.211
 6534TIP3   OH219607   3.967   0.091   1.365
 6534TIP3    H119608   4.060   0.072   1.364
 6534TIP3    H219609   3.938   0.065   1.452
 6535TIP3   OH219610   0.427   0.377   2.692
 6535TIP3    H119611   0.460   0.457   2.651
 6535TIP3    H219612   0.403   0.321   2.618
 6536TIP3   OH219613   5.871   5.199   3.196
 6536TIP3    H119614   5.864   5.127   3.259
 6536TIP3    H219615   5.953   5.182   3.150
 6537TIP3   OH219616   1.626   1.801   3.228
 6537TIP3    H119617   1.598   1.892   3.240
 6537TIP3    H219618   1.599   1.779   3.139
 6538TIP3   OH219619   4.172   5.836   3.877
 6538TIP3    H119620   4.110   5.905   3.851
 6538TIP3    H219621   4.124   5.782   3.939
 6539TIP3   OH219622   0.094   5.144   2.621
 6539TIP3    H119623   0.090   5.053   2.592
 6539TIP3    H219624   0.120   5.140   2.713
 6540TIP3   OH219625   2.324   1.846   4.620
 6540TIP3    H119626   2.288   1.761   4.594
 6540TIP3    H219627   2.248   1.901   4.634
 6541TIP3   OH219628   0.941   0.774   0.527
 6541TIP3    H119629   0.976   0.685   0.525
 6541TIP3    H219630   1.016   0.829   0.502
 6542TIP3   OH219631   3.478   1.662   4.948
 6542TIP3    H119632   3.392   1.623   4.937
 6542TIP3    H219633   3.484   1.726   4.877
 6543TIP3   OH219634   3.419   1.225   0.013
 6543TIP3    H119635   3.442   1.172  -0.063
 6543TIP3    H219636   3.387   1.161   0.077
 6544TIP3   OH219637   0.289   0.714   4.075
 6544TIP3    H119638   0.195   0.728   4.081
 6544TIP3    H219639   0.322   0.731   4.163
 6545TIP3   OH219640   4.110   1.667   0.634
 6545TIP3    H119641   4.193   1.649   0.677
 6545TIP3    H219642   4.130   1.735   0.570
 6546TIP3   OH219643   1.993   5.674   0.077
 6546TIP3    H119644   1.944   5.749   0.111
 6546TIP3    H219645   2.005   5.617   0.153
 6547TIP3   OH219646   4.061   3.307   2.692
 6547TIP3    H119647   4.099   3.390   2.663
 6547TIP3    H219648   4.021   3.327   2.777
 6548TIP3   OH219649   5.577   5.815   4.243
 6548TIP3    H119650   5.603   5.907   4.248
 6548TIP3    H219651   5.488   5.817   4.209
 6549TIP3   OH219652   1.416   0.844   1.251
 6549TIP3    H119653   1.420   0.888   1.166
 6549TIP3    H219654   1.446   0.911   1.313
 6550TIP3   OH219655   4.841   5.779   3.299
 6550TIP3    H119656   4.821   5.828   3.219
 6550TIP3    H219657   4.756   5.770   3.343
 6551TIP3   OH219658   1.698   2.201   1.182
 6551TIP3    H119659   1.653   2.213   1.266
 6551TIP3    H219660   1.761   2.130   1.199
 6552TIP3   OH219661   2.010   0.420   4.199
 6552TIP3    H119662   2.064   0.385   4.129
 6552TIP3    H219663   1.922   0.424   4.162
 6553TIP3   OH219664   3.406   3.413   1.220
 6553TIP3    H119665   3.439   3.444   1.136
 6553TIP3    H219666   3.485   3.389   1.270
 6554TIP3   OH219667   4.571   2.514   3.540
 6554TIP3    H119668   4.498   2.462   3.507
 6554TIP3    H219669   4.540   2.547   3.625
 6555TIP3   OH219670   0.446   5.772   1.669
 6555TIP3    H119671   0.507   5.822   1.614
 6555TIP3    H219672   0.406   5.708   1.610
 6556TIP3   OH219673   1.430   4.387   3.008
 6556TIP3    H119674   1.420   4.437   2.926
 6556TIP3    H219675   1.513   4.342   2.998
 6557TIP3   OH219676   5.917   2.642   2.003
 6557TIP3    H119677   5.946   2.725   1.966
 6557TIP3    H219678   5.842   2.665   2.059
 6558TIP3   OH219679   6.040   2.763   4.817
 6558TIP3    H119680   5.983   2.802   4.884
 6558TIP3    H219681   6.048   2.832   4.751
 6559TIP3   OH219682   5.796   5.737   4.744
 6559TIP3    H119683   5.873   5.684   4.765
 6559TIP3    H219684   5.810   5.766   4.654
 6560TIP3   OH219685   5.190   5.969   1.767
 6560TIP3    H119686   5.144   5.903   1.716
 6560TIP3    H219687   5.202   6.042   1.707
 6561TIP3   OH219688   4.192   4.937   3.143
 6561TIP3    H119689   4.213   4.956   3.235
 6561TIP3    H219690   4.096   4.935   3.140
 6562TIP3   OH219691   3.255   0.517   0.881
 6562TIP3    H119692   3.213   0.518   0.967
 6562TIP3    H219693   3.347   0.500   0.899
 6563TIP3   OH219694   5.784   1.313   4.487
 6563TIP3    H119695   5.764   1.327   4.580
 6563TIP3    H219696   5.858   1.253   4.487
 6564TIP3   OH219697   1.205   2.594   1.446
 6564TIP3    H119698   1.294   2.590   1.481
 6564TIP3    H219699   1.209   2.546   1.363
 6565TIP3   OH219700   5.745   3.418   3.409
 6565TIP3    H119701   5.800   3.349   3.445
 6565TIP3    H219702   5.806   3.483   3.376
 6566TIP3   OH219703   6.114   1.450   1.572
 6566TIP3    H119704   6.169   1.402   1.635
 6566TIP3    H219705   6.027   1.448   1.610
 6567TIP3   OH219706   1.050   1.569   3.741
 6567TIP3    H119707   1.091   1.594   3.659
 6567TIP3    H219708   0.999   1.490   3.720
 6568TIP3   OH219709   3.627   3.438   4.735
 6568TIP3    H119710   3.632   3.533   4.729
 6568TIP3    H219711   3.553   3.414   4.679
 6569TIP3   OH219712   5.838   5.034   3.398
 6569TIP3    H119713   5.760   5.010   3.447
 6569TIP3    H219714   5.859   4.956   3.347
 6570TIP3   OH219715   2.313   5.452   0.111
 6570TIP3    H119716   2.348   5.364   0.123
 6570TIP3    H219717   2.357   5.485   0.032
 6571TIP3   OH219718   3.374   0.946   3.071
 6571TIP3    H119719   3.351   1.018   3.130
 6571TIP3    H219720   3.446   0.981   3.018
 6572TIP3   OH219721   1.661   2.585   2.459
 6572TIP3    H119722   1.566   2.600   2.454
 6572TIP3    H219723   1.674   2.538   2.541
 6573TIP3   OH219724   6.359   4.370   0.559
 6573TIP3    H119725   6.423   4.316   0.605
 6573TIP3    H219726   6.275   4.346   0.599
 6574TIP3   OH219727   2.968   3.845   1.578
 6574TIP3    H119728   3.059   3.872   1.566
 6574TIP3    H219729   2.930   3.914   1.632
 6575TIP3   OH219730   2.245   5.022   4.000
 6575TIP3    H119731   2.290   5.092   4.047
 6575TIP3    H219732   2.207   5.065   3.923
 6576TIP3   OH219733   5.322   5.470   0.092
 6576TIP3    H119734   5.310   5.462   0.187
 6576TIP3    H219735   5.410   5.506   0.082
 6577TIP3   OH219736   0.261   2.569   5.052
 6577TIP3    H119737   0.299   2.648   5.013
 6577TIP3    H219738   0.334   2.507   5.058
 6578TIP3   OH219739   4.046   0.914   2.461
 6578TIP3    H119740   4.079   1.003   2.449
 6578TIP3    H219741   4.030   0.907   2.555
 6579TIP3   OH219742   0.516   1.079   4.658
 6579TIP3    H119743   0.497   1.098   4.566
 6579TIP3    H219744   0.471   0.997   4.675
 6580TIP3   OH219745   1.261   1.289   4.980
 6580TIP3    H119746   1.334   1.304   4.920
 6580TIP3    H219747   1.251   1.372   5.027
 6581TIP3   OH219748   0.359   5.021   0.942
 6581TIP3    H119749   0.326   4.958   0.877
 6581TIP3    H219750   0.409   4.967   1.003
 6582TIP3   OH219751   4.164   2.385   5.050
 6582TIP3    H119752   4.174   2.420   5.138
 6582TIP3    H219753   4.210   2.301   5.052
 6583TIP3   OH219754   5.870   4.038   3.454
 6583TIP3    H119755   5.939   4.100   3.428
 6583TIP3    H219756   5.843   3.997   3.372
 6584TIP3   OH219757   0.182   4.379   0.352
 6584TIP3    H119758   0.129   4.365   0.273
 6584TIP3    H219759   0.118   4.397   0.421
 6585TIP3   OH219760   4.630   5.580   1.296
 6585TIP3    H119761   4.644   5.586   1.390
 6585TIP3    H219762   4.706   5.625   1.257
 6586TIP3   OH219763   0.150   5.815   3.035
 6586TIP3    H119764   0.114   5.785   3.118
 6586TIP3    H219765   0.187   5.736   2.995
 6587TIP3   OH219766   1.412   4.914   0.258
 6587TIP3    H119767   1.320   4.932   0.240
 6587TIP3    H219768   1.458   4.940   0.178
 6588TIP3   OH219769   5.156   0.295   1.118
 6588TIP3    H119770   5.248   0.316   1.133
 6588TIP3    H219771   5.139   0.322   1.028
 6589TIP3   OH219772   3.959   4.081   1.593
 6589TIP3    H119773   3.973   4.007   1.533
 6589TIP3    H219774   4.035   4.080   1.651
 6590TIP3   OH219775   4.051   3.477   4.534
 6590TIP3    H119776   4.033   3.441   4.448
 6590TIP3    H219777   4.014   3.413   4.595
 6591TIP3   OH219778   1.589   2.423   0.558
 6591TIP3    H119779   1.639   2.353   0.600
 6591TIP3    H219780   1.499   2.410   0.590
 6592TIP3   OH219781   3.059   1.657   4.198
 6592TIP3    H119782   3.131   1.719   4.187
 6592TIP3    H219783   3.091   1.576   4.158
 6593TIP3   OH219784   1.133   3.621   2.398
 6593TIP3    H119785   1.146   3.688   2.466
 6593TIP3    H219786   1.219   3.613   2.356
 6594TIP3   OH219787   2.536   1.795   1.675
 6594TIP3    H119788   2.539   1.831   1.764
 6594TIP3    H219789   2.528   1.872   1.618
 6595TIP3   OH219790   3.031   2.608   3.033
 6595TIP3    H119791   3.107   2.612   2.975
 6595TIP3    H219792   2.972   2.545   2.991
 6596TIP3   OH219793   3.684   3.775   5.043
 6596TIP3    H119794   3.763   3.737   5.081
 6596TIP3    H219795   3.663   3.849   5.100
 6597TIP3   OH219796   0.446   4.919   1.987
 6597TIP3    H119797   0.419   4.906   1.896
 6597TIP3    H219798   0.428   5.011   2.004
 6598TIP3   OH219799   3.057   2.092   4.734
 6598TIP3    H119800   3.117   2.021   4.711
 6598TIP3    H219801   3.112   2.156   4.780
 6599TIP3   OH219802   1.587   5.103   0.797
 6599TIP3    H119803   1.510   5.051   0.773
 6599TIP3    H219804   1.571   5.189   0.757
 6600TIP3   OH219805   2.332   2.347   1.949
 6600TIP3    H119806   2.424   2.321   1.938
 6600TIP3    H219807   2.283   2.284   1.897
 6601TIP3   OH219808   4.707   3.009   4.334
 6601TIP3    H119809   4.631   2.950   4.334
 6601TIP3    H219810   4.671   3.094   4.360
 6602TIP3   OH219811   2.235   4.840   1.707
 6602TIP3    H119812   2.285   4.919   1.688
 6602TIP3    H219813   2.143   4.869   1.708
 6603TIP3   OH219814   0.971   1.055   0.239
 6603TIP3    H119815   0.935   1.140   0.261
 6603TIP3    H219816   0.896   1.004   0.208
 6604TIP3   OH219817   3.960   0.266   3.357
 6604TIP3    H119818   3.886   0.295   3.411
 6604TIP3    H219819   3.937   0.177   3.331
 6605TIP3   OH219820   3.102   5.484   3.964
 6605TIP3    H119821   3.168   5.485   4.033
 6605TIP3    H219822   3.039   5.551   3.989
 6606TIP3   OH219823   0.908   1.071   1.293
 6606TIP3    H119824   0.886   1.066   1.200
 6606TIP3    H219825   0.926   1.163   1.309
 6607TIP3   OH219826   0.774   1.240   0.256
 6607TIP3    H119827   0.689   1.204   0.231
 6607TIP3    H219828   0.781   1.322   0.207
 6608TIP3   OH219829   3.095   5.404   2.071
 6608TIP3    H119830   3.074   5.491   2.106
 6608TIP3    H219831   3.171   5.376   2.121
 6609TIP3   OH219832   2.308   2.685   3.722
 6609TIP3    H119833   2.395   2.671   3.758
 6609TIP3    H219834   2.267   2.598   3.722
 6610TIP3   OH219835   5.241   2.677   3.646
 6610TIP3    H119836   5.294   2.607   3.608
 6610TIP3    H219837   5.304   2.744   3.670
 6611TIP3   OH219838   0.985   3.509   0.554
 6611TIP3    H119839   0.959   3.448   0.485
 6611TIP3    H219840   1.022   3.453   0.622
 6612TIP3   OH219841   4.762   4.326   4.730
 6612TIP3    H119842   4.783   4.233   4.730
 6612TIP3    H219843   4.834   4.367   4.778
 6613TIP3   OH219844   6.177   2.989   1.042
 6613TIP3    H119845   6.166   3.059   1.106
 6613TIP3    H219846   6.258   3.010   0.996
 6614TIP3   OH219847   0.848   1.457   1.007
 6614TIP3    H119848   0.934   1.436   1.043
 6614TIP3    H219849   0.847   1.553   1.000
 6615TIP3   OH219850   0.992   5.192   0.514
 6615TIP3    H119851   1.015   5.126   0.448
 6615TIP3    H219852   0.896   5.198   0.508
 6616TIP3   OH219853   5.415   0.802   4.849
 6616TIP3    H119854   5.380   0.735   4.907
 6616TIP3    H219855   5.338   0.847   4.815
 6617TIP3   OH219856   3.062   0.995   2.065
 6617TIP3    H119857   3.126   0.936   2.106
 6617TIP3    H219858   3.009   1.028   2.137
 6618TIP3   OH219859   0.649   1.487   4.343
 6618TIP3    H119860   0.679   1.418   4.403
 6618TIP3    H219861   0.633   1.563   4.400
 6619TIP3   OH219862   0.301   4.480   3.069
 6619TIP3    H119863   0.349   4.486   2.987
 6619TIP3    H219864   0.219   4.526   3.052
 6620TIP3   OH219865   0.912   5.953   2.415
 6620TIP3    H119866   0.822   5.923   2.411
 6620TIP3    H219867   0.926   6.003   2.335
 6621TIP3   OH219868   4.145   4.337   2.403
 6621TIP3    H119869   4.198   4.397   2.455
 6621TIP3    H219870   4.062   4.383   2.391
 6622TIP3   OH219871   3.390   3.929   2.121
 6622TIP3    H119872   3.385   4.020   2.092
 6622TIP3    H219873   3.300   3.907   2.147
 6623TIP3   OH219874   6.055   5.814   3.670
 6623TIP3    H119875   5.963   5.841   3.674
 6623TIP3    H219876   6.052   5.722   3.642
 6624TIP3   OH219877   0.280  -0.030   4.617
 6624TIP3    H119878   0.343   0.041   4.627
 6624TIP3    H219879   0.201   0.000   4.661
 6625TIP3   OH219880   0.767   5.918   3.129
 6625TIP3    H119881   0.760   5.994   3.187
 6625TIP3    H219882   0.700   5.932   3.063
 6626TIP3   OH219883   3.893   3.072   4.803
 6626TIP3    H119884   3.892   3.023   4.885
 6626TIP3    H219885   3.963   3.032   4.752
 6627TIP3   OH219886   6.139   2.346   0.094
 6627TIP3    H119887   6.048   2.356   0.121
 6627TIP3    H219888   6.176   2.434   0.098
 6628TIP3   OH219889   5.477   1.924   1.934
 6628TIP3    H119890   5.419   1.974   1.992
 6628TIP3    H219891   5.531   1.991   1.891
 6629TIP3   OH219892   3.142   0.156   3.540
 6629TIP3    H119893   3.236   0.145   3.554
 6629TIP3    H219894   3.135   0.231   3.482
 6630TIP3   OH219895   3.400   4.516   2.240
 6630TIP3    H119896   3.418   4.450   2.173
 6630TIP3    H219897   3.399   4.599   2.193
 6631TIP3   OH219898   0.326   0.809   4.970
 6631TIP3    H119899   0.259   0.792   4.904
 6631TIP3    H219900   0.289   0.772   5.051
 6632TIP3   OH219901   2.080   4.960   2.063
 6632TIP3    H119902   2.051   5.019   1.993
 6632TIP3    H219903   2.151   5.007   2.106
 6633TIP3   OH219904   6.270   5.025   0.996
 6633TIP3    H119905   6.294   4.987   1.080
 6633TIP3    H219906   6.270   5.120   1.012
 6634TIP3   OH219907   0.832   0.200   1.905
 6634TIP3    H119908   0.848   0.123   1.851
 6634TIP3    H219909   0.914   0.213   1.953
 6635TIP3   OH219910   0.290   0.266   4.848
 6635TIP3    H119911   0.210   0.251   4.799
 6635TIP3    H219912   0.315   0.180   4.881
 6636TIP3   OH219913   4.293   2.630   2.446
 6636TIP3    H119914   4.348   2.553   2.461
 6636TIP3    H219915   4.239   2.636   2.525
 6637TIP3   OH219916   4.391   2.393   2.543
 6637TIP3    H119917   4.363   2.391   2.635
 6637TIP3    H219918   4.438   2.311   2.531
 6638TIP3   OH219919   1.849   2.330   0.196
 6638TIP3    H119920   1.878   2.358   0.110
 6638TIP3    H219921   1.910   2.371   0.257
 6639TIP3   OH219922   1.424   0.170   1.195
 6639TIP3    H119923   1.368   0.233   1.149
 6639TIP3    H219924   1.371   0.090   1.198
 6640TIP3   OH219925   5.592   1.131   1.271
 6640TIP3    H119926   5.610   1.221   1.300
 6640TIP3    H219927   5.662   1.079   1.312
 6641TIP3   OH219928   4.397   1.009   2.606
 6641TIP3    H119929   4.423   1.068   2.677
 6641TIP3    H219930   4.350   1.064   2.545
 6642TIP3   OH219931   0.693   5.661   3.137
 6642TIP3    H119932   0.598   5.667   3.124
 6642TIP3    H219933   0.720   5.749   3.163
 6643TIP3   OH219934   3.250   0.981   2.496
 6643TIP3    H119935   3.281   1.032   2.571
 6643TIP3    H219936   3.309   0.906   2.491
 6644TIP3   OH219937   3.685   5.870   4.856
 6644TIP3    H119938   3.777   5.864   4.829
 6644TIP3    H219939   3.636   5.832   4.784
 6645TIP3   OH219940   0.094   2.361   3.391
 6645TIP3    H119941   0.016   2.320   3.429
 6645TIP3    H219942   0.168   2.314   3.431
   6.35358   5.99021   5.18768   0.00000   0.00000  -2.11787   0.00000  -2.11787  -2.99511
